  59  59   0   0
  0.4481788E+02  0.1426590E-08  0.1235700E-08  0.1500000E-08  0.1000000E-15
  1.000000000000000E-004
  CAR 
 slab_Cel1-OPT                           
      4.17430514    -27.96440256  301     -2.57709872      1.00000000
    -27.964  0.0000E+00  0.0000E+00
    -27.857  0.0000E+00  0.0000E+00
    -27.750  0.0000E+00  0.0000E+00
    -27.643  0.0000E+00  0.0000E+00
    -27.536  0.0000E+00  0.0000E+00
    -27.429  0.0000E+00  0.0000E+00
    -27.322  0.0000E+00  0.0000E+00
    -27.214  0.0000E+00  0.0000E+00
    -27.107  0.0000E+00  0.0000E+00
    -27.000  0.1242E-13  0.1331E-14
    -26.893  0.2269E-09  0.2431E-10
    -26.786  0.4478E-06  0.4799E-07
    -26.679  0.9946E-04  0.1070E-04
    -26.572  0.2688E-02  0.2987E-03
    -26.465  0.9947E-02  0.1364E-02
    -26.357  0.5548E-02  0.1959E-02
    -26.250  0.2486E-02  0.2225E-02
    -26.143  0.1319E-01  0.3638E-02
    -26.036  0.1700E-01  0.5459E-02
    -25.929  0.4793E-02  0.5972E-02
    -25.822  0.6387E-03  0.6041E-02
    -25.715  0.5003E-02  0.6577E-02
    -25.608  0.9985E-02  0.7646E-02
    -25.500  0.3155E-02  0.7984E-02
    -25.393  0.1504E-03  0.8000E-02
    -25.286  0.3921E-03  0.8042E-02
    -25.179  0.4840E-02  0.8561E-02
    -25.072  0.1273E-01  0.9925E-02
    -24.965  0.1343E-01  0.1136E-01
    -24.858  0.1007E-01  0.1244E-01
    -24.751  0.7865E-02  0.1328E-01
    -24.643  0.9049E-02  0.1425E-01
    -24.536  0.8804E-02  0.1520E-01
    -24.429  0.2678E-02  0.1548E-01
    -24.322  0.1559E-03  0.1550E-01
    -24.215  0.5243E-03  0.1556E-01
    -24.108  0.5474E-02  0.1614E-01
    -24.001  0.1589E-01  0.1785E-01
    -23.893  0.1734E-01  0.1970E-01
    -23.786  0.1295E-01  0.2109E-01
    -23.679  0.1316E-01  0.2250E-01
    -23.572  0.1283E-01  0.2388E-01
    -23.465  0.5289E-02  0.2444E-01
    -23.358  0.1034E-02  0.2455E-01
    -23.251  0.4625E-02  0.2505E-01
    -23.144  0.9058E-02  0.2602E-01
    -23.036  0.8104E-02  0.2689E-01
    -22.929  0.8217E-02  0.2777E-01
    -22.822  0.1266E-01  0.2912E-01
    -22.715  0.1357E-01  0.3058E-01
    -22.608  0.9275E-02  0.3157E-01
    -22.501  0.3462E-02  0.3194E-01
    -22.394  0.5291E-03  0.3200E-01
    -22.287  0.9899E-04  0.3201E-01
    -22.179  0.2756E-02  0.3230E-01
    -22.072  0.1557E-01  0.3397E-01
    -21.965  0.2463E-01  0.3661E-01
    -21.858  0.2054E-01  0.3881E-01
    -21.751  0.2161E-01  0.4113E-01
    -21.644  0.2297E-01  0.4359E-01
    -21.537  0.1890E-01  0.4561E-01
    -21.430  0.1551E-01  0.4727E-01
    -21.322  0.6258E-02  0.4794E-01
    -21.215  0.8880E-03  0.4804E-01
    -21.108  0.5054E-02  0.4858E-01
    -21.001  0.1727E-01  0.5043E-01
    -20.894  0.2049E-01  0.5263E-01
    -20.787  0.1982E-01  0.5475E-01
    -20.680  0.1951E-01  0.5684E-01
    -20.572  0.9763E-02  0.5788E-01
    -20.465  0.2725E-02  0.5818E-01
    -20.358  0.1184E-01  0.5945E-01
    -20.251  0.1777E-01  0.6135E-01
    -20.144  0.5851E-02  0.6198E-01
    -20.037  0.3215E-02  0.6232E-01
    -19.930  0.9996E-02  0.6339E-01
    -19.823  0.5273E-02  0.6396E-01
    -19.715  0.4040E-03  0.6400E-01
    -19.608  0.3995E-05  0.6400E-01
    -19.501  0.4640E-08  0.6400E-01
    -19.394  0.5992E-12  0.6400E-01
    -19.287  0.8291E-17  0.6400E-01
    -19.180  0.0000E+00  0.6400E-01
    -19.073  0.0000E+00  0.6400E-01
    -18.966  0.0000E+00  0.6400E-01
    -18.858  0.0000E+00  0.6400E-01
    -18.751  0.0000E+00  0.6400E-01
    -18.644  0.0000E+00  0.6400E-01
    -18.537  0.0000E+00  0.6400E-01
    -18.430  0.0000E+00  0.6400E-01
    -18.323  0.0000E+00  0.6400E-01
    -18.216  0.0000E+00  0.6400E-01
    -18.109  0.2591E-18  0.6400E-01
    -18.001  0.2657E-13  0.6400E-01
    -17.894  0.3357E-09  0.6400E-01
    -17.787  0.4889E-06  0.6400E-01
    -17.680  0.9059E-04  0.6401E-01
    -17.573  0.2467E-02  0.6427E-01
    -17.466  0.1205E-01  0.6557E-01
    -17.359  0.1647E-01  0.6733E-01
    -17.251  0.1444E-01  0.6888E-01
    -17.144  0.1415E-01  0.7039E-01
    -17.037  0.1653E-01  0.7216E-01
    -16.930  0.1821E-01  0.7411E-01
    -16.823  0.1744E-01  0.7598E-01
    -16.716  0.1164E-01  0.7723E-01
    -16.609  0.1030E-01  0.7833E-01
    -16.502  0.7191E-02  0.7910E-01
    -16.394  0.4581E-02  0.7959E-01
    -16.287  0.3131E-02  0.7993E-01
    -16.180  0.6542E-03  0.8000E-01
    -16.073  0.2202E-04  0.8000E-01
    -15.966  0.2248E-05  0.8000E-01
    -15.859  0.2566E-03  0.8003E-01
    -15.752  0.4194E-02  0.8048E-01
    -15.645  0.1326E-01  0.8190E-01
    -15.537  0.1901E-01  0.8393E-01
    -15.430  0.2006E-01  0.8608E-01
    -15.323  0.1121E-01  0.8728E-01
    -15.216  0.3770E-02  0.8769E-01
    -15.109  0.2691E-02  0.8798E-01
    -15.002  0.3254E-02  0.8833E-01
    -14.895  0.4772E-02  0.8884E-01
    -14.788  0.1581E-02  0.8901E-01
    -14.680  0.1612E-02  0.8918E-01
    -14.573  0.4573E-02  0.8967E-01
    -14.466  0.9251E-02  0.9066E-01
    -14.359  0.1181E-01  0.9192E-01
    -14.252  0.1561E-01  0.9360E-01
    -14.145  0.1523E-01  0.9523E-01
    -14.038  0.1556E-01  0.9690E-01
    -13.931  0.2051E-01  0.9909E-01
    -13.823  0.2496E-01  0.1018E+00
    -13.716  0.2205E-01  0.1041E+00
    -13.609  0.2033E-01  0.1063E+00
    -13.502  0.1681E-01  0.1081E+00
    -13.395  0.1617E-01  0.1098E+00
    -13.288  0.1592E-01  0.1115E+00
    -13.181  0.1718E-01  0.1134E+00
    -13.073  0.1279E-01  0.1148E+00
    -12.966  0.8748E-02  0.1157E+00
    -12.859  0.1034E-01  0.1168E+00
    -12.752  0.8817E-02  0.1177E+00
    -12.645  0.5642E-02  0.1183E+00
    -12.538  0.1355E-02  0.1185E+00
    -12.431  0.3674E-03  0.1185E+00
    -12.324  0.4384E-02  0.1190E+00
    -12.216  0.1495E-01  0.1206E+00
    -12.109  0.1782E-01  0.1225E+00
    -12.002  0.1538E-01  0.1242E+00
    -11.895  0.2047E-01  0.1264E+00
    -11.788  0.1763E-01  0.1282E+00
    -11.681  0.1329E-01  0.1297E+00
    -11.574  0.1760E-01  0.1316E+00
    -11.467  0.1722E-01  0.1334E+00
    -11.359  0.1640E-01  0.1352E+00
    -11.252  0.1657E-01  0.1369E+00
    -11.145  0.1546E-01  0.1386E+00
    -11.038  0.1136E-01  0.1398E+00
    -10.931  0.1153E-01  0.1410E+00
    -10.824  0.1266E-01  0.1424E+00
    -10.717  0.9402E-02  0.1434E+00
    -10.610  0.8357E-02  0.1443E+00
    -10.502  0.1173E-01  0.1456E+00
    -10.395  0.1585E-01  0.1473E+00
    -10.288  0.1166E-01  0.1485E+00
    -10.181  0.9636E-02  0.1495E+00
    -10.074  0.1210E-01  0.1508E+00
     -9.967  0.1267E-01  0.1522E+00
     -9.860  0.1443E-01  0.1537E+00
     -9.752  0.1482E-01  0.1553E+00
     -9.645  0.1630E-01  0.1571E+00
     -9.538  0.1507E-01  0.1587E+00
     -9.431  0.1165E-01  0.1599E+00
     -9.324  0.1518E-01  0.1616E+00
     -9.217  0.1723E-01  0.1634E+00
     -9.110  0.1654E-01  0.1652E+00
     -9.003  0.1144E-01  0.1664E+00
     -8.895  0.1079E-01  0.1676E+00
     -8.788  0.6317E-02  0.1682E+00
     -8.681  0.1133E-01  0.1694E+00
     -8.574  0.1144E-01  0.1707E+00
     -8.467  0.8852E-02  0.1716E+00
     -8.360  0.1171E-01  0.1729E+00
     -8.253  0.1285E-01  0.1743E+00
     -8.146  0.1643E-01  0.1760E+00
     -8.038  0.1968E-01  0.1781E+00
     -7.931  0.1374E-01  0.1796E+00
     -7.824  0.5020E-02  0.1801E+00
     -7.717  0.8699E-02  0.1811E+00
     -7.610  0.1899E-01  0.1831E+00
     -7.503  0.2933E-01  0.1862E+00
     -7.396  0.3533E-01  0.1900E+00
     -7.289  0.3035E-01  0.1933E+00
     -7.181  0.2940E-01  0.1964E+00
     -7.074  0.2634E-01  0.1992E+00
     -6.967  0.2106E-01  0.2015E+00
     -6.860  0.1905E-01  0.2035E+00
     -6.753  0.1466E-01  0.2051E+00
     -6.646  0.2658E-01  0.2080E+00
     -6.539  0.2680E-01  0.2108E+00
     -6.431  0.1776E-01  0.2127E+00
     -6.324  0.2384E-01  0.2153E+00
     -6.217  0.2820E-01  0.2183E+00
     -6.110  0.2974E-01  0.2215E+00
     -6.003  0.2538E-01  0.2242E+00
     -5.896  0.1740E-01  0.2261E+00
     -5.789  0.1460E-01  0.2276E+00
     -5.682  0.1713E-01  0.2295E+00
     -5.574  0.2698E-01  0.2324E+00
     -5.467  0.2984E-01  0.2356E+00
     -5.360  0.3290E-01  0.2391E+00
     -5.253  0.2961E-01  0.2423E+00
     -5.146  0.2883E-01  0.2454E+00
     -5.039  0.3011E-01  0.2486E+00
     -4.932  0.2615E-01  0.2514E+00
     -4.825  0.2352E-01  0.2539E+00
     -4.717  0.2491E-01  0.2566E+00
     -4.610  0.2833E-01  0.2596E+00
     -4.503  0.2753E-01  0.2626E+00
     -4.396  0.3235E-01  0.2660E+00
     -4.289  0.3574E-01  0.2698E+00
     -4.182  0.3121E-01  0.2732E+00
     -4.075  0.2489E-01  0.2759E+00
     -3.968  0.2176E-01  0.2782E+00
     -3.860  0.2058E-01  0.2804E+00
     -3.753  0.1235E-01  0.2817E+00
     -3.646  0.2765E-02  0.2820E+00
     -3.539  0.3801E-02  0.2824E+00
     -3.432  0.1259E-01  0.2838E+00
     -3.325  0.1402E-01  0.2853E+00
     -3.218  0.6288E-02  0.2859E+00
     -3.110  0.6396E-03  0.2860E+00
     -3.003  0.2688E-02  0.2863E+00
     -2.896  0.9947E-02  0.2874E+00
     -2.789  0.5502E-02  0.2880E+00
     -2.682  0.4344E-03  0.2880E+00
     -2.575  0.4347E-05  0.2880E+00
     -2.468  0.3831E-05  0.2880E+00
     -2.361  0.2624E-03  0.2880E+00
     -2.253  0.2669E-02  0.2883E+00
     -2.146  0.5597E-02  0.2889E+00
     -2.039  0.6733E-02  0.2896E+00
     -1.932  0.9921E-02  0.2907E+00
     -1.825  0.1003E-01  0.2918E+00
     -1.718  0.6541E-02  0.2925E+00
     -1.611  0.8779E-02  0.2934E+00
     -1.504  0.1153E-01  0.2946E+00
     -1.396  0.1494E-01  0.2962E+00
     -1.289  0.1599E-01  0.2980E+00
     -1.182  0.1503E-01  0.2996E+00
     -1.075  0.1123E-01  0.3008E+00
     -0.968  0.7920E-02  0.3016E+00
     -0.861  0.1352E-01  0.3031E+00
     -0.754  0.1620E-01  0.3048E+00
     -0.647  0.1593E-01  0.3065E+00
     -0.539  0.1809E-01  0.3085E+00
     -0.432  0.2044E-01  0.3106E+00
     -0.325  0.1599E-01  0.3124E+00
     -0.218  0.1204E-01  0.3136E+00
     -0.111  0.3143E-02  0.3140E+00
     -0.004  0.2596E-03  0.3140E+00
      0.103  0.2459E-02  0.3143E+00
      0.211  0.9251E-02  0.3153E+00
      0.318  0.6148E-02  0.3159E+00
      0.425  0.6971E-03  0.3160E+00
      0.532  0.1543E-03  0.3160E+00
      0.639  0.2864E-02  0.3163E+00
      0.746  0.9488E-02  0.3173E+00
      0.853  0.5967E-02  0.3180E+00
      0.960  0.5367E-02  0.3186E+00
      1.068  0.1091E-01  0.3197E+00
      1.175  0.1013E-01  0.3208E+00
      1.282  0.1577E-01  0.3225E+00
      1.389  0.1690E-01  0.3243E+00
      1.496  0.1438E-01  0.3258E+00
      1.603  0.1900E-01  0.3279E+00
      1.710  0.2110E-01  0.3301E+00
      1.817  0.1620E-01  0.3319E+00
      1.925  0.1479E-01  0.3335E+00
      2.032  0.2270E-01  0.3359E+00
      2.139  0.2505E-01  0.3386E+00
      2.246  0.2315E-01  0.3411E+00
      2.353  0.2267E-01  0.3435E+00
      2.460  0.2295E-01  0.3459E+00
      2.567  0.2120E-01  0.3482E+00
      2.674  0.2088E-01  0.3505E+00
      2.782  0.1221E-01  0.3518E+00
      2.889  0.2169E-02  0.3520E+00
      2.996  0.7221E-04  0.3520E+00
      3.103  0.3277E-06  0.3520E+00
      3.210  0.1743E-09  0.3520E+00
      3.317  0.1015E-13  0.3520E+00
      3.424  0.0000E+00  0.3520E+00
      3.532  0.0000E+00  0.3520E+00
      3.639  0.0000E+00  0.3520E+00
      3.746  0.0000E+00  0.3520E+00
      3.853  0.0000E+00  0.3520E+00
      3.960  0.0000E+00  0.3520E+00
      4.067  0.0000E+00  0.3520E+00
      4.174  0.0000E+00  0.3520E+00
