       N       E                     dE             d eps       ncg     rms          rms(c)
DAV:   1     0.262123799119E+04    0.26212E+04   -0.10187E+05  1600   0.103E+03
DAV:   2     0.146452763738E+02   -0.26066E+04   -0.24834E+04  2040   0.285E+02
DAV:   3    -0.488884186901E+03   -0.50353E+03   -0.49796E+03  1712   0.136E+02
DAV:   4    -0.506885023830E+03   -0.18001E+02   -0.17297E+02  1624   0.295E+01
DAV:   5    -0.507615675023E+03   -0.73065E+00   -0.71690E+00  1952   0.477E+00    0.561E+01
DAV:   6    -0.475927051165E+03    0.31689E+02   -0.12313E+02  1608   0.365E+01    0.501E+01
DAV:   7    -0.471364457176E+03    0.45626E+01   -0.31020E+01  1592   0.239E+01    0.207E+01
DAV:   8    -0.469959452815E+03    0.14050E+01   -0.96880E+00  1600   0.125E+01    0.127E+01
DAV:   9    -0.468949884835E+03    0.10096E+01   -0.52300E+00  1608   0.115E+01    0.548E+00
DAV:  10    -0.468740508536E+03    0.20938E+00   -0.95724E-01  1568   0.338E+00    0.189E+00
DAV:  11    -0.468734861460E+03    0.56471E-02   -0.14841E-01  1632   0.140E+00    0.141E+00
DAV:  12    -0.468717990642E+03    0.16871E-01   -0.50742E-02  1584   0.871E-01    0.659E-01
DAV:  13    -0.468713000483E+03    0.49902E-02   -0.20397E-02  1568   0.511E-01    0.293E-01
DAV:  14    -0.468714221095E+03   -0.12206E-02   -0.67590E-03  1536   0.274E-01    0.184E-01
DAV:  15    -0.468716184127E+03   -0.19630E-02   -0.27073E-03  1568   0.155E-01    0.140E-01
DAV:  16    -0.468719558854E+03   -0.33747E-02   -0.26974E-03  1520   0.153E-01    0.975E-02
DAV:  17    -0.468724416326E+03   -0.48575E-02   -0.23954E-03  1520   0.102E-01    0.686E-02
DAV:  18    -0.468727339927E+03   -0.29236E-02   -0.26072E-03  1528   0.130E-01    0.742E-02
DAV:  19    -0.468729329523E+03   -0.19896E-02   -0.49731E-04  1600   0.498E-02    0.394E-02
DAV:  20    -0.468731095489E+03   -0.17660E-02   -0.52283E-04  1464   0.522E-02    0.395E-02
DAV:  21    -0.468733221447E+03   -0.21260E-02   -0.70797E-04  1496   0.713E-02    0.343E-02
DAV:  22    -0.468733950515E+03   -0.72907E-03   -0.12996E-04  1432   0.342E-02    0.171E-02
DAV:  23    -0.468735379778E+03   -0.14293E-02   -0.12620E-04  1328   0.221E-02    0.139E-02
DAV:  24    -0.468735908754E+03   -0.52898E-03   -0.23520E-05  1232   0.101E-02    0.114E-02
DAV:  25    -0.468736576906E+03   -0.66815E-03   -0.50923E-05  1296   0.108E-02    0.719E-03
DAV:  26    -0.468736803318E+03   -0.22641E-03   -0.10851E-05   984   0.585E-03    0.393E-03
DAV:  27    -0.468736869225E+03   -0.65906E-04   -0.37465E-06   976   0.380E-03    0.224E-03
DAV:  28    -0.468736905506E+03   -0.36281E-04   -0.27406E-06   936   0.294E-03    0.136E-03
DAV:  29    -0.468736919462E+03   -0.13956E-04   -0.13297E-06   928   0.197E-03    0.823E-04
DAV:  30    -0.468736922521E+03   -0.30587E-05   -0.70231E-07   960   0.170E-03
   1 F= -.46873692E+03 E0= -.46868317E+03  d E =-.468737E+03
       N       E                     dE             d eps       ncg     rms          rms(c)
DAV:   1    -0.472273835401E+03   -0.35369E+01   -0.23367E+02  1408   0.339E+01    0.755E+00
DAV:   2    -0.472777812014E+03   -0.50398E+00   -0.61984E+00  1560   0.110E+01    0.119E+01
DAV:   3    -0.472360144588E+03    0.41767E+00   -0.12537E+00  1552   0.402E+00    0.100E+01
DAV:   4    -0.472351269407E+03    0.88752E-02   -0.12749E-01  1592   0.136E+00    0.836E+00
DAV:   5    -0.472223495208E+03    0.12777E+00   -0.11714E+00  1680   0.362E+00    0.325E+00
DAV:   6    -0.472180368971E+03    0.43126E-01   -0.20724E-01  1544   0.153E+00    0.205E+00
DAV:   7    -0.472164857303E+03    0.15512E-01   -0.35028E-02  1680   0.589E-01    0.168E+00
DAV:   8    -0.472158122183E+03    0.67351E-02   -0.16647E-02  1624   0.384E-01    0.102E+00
DAV:   9    -0.472157053948E+03    0.10682E-02   -0.72089E-03  1600   0.245E-01    0.608E-01
DAV:  10    -0.472156819657E+03    0.23429E-03   -0.47418E-03  1736   0.196E-01    0.276E-01
DAV:  11    -0.472157333493E+03   -0.51384E-03   -0.11433E-03  1592   0.990E-02    0.153E-01
DAV:  12    -0.472157541231E+03   -0.20774E-03   -0.90359E-05  1648   0.268E-02    0.107E-01
DAV:  13    -0.472157759806E+03   -0.21858E-03   -0.52827E-05  1328   0.258E-02    0.368E-02
DAV:  14    -0.472157860982E+03   -0.10118E-03   -0.40808E-05  1312   0.180E-02    0.130E-02
DAV:  15    -0.472157877482E+03   -0.16500E-04   -0.81071E-06   944   0.875E-03    0.546E-03
DAV:  16    -0.472157945255E+03   -0.67772E-04   -0.47950E-06   952   0.536E-03    0.366E-03
DAV:  17    -0.472158011712E+03   -0.66458E-04   -0.62507E-06  1032   0.402E-03    0.337E-03
DAV:  18    -0.472158042092E+03   -0.30380E-04   -0.21870E-06   984   0.286E-03    0.256E-03
DAV:  19    -0.472158069403E+03   -0.27311E-04   -0.39681E-06   968   0.283E-03    0.153E-03
DAV:  20    -0.472158073663E+03   -0.42601E-05   -0.10744E-06   936   0.177E-03
   2 F= -.47215807E+03 E0= -.47209965E+03  d E =-.342115E+01
       N       E                     dE             d eps       ncg     rms          rms(c)
DAV:   1    -0.473406554716E+03   -0.12485E+01   -0.42461E+02  1432   0.454E+01    0.821E+00
DAV:   2    -0.474914657735E+03   -0.15081E+01   -0.10865E+01  1608   0.139E+01    0.170E+01
DAV:   3    -0.473405397043E+03    0.15093E+01   -0.67473E+00  1560   0.678E+00    0.912E+00
DAV:   4    -0.473349616254E+03    0.55781E-01   -0.33125E-01  1600   0.192E+00    0.805E+00
DAV:   5    -0.473324190093E+03    0.25426E-01   -0.24395E-01  1648   0.186E+00    0.538E+00
DAV:   6    -0.473336227412E+03   -0.12037E-01   -0.27997E-01  1616   0.193E+00    0.226E+00
DAV:   7    -0.473284444803E+03    0.51783E-01   -0.90276E-02  1600   0.105E+00    0.191E+00
DAV:   8    -0.473251356336E+03    0.33088E-01   -0.28623E-02  1592   0.538E-01    0.131E+00
DAV:   9    -0.473235172838E+03    0.16183E-01   -0.14410E-02  1632   0.363E-01    0.829E-01
DAV:  10    -0.473228867715E+03    0.63051E-02   -0.57682E-03  1656   0.246E-01    0.544E-01
DAV:  11    -0.473227000863E+03    0.18669E-02   -0.17301E-03  1624   0.111E-01    0.373E-01
DAV:  12    -0.473226168374E+03    0.83249E-03   -0.87696E-04  1712   0.103E-01    0.265E-01
DAV:  13    -0.473225762530E+03    0.40584E-03   -0.13052E-03  1616   0.124E-01    0.654E-02
DAV:  14    -0.473225889568E+03   -0.12704E-03   -0.40766E-04  1632   0.480E-02    0.326E-02
DAV:  15    -0.473225946560E+03   -0.56992E-04   -0.18745E-05  1096   0.120E-02    0.278E-02
DAV:  16    -0.473226071021E+03   -0.12446E-03   -0.24772E-05  1176   0.149E-02    0.145E-02
DAV:  17    -0.473226171438E+03   -0.10042E-03   -0.14313E-05  1088   0.800E-03    0.996E-03
DAV:  18    -0.473226230082E+03   -0.58644E-04   -0.57352E-06  1008   0.489E-03    0.993E-03
DAV:  19    -0.473226269100E+03   -0.39018E-04   -0.43975E-06  1000   0.505E-03    0.531E-03
DAV:  20    -0.473226305365E+03   -0.36265E-04   -0.37824E-06  1000   0.310E-03    0.334E-03
DAV:  21    -0.473226320024E+03   -0.14659E-04   -0.20082E-06   976   0.227E-03    0.175E-03
DAV:  22    -0.473226324653E+03   -0.46290E-05   -0.10119E-06   952   0.176E-03
   3 F= -.47322632E+03 E0= -.47316989E+03  d E =-.448940E+01
       N       E                     dE             d eps       ncg     rms          rms(c)
DAV:   1    -0.473273118999E+03   -0.46799E-01   -0.90193E+00  1448   0.657E+00    0.121E+00
DAV:   2    -0.473319457502E+03   -0.46339E-01   -0.46402E-01  1560   0.200E+00    0.349E+00
DAV:   3    -0.473270768859E+03    0.48689E-01   -0.63788E-02  1584   0.105E+00    0.123E+00
DAV:   4    -0.473274141739E+03   -0.33729E-02   -0.12154E-02  1560   0.369E-01    0.133E+00
DAV:   5    -0.473267656445E+03    0.64853E-02   -0.16005E-02  1584   0.419E-01    0.403E-01
DAV:   6    -0.473268320435E+03   -0.66399E-03   -0.18974E-03  1568   0.146E-01    0.225E-01
DAV:   7    -0.473268307287E+03    0.13148E-04   -0.44444E-04  1568   0.614E-02    0.131E-01
DAV:   8    -0.473268330225E+03   -0.22938E-04   -0.82461E-05  1648   0.293E-02    0.964E-02
DAV:   9    -0.473268340652E+03   -0.10427E-04   -0.66011E-05  1344   0.241E-02    0.354E-02
DAV:  10    -0.473268364995E+03   -0.24343E-04   -0.12276E-05   952   0.114E-02    0.111E-02
DAV:  11    -0.473268380767E+03   -0.15772E-04   -0.39057E-06   904   0.518E-03    0.618E-03
DAV:  12    -0.473268393711E+03   -0.12944E-04   -0.15498E-06   920   0.332E-03    0.190E-03
DAV:  13    -0.473268404260E+03   -0.10549E-04   -0.82391E-07   944   0.193E-03    0.130E-03
DAV:  14    -0.473268413629E+03   -0.93688E-05   -0.65273E-07   920   0.170E-03
   4 F= -.47326841E+03 E0= -.47321130E+03  d E =-.453149E+01
       N       E                     dE             d eps       ncg     rms          rms(c)
DAV:   1    -0.474465164364E+03   -0.11968E+01   -0.12951E+02  1416   0.251E+01    0.349E+00
DAV:   2    -0.474838670421E+03   -0.37351E+00   -0.26515E+00  1560   0.529E+00    0.596E+00
DAV:   3    -0.474583680870E+03    0.25499E+00   -0.12093E+00  1560   0.285E+00    0.213E+00
DAV:   4    -0.474570771631E+03    0.12909E-01   -0.10925E-01  1528   0.115E+00    0.191E+00
DAV:   5    -0.474557317220E+03    0.13454E-01   -0.63825E-02  1560   0.805E-01    0.491E-01
DAV:   6    -0.474556647398E+03    0.66982E-03   -0.92088E-03  1584   0.372E-01    0.325E-01
DAV:   7    -0.474556415389E+03    0.23201E-03   -0.27478E-03  1584   0.181E-01    0.155E-01
DAV:   8    -0.474556353126E+03    0.62263E-04   -0.91206E-04  1544   0.823E-02    0.742E-02
DAV:   9    -0.474556478187E+03   -0.12506E-03   -0.21855E-04  1568   0.370E-02    0.193E-02
DAV:  10    -0.474556529843E+03   -0.51657E-04   -0.27405E-05  1144   0.179E-02    0.119E-02
DAV:  11    -0.474556584108E+03   -0.54265E-04   -0.86042E-06   944   0.925E-03    0.563E-03
DAV:  12    -0.474556632998E+03   -0.48889E-04   -0.32097E-06   944   0.435E-03    0.322E-03
DAV:  13    -0.474556686654E+03   -0.53657E-04   -0.38715E-06   992   0.374E-03    0.215E-03
DAV:  14    -0.474556709044E+03   -0.22390E-04   -0.15195E-06   960   0.243E-03    0.165E-03
DAV:  15    -0.474556727861E+03   -0.18816E-04   -0.12042E-06   928   0.179E-03    0.112E-03
DAV:  16    -0.474556741819E+03   -0.13959E-04   -0.10670E-06   936   0.159E-03    0.733E-04
DAV:  17    -0.474556743817E+03   -0.19977E-05   -0.52503E-07   936   0.109E-03
   5 F= -.47455674E+03 E0= -.47450880E+03  d E =-.128833E+01
       N       E                     dE             d eps       ncg     rms          rms(c)
DAV:   1    -0.474931111344E+03   -0.37437E+00   -0.20933E+02  1432   0.317E+01    0.402E+00
DAV:   2    -0.475260152159E+03   -0.32904E+00   -0.36791E+00  1560   0.548E+00    0.474E+00
DAV:   3    -0.475190615542E+03    0.69537E-01   -0.68486E-01  1592   0.261E+00    0.251E+00
DAV:   4    -0.475134959311E+03    0.55656E-01   -0.14695E-01  1560   0.144E+00    0.146E+00
DAV:   5    -0.475131917305E+03    0.30420E-02   -0.46535E-02  1576   0.655E-01    0.538E-01
DAV:   6    -0.475129956608E+03    0.19607E-02   -0.99675E-03  1592   0.358E-01    0.267E-01
DAV:   7    -0.475129769455E+03    0.18715E-03   -0.27310E-03  1568   0.143E-01    0.104E-01
DAV:   8    -0.475129867806E+03   -0.98351E-04   -0.42478E-04  1568   0.674E-02    0.531E-02
DAV:   9    -0.475129970619E+03   -0.10281E-03   -0.97016E-05  1544   0.322E-02    0.204E-02
DAV:  10    -0.475130039566E+03   -0.68947E-04   -0.17264E-05   960   0.152E-02    0.967E-03
DAV:  11    -0.475130109863E+03   -0.70297E-04   -0.75959E-06   984   0.824E-03    0.482E-03
DAV:  12    -0.475130185774E+03   -0.75911E-04   -0.50726E-06   976   0.446E-03    0.260E-03
DAV:  13    -0.475130241317E+03   -0.55543E-04   -0.38981E-06   992   0.359E-03    0.189E-03
DAV:  14    -0.475130273709E+03   -0.32391E-04   -0.26651E-06  1000   0.263E-03    0.156E-03
DAV:  15    -0.475130288349E+03   -0.14641E-04   -0.13509E-06   936   0.206E-03    0.892E-04
DAV:  16    -0.475130294277E+03   -0.59277E-05   -0.63161E-07   944   0.128E-03
   6 F= -.47513029E+03 E0= -.47510806E+03  d E =-.186188E+01
       N       E                     dE             d eps       ncg     rms          rms(c)
DAV:   1    -0.475821369355E+03   -0.69108E+00   -0.21234E+02  1432   0.293E+01    0.364E+00
DAV:   2    -0.476048121081E+03   -0.22675E+00   -0.29987E+00  1576   0.439E+00    0.224E+00
DAV:   3    -0.476057559205E+03   -0.94381E-02   -0.21439E-01  1600   0.150E+00    0.243E+00
DAV:   4    -0.476034839630E+03    0.22720E-01   -0.13053E-01  1576   0.133E+00    0.119E+00
DAV:   5    -0.476022632962E+03    0.12207E-01   -0.27685E-02  1552   0.606E-01    0.313E-01
DAV:   6    -0.476022436373E+03    0.19659E-03   -0.44300E-03  1680   0.213E-01    0.144E-01
DAV:   7    -0.476022454796E+03   -0.18424E-04   -0.14389E-03  1560   0.110E-01    0.760E-02
DAV:   8    -0.476022567510E+03   -0.11271E-03   -0.24035E-04  1616   0.462E-02    0.374E-02
DAV:   9    -0.476022662806E+03   -0.95296E-04   -0.51091E-05  1360   0.238E-02    0.178E-02
DAV:  10    -0.476022757864E+03   -0.95058E-04   -0.13791E-05  1016   0.116E-02    0.733E-03
DAV:  11    -0.476022831946E+03   -0.74082E-04   -0.58170E-06   976   0.563E-03    0.380E-03
DAV:  12    -0.476022918191E+03   -0.86244E-04   -0.55078E-06   992   0.432E-03    0.281E-03
DAV:  13    -0.476022991108E+03   -0.72917E-04   -0.59118E-06  1008   0.383E-03    0.184E-03
DAV:  14    -0.476023014454E+03   -0.23346E-04   -0.21017E-06   976   0.249E-03    0.140E-03
DAV:  15    -0.476023031410E+03   -0.16956E-04   -0.17310E-06   944   0.195E-03    0.726E-04
DAV:  16    -0.476023041977E+03   -0.10567E-04   -0.94659E-07   968   0.138E-03    0.525E-04
DAV:  17    -0.476023046541E+03   -0.45641E-05   -0.50993E-07   944   0.102E-03
   7 F= -.47602305E+03 E0= -.47600965E+03  d E =-.892752E+00
       N       E                     dE             d eps       ncg     rms          rms(c)
DAV:   1    -0.476119217560E+03   -0.96176E-01   -0.16082E+02  1424   0.255E+01    0.302E+00
DAV:   2    -0.476291525271E+03   -0.17231E+00   -0.22466E+00  1584   0.382E+00    0.179E+00
DAV:   3    -0.476310781324E+03   -0.19256E-01   -0.20293E-01  1592   0.154E+00    0.239E+00
DAV:   4    -0.476273460258E+03    0.37321E-01   -0.96811E-02  1552   0.116E+00    0.879E-01
DAV:   5    -0.476269193285E+03    0.42670E-02   -0.21399E-02  1536   0.468E-01    0.269E-01
DAV:   6    -0.476268915489E+03    0.27780E-03   -0.32223E-03  1664   0.177E-01    0.118E-01
DAV:   7    -0.476268967467E+03   -0.51978E-04   -0.84895E-04  1576   0.808E-02    0.567E-02
DAV:   8    -0.476269054876E+03   -0.87409E-04   -0.12634E-04  1600   0.370E-02    0.289E-02
DAV:   9    -0.476269131267E+03   -0.76391E-04   -0.27840E-05  1120   0.171E-02    0.107E-02
DAV:  10    -0.476269205076E+03   -0.73809E-04   -0.66898E-06   992   0.777E-03    0.475E-03
DAV:  11    -0.476269267260E+03   -0.62184E-04   -0.44255E-06   960   0.440E-03    0.279E-03
DAV:  12    -0.476269342299E+03   -0.75039E-04   -0.51640E-06   992   0.364E-03    0.185E-03
DAV:  13    -0.476269390772E+03   -0.48473E-04   -0.42552E-06  1000   0.309E-03    0.168E-03
DAV:  14    -0.476269407954E+03   -0.17182E-04   -0.17145E-06   952   0.220E-03    0.989E-04
DAV:  15    -0.476269420530E+03   -0.12576E-04   -0.11857E-06   936   0.166E-03    0.655E-04
DAV:  16    -0.476269427634E+03   -0.71041E-05   -0.68449E-07   952   0.122E-03
   8 F= -.47626943E+03 E0= -.47626069E+03  d E =-.113913E+01
       N       E                     dE             d eps       ncg     rms          rms(c)
DAV:   1    -0.476654509097E+03   -0.38509E+00   -0.19205E+02  1448   0.288E+01    0.292E+00
DAV:   2    -0.476875528289E+03   -0.22102E+00   -0.27722E+00  1592   0.447E+00    0.269E+00
DAV:   3    -0.476871190290E+03    0.43380E-02   -0.32230E-01  1600   0.184E+00    0.186E+00
DAV:   4    -0.476839117533E+03    0.32073E-01   -0.85376E-02  1576   0.115E+00    0.117E+00
DAV:   5    -0.476836328048E+03    0.27895E-02   -0.30466E-02  1560   0.452E-01    0.491E-01
DAV:   6    -0.476835986806E+03    0.34124E-03   -0.40976E-03  1592   0.210E-01    0.130E-01
DAV:   7    -0.476836003604E+03   -0.16798E-04   -0.11056E-03  1608   0.917E-02    0.689E-02
DAV:   8    -0.476836075101E+03   -0.71496E-04   -0.15078E-04  1592   0.338E-02    0.287E-02
DAV:   9    -0.476836151332E+03   -0.76231E-04   -0.53164E-05  1424   0.220E-02    0.136E-02
DAV:  10    -0.476836213264E+03   -0.61932E-04   -0.11316E-05  1024   0.117E-02    0.546E-03
DAV:  11    -0.476836265830E+03   -0.52566E-04   -0.50236E-06   984   0.528E-03    0.274E-03
DAV:  12    -0.476836323985E+03   -0.58155E-04   -0.42873E-06   992   0.410E-03    0.185E-03
DAV:  13    -0.476836370149E+03   -0.46164E-04   -0.50926E-06   984   0.377E-03    0.126E-03
DAV:  14    -0.476836382295E+03   -0.12146E-04   -0.13711E-06   960   0.222E-03    0.831E-04
DAV:  15    -0.476836389499E+03   -0.72042E-05   -0.80874E-07   936   0.141E-03
   9 F= -.47683639E+03 E0= -.47683100E+03  d E =-.566962E+00
       N       E                     dE             d eps       ncg     rms          rms(c)
DAV:   1    -0.476853787504E+03   -0.17405E-01   -0.22437E+01  1448   0.980E+00    0.946E-01
DAV:   2    -0.476878513126E+03   -0.24726E-01   -0.30511E-01  1584   0.148E+00    0.841E-01
DAV:   3    -0.476877657634E+03    0.85549E-03   -0.35415E-02  1536   0.623E-01    0.606E-01
DAV:   4    -0.476874364262E+03    0.32934E-02   -0.91401E-03  1536   0.369E-01    0.353E-01
DAV:   5    -0.476874063660E+03    0.30060E-03   -0.30180E-03  1528   0.158E-01    0.118E-01
DAV:   6    -0.476874108956E+03   -0.45296E-04   -0.40843E-04  1696   0.590E-02    0.401E-02
DAV:   7    -0.476874109811E+03   -0.85535E-06   -0.10980E-04  1520   0.273E-02    0.184E-02
DAV:   8    -0.476874123987E+03   -0.14176E-04   -0.11782E-05   968   0.107E-02    0.777E-03
DAV:   9    -0.476874136841E+03   -0.12854E-04   -0.53000E-06   944   0.661E-03    0.352E-03
DAV:  10    -0.476874146234E+03   -0.93932E-05   -0.15404E-06   936   0.355E-03
  10 F= -.47687415E+03 E0= -.47686944E+03  d E =-.604719E+00
       N       E                     dE             d eps       ncg     rms          rms(c)
DAV:   1    -0.477066919460E+03   -0.19278E+00   -0.13036E+02  1424   0.244E+01    0.261E+00
DAV:   2    -0.477215473734E+03   -0.14855E+00   -0.20731E+00  1592   0.374E+00    0.137E+00
DAV:   3    -0.477210265617E+03    0.52081E-02   -0.14731E-01  1600   0.132E+00    0.132E+00
DAV:   4    -0.477198927506E+03    0.11338E-01   -0.57351E-02  1576   0.848E-01    0.738E-01
DAV:   5    -0.477195241550E+03    0.36860E-02   -0.13479E-02  1544   0.400E-01    0.273E-01
DAV:   6    -0.477195228800E+03    0.12750E-04   -0.26167E-03  1600   0.157E-01    0.933E-02
DAV:   7    -0.477195304979E+03   -0.76179E-04   -0.40814E-04  1680   0.538E-02    0.473E-02
DAV:   8    -0.477195361377E+03   -0.56398E-04   -0.86734E-05  1464   0.270E-02    0.221E-02
DAV:   9    -0.477195419699E+03   -0.58322E-04   -0.16444E-05   992   0.136E-02    0.631E-03
DAV:  10    -0.477195462560E+03   -0.42861E-04   -0.60341E-06   960   0.655E-03    0.381E-03
DAV:  11    -0.477195508329E+03   -0.45769E-04   -0.33202E-06   992   0.412E-03    0.226E-03
DAV:  12    -0.477195552647E+03   -0.44318E-04   -0.35813E-06   984   0.321E-03    0.162E-03
DAV:  13    -0.477195574122E+03   -0.21475E-04   -0.13054E-06   968   0.228E-03    0.115E-03
DAV:  14    -0.477195592727E+03   -0.18605E-04   -0.16597E-06   960   0.195E-03    0.621E-04
DAV:  15    -0.477195600141E+03   -0.74137E-05   -0.59407E-07   960   0.125E-03
  11 F= -.47719560E+03 E0= -.47719498E+03  d E =-.321454E+00
       N       E                     dE             d eps       ncg     rms          rms(c)
DAV:   1    -0.477197270540E+03   -0.16778E-02   -0.14976E+00  1424   0.261E+00    0.268E-01
DAV:   2    -0.477198903922E+03   -0.16334E-02   -0.23050E-02  1552   0.402E-01    0.152E-01
DAV:   3    -0.477198870459E+03    0.33462E-04   -0.20349E-03  1552   0.155E-01    0.148E-01
DAV:   4    -0.477198669247E+03    0.20121E-03   -0.69107E-04  1544   0.961E-02    0.704E-02
DAV:   5    -0.477198653008E+03    0.16239E-04   -0.14842E-04  1544   0.385E-02    0.268E-02
DAV:   6    -0.477198653938E+03   -0.92921E-06   -0.27098E-05  1144   0.178E-02
  12 F= -.47719865E+03 E0= -.47719818E+03  d E =-.324508E+00
       N       E                     dE             d eps       ncg     rms          rms(c)
DAV:   1    -0.477327561602E+03   -0.12891E+00   -0.48070E+01  1408   0.147E+01    0.149E+00
DAV:   2    -0.477377663032E+03   -0.50101E-01   -0.73426E-01  1608   0.227E+00    0.906E-01
DAV:   3    -0.477374276562E+03    0.33865E-02   -0.74699E-02  1536   0.947E-01    0.820E-01
DAV:   4    -0.477367939322E+03    0.63372E-02   -0.21141E-02  1560   0.507E-01    0.383E-01
DAV:   5    -0.477367177766E+03    0.76156E-03   -0.48525E-03  1552   0.228E-01    0.157E-01
DAV:   6    -0.477367127353E+03    0.50413E-04   -0.11485E-03  1616   0.112E-01    0.537E-02
DAV:   7    -0.477367151745E+03   -0.24392E-04   -0.21936E-04  1688   0.380E-02    0.298E-02
DAV:   8    -0.477367166405E+03   -0.14660E-04   -0.26432E-05  1120   0.161E-02    0.150E-02
DAV:   9    -0.477367189365E+03   -0.22960E-04   -0.93015E-06   936   0.957E-03    0.397E-03
DAV:  10    -0.477367203469E+03   -0.14104E-04   -0.19556E-06   928   0.460E-03    0.265E-03
DAV:  11    -0.477367225909E+03   -0.22440E-04   -0.16145E-06   936   0.375E-03    0.130E-03
DAV:  12    -0.477367239812E+03   -0.13903E-04   -0.11682E-06   928   0.231E-03    0.102E-03
DAV:  13    -0.477367248689E+03   -0.88772E-05   -0.64017E-07   920   0.160E-03
  13 F= -.47736725E+03 E0= -.47736678E+03  d E =-.168595E+00
       N       E                     dE             d eps       ncg     rms          rms(c)
DAV:   1    -0.477378379491E+03   -0.11140E-01   -0.12568E+01  1408   0.751E+00    0.755E-01
DAV:   2    -0.477391203488E+03   -0.12824E-01   -0.19004E-01  1592   0.117E+00    0.476E-01
DAV:   3    -0.477390252112E+03    0.95138E-03   -0.19945E-02  1536   0.485E-01    0.412E-01
DAV:   4    -0.477388612985E+03    0.16391E-02   -0.54180E-03  1544   0.258E-01    0.193E-01
DAV:   5    -0.477388425446E+03    0.18754E-03   -0.12868E-03  1544   0.113E-01    0.751E-02
DAV:   6    -0.477388421022E+03    0.44232E-05   -0.28484E-04  1632   0.552E-02    0.277E-02
DAV:   7    -0.477388428163E+03   -0.71403E-05   -0.51826E-05  1288   0.193E-02
  14 F= -.47738843E+03 E0= -.47738795E+03  d E =-.189774E+00
       N       E                     dE             d eps       ncg     rms          rms(c)
DAV:   1    -0.477481271065E+03   -0.92850E-01   -0.42164E+01  1416   0.135E+01    0.104E+00
DAV:   2    -0.477529685675E+03   -0.48415E-01   -0.58116E-01  1592   0.189E+00    0.697E-01
DAV:   3    -0.477527746351E+03    0.19393E-02   -0.35090E-02  1584   0.572E-01    0.525E-01
DAV:   4    -0.477525924211E+03    0.18221E-02   -0.99984E-03  1552   0.369E-01    0.383E-01
DAV:   5    -0.477525165584E+03    0.75863E-03   -0.37878E-03  1528   0.197E-01    0.136E-01
DAV:   6    -0.477525282216E+03   -0.11663E-03   -0.94177E-04  1600   0.838E-02    0.527E-02
DAV:   7    -0.477525285541E+03   -0.33257E-05   -0.14505E-04  1576   0.359E-02    0.267E-02
DAV:   8    -0.477525302566E+03   -0.17025E-04   -0.33618E-05  1184   0.171E-02    0.108E-02
DAV:   9    -0.477525321165E+03   -0.18599E-04   -0.70389E-06   920   0.886E-03    0.490E-03
DAV:  10    -0.477525334725E+03   -0.13559E-04   -0.22596E-06   920   0.411E-03    0.263E-03
DAV:  11    -0.477525349388E+03   -0.14663E-04   -0.11660E-06   912   0.248E-03    0.119E-03
DAV:  12    -0.477525359738E+03   -0.10351E-04   -0.78097E-07   928   0.168E-03    0.711E-04
DAV:  13    -0.477525371162E+03   -0.11424E-04   -0.94783E-07   920   0.156E-03    0.501E-04
DAV:  14    -0.477525375858E+03   -0.46960E-05   -0.51223E-07   928   0.111E-03
  15 F= -.47752538E+03 E0= -.47752520E+03  d E =-.136948E+00
       N       E                     dE             d eps       ncg     rms          rms(c)
DAV:   1    -0.477529220980E+03   -0.38498E-02   -0.38165E+01  1424   0.128E+01    0.978E-01
DAV:   2    -0.477572514149E+03   -0.43293E-01   -0.52182E-01  1608   0.179E+00    0.638E-01
DAV:   3    -0.477570728987E+03    0.17852E-02   -0.29951E-02  1584   0.525E-01    0.479E-01
DAV:   4    -0.477569336594E+03    0.13924E-02   -0.87051E-03  1552   0.336E-01    0.357E-01
DAV:   5    -0.477568612396E+03    0.72420E-03   -0.32561E-03  1536   0.185E-01    0.128E-01
DAV:   6    -0.477568705877E+03   -0.93481E-04   -0.83820E-04  1592   0.797E-02    0.477E-02
DAV:   7    -0.477568712126E+03   -0.62494E-05   -0.13270E-04  1568   0.336E-02    0.245E-02
DAV:   8    -0.477568727448E+03   -0.15322E-04   -0.26475E-05  1160   0.157E-02    0.103E-02
DAV:   9    -0.477568744948E+03   -0.17500E-04   -0.63712E-06   920   0.836E-03    0.456E-03
DAV:  10    -0.477568757285E+03   -0.12337E-04   -0.20174E-06   920   0.392E-03    0.249E-03
DAV:  11    -0.477568770849E+03   -0.13564E-04   -0.10870E-06   928   0.239E-03    0.110E-03
DAV:  12    -0.477568780605E+03   -0.97559E-05   -0.74885E-07   936   0.163E-03
  16 F= -.47756878E+03 E0= -.47756872E+03  d E =-.180352E+00
       N       E                     dE             d eps       ncg     rms          rms(c)
DAV:   1    -0.477652742033E+03   -0.83971E-01   -0.53407E+01  1408   0.151E+01    0.118E+00
DAV:   2    -0.477713798552E+03   -0.61057E-01   -0.72311E-01  1592   0.211E+00    0.851E-01
DAV:   3    -0.477710216855E+03    0.35817E-02   -0.49384E-02  1568   0.696E-01    0.622E-01
DAV:   4    -0.477707167153E+03    0.30497E-02   -0.12830E-02  1560   0.411E-01    0.407E-01
DAV:   5    -0.477706393499E+03    0.77365E-03   -0.42893E-03  1544   0.195E-01    0.154E-01
DAV:   6    -0.477706511788E+03   -0.11829E-03   -0.10916E-03  1616   0.909E-02    0.635E-02
DAV:   7    -0.477706501455E+03    0.10333E-04   -0.15351E-04  1592   0.400E-02    0.348E-02
DAV:   8    -0.477706515518E+03   -0.14064E-04   -0.49337E-05  1304   0.218E-02    0.129E-02
DAV:   9    -0.477706531147E+03   -0.15628E-04   -0.75282E-06   920   0.884E-03    0.535E-03
DAV:  10    -0.477706544442E+03   -0.13296E-04   -0.24705E-06   912   0.438E-03    0.256E-03
DAV:  11    -0.477706559051E+03   -0.14608E-04   -0.14851E-06   912   0.303E-03    0.166E-03
DAV:  12    -0.477706568724E+03   -0.96729E-05   -0.78626E-07   952   0.193E-03
  17 F= -.47770657E+03 E0= -.47770654E+03  d E =-.137788E+00
       N       E                     dE             d eps       ncg     rms          rms(c)
DAV:   1    -0.477704173641E+03    0.23854E-02   -0.42277E+01  1408   0.134E+01    0.104E+00
DAV:   2    -0.477752161543E+03   -0.47988E-01   -0.56984E-01  1584   0.187E+00    0.734E-01
DAV:   3    -0.477749377485E+03    0.27841E-02   -0.37775E-02  1576   0.608E-01    0.542E-01
DAV:   4    -0.477747105560E+03    0.22719E-02   -0.10069E-02  1560   0.360E-01    0.356E-01
DAV:   5    -0.477746475323E+03    0.63024E-03   -0.32152E-03  1560   0.172E-01    0.135E-01
DAV:   6    -0.477746564639E+03   -0.89316E-04   -0.88059E-04  1616   0.813E-02    0.542E-02
DAV:   7    -0.477746560368E+03    0.42711E-05   -0.12055E-04  1568   0.353E-02    0.300E-02
DAV:   8    -0.477746574781E+03   -0.14414E-04   -0.36000E-05  1176   0.189E-02    0.114E-02
DAV:   9    -0.477746590488E+03   -0.15707E-04   -0.63286E-06   904   0.811E-03    0.468E-03
DAV:  10    -0.477746603318E+03   -0.12830E-04   -0.22594E-06   936   0.408E-03    0.234E-03
DAV:  11    -0.477746618184E+03   -0.14866E-04   -0.13876E-06   904   0.280E-03    0.145E-03
DAV:  12    -0.477746627818E+03   -0.96338E-05   -0.77562E-07   944   0.183E-03
  18 F= -.47774663E+03 E0= -.47774661E+03  d E =-.177847E+00
       N       E                     dE             d eps       ncg     rms          rms(c)
DAV:   1    -0.477798500377E+03   -0.51882E-01   -0.66447E+01  1432   0.168E+01    0.119E+00
DAV:   2    -0.477873571830E+03   -0.75071E-01   -0.86405E-01  1592   0.228E+00    0.743E-01
DAV:   3    -0.477868494009E+03    0.50778E-02   -0.35144E-02  1624   0.552E-01    0.496E-01
DAV:   4    -0.477867792626E+03    0.70138E-03   -0.12662E-02  1568   0.376E-01    0.343E-01
DAV:   5    -0.477867154276E+03    0.63835E-03   -0.60729E-03  1568   0.260E-01    0.190E-01
DAV:   6    -0.477866867282E+03    0.28699E-03   -0.13876E-03  1536   0.126E-01    0.616E-02
DAV:   7    -0.477866876247E+03   -0.89648E-05   -0.19133E-04  1592   0.397E-02    0.371E-02
DAV:   8    -0.477866888938E+03   -0.12691E-04   -0.43018E-05  1240   0.189E-02    0.166E-02
DAV:   9    -0.477866910122E+03   -0.21184E-04   -0.10541E-05   984   0.105E-02    0.715E-03
DAV:  10    -0.477866926367E+03   -0.16245E-04   -0.32911E-06   936   0.578E-03    0.355E-03
DAV:  11    -0.477866944755E+03   -0.18387E-04   -0.18422E-06   920   0.447E-03    0.187E-03
DAV:  12    -0.477866957458E+03   -0.12703E-04   -0.13064E-06   944   0.307E-03    0.145E-03
DAV:  13    -0.477866967231E+03   -0.97735E-05   -0.70585E-07   904   0.197E-03
  19 F= -.47786697E+03 E0= -.47786696E+03  d E =-.120339E+00
       N       E                     dE             d eps       ncg     rms          rms(c)
DAV:   1    -0.477863787953E+03    0.31695E-02   -0.19542E+01  1416   0.913E+00    0.642E-01
DAV:   2    -0.477885727501E+03   -0.21940E-01   -0.25372E-01  1600   0.124E+00    0.402E-01
DAV:   3    -0.477884191843E+03    0.15357E-02   -0.10311E-02  1584   0.296E-01    0.270E-01
DAV:   4    -0.477883827987E+03    0.36386E-03   -0.32575E-03  1584   0.182E-01    0.148E-01
DAV:   5    -0.477883889144E+03   -0.61157E-04   -0.14578E-03  1584   0.127E-01    0.114E-01
DAV:   6    -0.477883741923E+03    0.14722E-03   -0.49087E-04  1560   0.755E-02    0.349E-02
DAV:   7    -0.477883748138E+03   -0.62148E-05   -0.45997E-05  1200   0.195E-02
  20 F= -.47788375E+03 E0= -.47788374E+03  d E =-.137120E+00
       N       E                     dE             d eps       ncg     rms          rms(c)
DAV:   1    -0.477928519674E+03   -0.44778E-01   -0.46848E+01  1424   0.136E+01    0.930E-01
DAV:   2    -0.477978493530E+03   -0.49974E-01   -0.58300E-01  1592   0.186E+00    0.629E-01
DAV:   3    -0.477975637223E+03    0.28563E-02   -0.24659E-02  1632   0.438E-01    0.429E-01
DAV:   4    -0.477975426866E+03    0.21036E-03   -0.86390E-03  1576   0.306E-01    0.359E-01
DAV:   5    -0.477974288381E+03    0.11385E-02   -0.44201E-03  1568   0.220E-01    0.145E-01
DAV:   6    -0.477974286422E+03    0.19593E-05   -0.94509E-04  1536   0.951E-02    0.503E-02
DAV:   7    -0.477974288859E+03   -0.24370E-05   -0.14055E-04  1616   0.352E-02    0.280E-02
DAV:   8    -0.477974300058E+03   -0.11198E-04   -0.30136E-05  1184   0.165E-02    0.117E-02
DAV:   9    -0.477974312708E+03   -0.12650E-04   -0.64591E-06   936   0.865E-03    0.586E-03
DAV:  10    -0.477974321082E+03   -0.83743E-05   -0.21309E-06   928   0.420E-03
  21 F= -.47797432E+03 E0= -.47797432E+03  d E =-.905729E-01
       N       E                     dE             d eps       ncg     rms          rms(c)
DAV:   1    -0.477968162408E+03    0.61503E-02   -0.29997E+01  1424   0.109E+01    0.739E-01
DAV:   2    -0.477999840003E+03   -0.31678E-01   -0.37098E-01  1600   0.148E+00    0.497E-01
DAV:   3    -0.477997997991E+03    0.18420E-02   -0.15614E-02  1608   0.346E-01    0.337E-01
DAV:   4    -0.477997870466E+03    0.12753E-03   -0.54371E-03  1568   0.242E-01    0.281E-01
DAV:   5    -0.477997169813E+03    0.70065E-03   -0.27743E-03  1568   0.174E-01    0.114E-01
DAV:   6    -0.477997167773E+03    0.20399E-05   -0.58189E-04  1520   0.751E-02    0.394E-02
DAV:   7    -0.477997169673E+03   -0.18998E-05   -0.88621E-05  1592   0.279E-02
  22 F= -.47799717E+03 E0= -.47799717E+03  d E =-.113422E+00
       N       E                     dE             d eps       ncg     rms          rms(c)
DAV:   1    -0.478034568464E+03   -0.37401E-01   -0.43196E+01  1416   0.127E+01    0.823E-01
DAV:   2    -0.478079847999E+03   -0.45280E-01   -0.52840E-01  1584   0.174E+00    0.574E-01
DAV:   3    -0.478077673221E+03    0.21748E-02   -0.22374E-02  1616   0.391E-01    0.389E-01
DAV:   4    -0.478077169042E+03    0.50418E-03   -0.59773E-03  1576   0.238E-01    0.298E-01
DAV:   5    -0.478076644900E+03    0.52414E-03   -0.33561E-03  1552   0.189E-01    0.147E-01
DAV:   6    -0.478076541987E+03    0.10291E-03   -0.92829E-04  1520   0.996E-02    0.509E-02
DAV:   7    -0.478076554400E+03   -0.12413E-04   -0.15120E-04  1552   0.362E-02    0.270E-02
DAV:   8    -0.478076571205E+03   -0.16805E-04   -0.29215E-05  1128   0.145E-02    0.115E-02
DAV:   9    -0.478076594055E+03   -0.22851E-04   -0.70198E-06   952   0.815E-03    0.511E-03
DAV:  10    -0.478076612430E+03   -0.18374E-04   -0.28568E-06   952   0.425E-03    0.291E-03
DAV:  11    -0.478076630762E+03   -0.18332E-04   -0.16927E-06   944   0.290E-03    0.121E-03
DAV:  12    -0.478076643669E+03   -0.12907E-04   -0.12577E-06   944   0.207E-03    0.961E-04
DAV:  13    -0.478076653712E+03   -0.10043E-04   -0.92736E-07   936   0.169E-03    0.581E-04
DAV:  14    -0.478076659589E+03   -0.58765E-05   -0.69617E-07   928   0.126E-03
  23 F= -.47807666E+03 E0= -.47807665E+03  d E =-.794899E-01
       N       E                     dE             d eps       ncg     rms          rms(c)
DAV:   1    -0.478068093528E+03    0.85602E-02   -0.30894E+01  1416   0.107E+01    0.692E-01
DAV:   2    -0.478100178337E+03   -0.32085E-01   -0.37546E-01  1576   0.147E+00    0.481E-01
DAV:   3    -0.478098599648E+03    0.15787E-02   -0.15935E-02  1600   0.331E-01    0.326E-01
DAV:   4    -0.478098292391E+03    0.30726E-03   -0.44005E-03  1568   0.206E-01    0.255E-01
DAV:   5    -0.478097868506E+03    0.42388E-03   -0.24045E-03  1560   0.162E-01    0.120E-01
DAV:   6    -0.478097808779E+03    0.59727E-04   -0.63869E-04  1528   0.815E-02    0.419E-02
DAV:   7    -0.478097815416E+03   -0.66365E-05   -0.10741E-04  1544   0.301E-02    0.220E-02
DAV:   8    -0.478097824492E+03   -0.90764E-05   -0.19636E-05  1064   0.119E-02
  24 F= -.47809782E+03 E0= -.47809781E+03  d E =-.100655E+00
       N       E                     dE             d eps       ncg     rms          rms(c)
DAV:   1    -0.478144483967E+03   -0.46669E-01   -0.44256E+01  1416   0.127E+01    0.896E-01
DAV:   2    -0.478190497942E+03   -0.46014E-01   -0.54153E-01  1512   0.176E+00    0.751E-01
DAV:   3    -0.478185229577E+03    0.52684E-02   -0.40034E-02  1584   0.613E-01    0.452E-01
DAV:   4    -0.478183029075E+03    0.22005E-02   -0.78722E-03  1616   0.275E-01    0.256E-01
DAV:   5    -0.478182786566E+03    0.24251E-03   -0.31984E-03  1552   0.159E-01    0.697E-02
DAV:   6    -0.478182862376E+03   -0.75810E-04   -0.46528E-04  1560   0.637E-02    0.390E-02
DAV:   7    -0.478182879192E+03   -0.16816E-04   -0.69722E-05  1472   0.222E-02    0.192E-02
DAV:   8    -0.478182893439E+03   -0.14247E-04   -0.15592E-05  1104   0.112E-02    0.728E-03
DAV:   9    -0.478182903976E+03   -0.10536E-04   -0.31141E-06   952   0.542E-03    0.258E-03
DAV:  10    -0.478182913303E+03   -0.93275E-05   -0.10298E-06   936   0.274E-03
  25 F= -.47818291E+03 E0= -.47818290E+03  d E =-.850888E-01
       N       E                     dE             d eps       ncg     rms          rms(c)
DAV:   1    -0.478023114716E+03    0.15979E+00   -0.25584E+02  1432   0.303E+01    0.229E+00
DAV:   2    -0.478307481724E+03   -0.28437E+00   -0.33363E+00  1520   0.428E+00    0.179E+00
DAV:   3    -0.478278197958E+03    0.29284E-01   -0.23541E-01  1584   0.154E+00    0.110E+00
DAV:   4    -0.478266568038E+03    0.11630E-01   -0.44093E-02  1616   0.660E-01    0.668E-01
DAV:   5    -0.478263697266E+03    0.28708E-02   -0.17432E-02  1552   0.405E-01    0.209E-01
DAV:   6    -0.478264067195E+03   -0.36993E-03   -0.36171E-03  1552   0.178E-01    0.962E-02
DAV:   7    -0.478264103434E+03   -0.36238E-04   -0.50102E-04  1648   0.606E-02    0.465E-02
DAV:   8    -0.478264160208E+03   -0.56774E-04   -0.90730E-05  1480   0.254E-02    0.173E-02
DAV:   9    -0.478264196661E+03   -0.36453E-04   -0.12675E-05  1032   0.117E-02    0.597E-03
DAV:  10    -0.478264229450E+03   -0.32790E-04   -0.37847E-06   936   0.583E-03    0.345E-03
DAV:  11    -0.478264267645E+03   -0.38195E-04   -0.29325E-06   960   0.411E-03    0.173E-03
DAV:  12    -0.478264299460E+03   -0.31815E-04   -0.25892E-06   976   0.320E-03    0.118E-03
DAV:  13    -0.478264322274E+03   -0.22814E-04   -0.22839E-06   960   0.237E-03    0.935E-04
DAV:  14    -0.478264336688E+03   -0.14414E-04   -0.17541E-06   968   0.181E-03    0.444E-04
DAV:  15    -0.478264342918E+03   -0.62304E-05   -0.99275E-07   944   0.121E-03
  26 F= -.47826434E+03 E0= -.47826433E+03  d E =-.166518E+00
       N       E                     dE             d eps       ncg     rms          rms(c)
DAV:   1    -0.478308633974E+03   -0.44297E-01   -0.37975E+01  1456   0.117E+01    0.798E-01
DAV:   2    -0.478348307789E+03   -0.39674E-01   -0.46171E-01  1504   0.160E+00    0.653E-01
DAV:   3    -0.478344746799E+03    0.35610E-02   -0.29849E-02  1576   0.522E-01    0.421E-01
DAV:   4    -0.478342973683E+03    0.17731E-02   -0.64275E-03  1592   0.247E-01    0.248E-01
DAV:   5    -0.478342725098E+03    0.24859E-03   -0.28054E-03  1536   0.146E-01    0.656E-02
DAV:   6    -0.478342806874E+03   -0.81776E-04   -0.40739E-04  1584   0.567E-02    0.350E-02
DAV:   7    -0.478342819263E+03   -0.12390E-04   -0.55083E-05  1384   0.202E-02    0.163E-02
DAV:   8    -0.478342828003E+03   -0.87398E-05   -0.12635E-05  1040   0.949E-03
  27 F= -.47834283E+03 E0= -.47834281E+03  d E =-.784851E-01
       N       E                     dE             d eps       ncg     rms          rms(c)
DAV:   1    -0.478166568095E+03    0.17625E+00   -0.28201E+02  1456   0.318E+01    0.237E+00
DAV:   2    -0.478487514459E+03   -0.32095E+00   -0.36941E+00  1504   0.447E+00    0.180E+00
DAV:   3    -0.478462386514E+03    0.25128E-01   -0.23379E-01  1592   0.152E+00    0.120E+00
DAV:   4    -0.478449702867E+03    0.12684E-01   -0.47513E-02  1600   0.687E-01    0.754E-01
DAV:   5    -0.478445903605E+03    0.37993E-02   -0.20279E-02  1536   0.429E-01    0.244E-01
DAV:   6    -0.478446412739E+03   -0.50913E-03   -0.43800E-03  1584   0.186E-01    0.102E-01
DAV:   7    -0.478446491079E+03   -0.78340E-04   -0.60298E-04  1608   0.656E-02    0.479E-02
DAV:   8    -0.478446566962E+03   -0.75883E-04   -0.92419E-05  1392   0.238E-02    0.152E-02
DAV:   9    -0.478446614600E+03   -0.47637E-04   -0.12059E-05  1072   0.104E-02    0.610E-03
DAV:  10    -0.478446654295E+03   -0.39696E-04   -0.44820E-06   960   0.539E-03    0.334E-03
DAV:  11    -0.478446693325E+03   -0.39029E-04   -0.40697E-06  1000   0.390E-03    0.173E-03
DAV:  12    -0.478446723620E+03   -0.30295E-04   -0.27238E-06   992   0.314E-03    0.118E-03
DAV:  13    -0.478446744195E+03   -0.20576E-04   -0.24986E-06   992   0.252E-03    0.853E-04
DAV:  14    -0.478446755763E+03   -0.11568E-04   -0.13315E-06   992   0.177E-03    0.494E-04
DAV:  15    -0.478446759928E+03   -0.41651E-05   -0.66493E-07   952   0.110E-03
  28 F= -.47844676E+03 E0= -.47844671E+03  d E =-.182417E+00
       N       E                     dE             d eps       ncg     rms          rms(c)
DAV:   1    -0.478510020685E+03   -0.63265E-01   -0.55510E+01  1456   0.148E+01    0.916E-01
DAV:   2    -0.478568100232E+03   -0.58080E-01   -0.68357E-01  1536   0.193E+00    0.624E-01
DAV:   3    -0.478564660168E+03    0.34401E-02   -0.25450E-02  1680   0.397E-01    0.419E-01
DAV:   4    -0.478564404210E+03    0.25596E-03   -0.84306E-03  1568   0.288E-01    0.345E-01
DAV:   5    -0.478563443908E+03    0.96030E-03   -0.46016E-03  1552   0.231E-01    0.122E-01
DAV:   6    -0.478563492075E+03   -0.48167E-04   -0.76623E-04  1504   0.857E-02    0.437E-02
DAV:   7    -0.478563514388E+03   -0.22313E-04   -0.13603E-04  1592   0.310E-02    0.215E-02
DAV:   8    -0.478563528210E+03   -0.13823E-04   -0.16195E-05  1080   0.111E-02    0.857E-03
DAV:   9    -0.478563539944E+03   -0.11734E-04   -0.42005E-06   928   0.644E-03    0.368E-03
DAV:  10    -0.478563549574E+03   -0.96302E-05   -0.16168E-06   928   0.340E-03
  29 F= -.47856355E+03 E0= -.47856345E+03  d E =-.116790E+00
       N       E                     dE             d eps       ncg     rms          rms(c)
DAV:   1    -0.478367860196E+03    0.19568E+00   -0.28674E+02  1456   0.336E+01    0.233E+00
DAV:   2    -0.478690228854E+03   -0.32237E+00   -0.37481E+00  1528   0.451E+00    0.146E+00
DAV:   3    -0.478673963777E+03    0.16265E-01   -0.13300E-01  1672   0.913E-01    0.102E+00
DAV:   4    -0.478669547045E+03    0.44167E-02   -0.32619E-02  1568   0.564E-01    0.730E-01
DAV:   5    -0.478667203024E+03    0.23440E-02   -0.22024E-02  1576   0.503E-01    0.409E-01
DAV:   6    -0.478666317869E+03    0.88515E-03   -0.57677E-03  1560   0.253E-01    0.113E-01
DAV:   7    -0.478666476944E+03   -0.15907E-03   -0.82636E-04  1560   0.828E-02    0.581E-02
DAV:   8    -0.478666558455E+03   -0.81511E-04   -0.14664E-04  1504   0.295E-02    0.220E-02
DAV:   9    -0.478666619218E+03   -0.60763E-04   -0.18633E-05  1032   0.141E-02    0.873E-03
DAV:  10    -0.478666663182E+03   -0.43965E-04   -0.71989E-06   968   0.744E-03    0.441E-03
DAV:  11    -0.478666705700E+03   -0.42518E-04   -0.50596E-06  1016   0.503E-03    0.193E-03
DAV:  12    -0.478666734251E+03   -0.28551E-04   -0.26004E-06   968   0.300E-03    0.143E-03
DAV:  13    -0.478666762115E+03   -0.27863E-04   -0.41418E-06  1000   0.276E-03    0.980E-04
DAV:  14    -0.478666772525E+03   -0.10411E-04   -0.11663E-06   984   0.174E-03    0.574E-04
DAV:  15    -0.478666779299E+03   -0.67739E-05   -0.82883E-07   944   0.127E-03
  30 F= -.47866678E+03 E0= -.47866636E+03  d E =-.220019E+00
       N       E                     dE             d eps       ncg     rms          rms(c)
DAV:   1    -0.478716945723E+03   -0.50173E-01   -0.37995E+01  1456   0.124E+01    0.727E-01
DAV:   2    -0.478757035106E+03   -0.40089E-01   -0.46612E-01  1504   0.159E+00    0.555E-01
DAV:   3    -0.478755052544E+03    0.19826E-02   -0.22658E-02  1640   0.422E-01    0.417E-01
DAV:   4    -0.478753628327E+03    0.14242E-02   -0.61326E-03  1560   0.247E-01    0.265E-01
DAV:   5    -0.478753282731E+03    0.34560E-03   -0.32037E-03  1544   0.170E-01    0.622E-02
DAV:   6    -0.478753384201E+03   -0.10147E-03   -0.53269E-04  1616   0.608E-02    0.314E-02
DAV:   7    -0.478753399560E+03   -0.15359E-04   -0.57502E-05  1416   0.202E-02    0.160E-02
DAV:   8    -0.478753416942E+03   -0.17381E-04   -0.93689E-06   992   0.975E-03    0.663E-03
DAV:   9    -0.478753426075E+03   -0.91334E-05   -0.32282E-06   912   0.512E-03
  31 F= -.47875343E+03 E0= -.47875298E+03  d E =-.866468E-01
       N       E                     dE             d eps       ncg     rms          rms(c)
DAV:   1    -0.478559762083E+03    0.19365E+00   -0.35053E+02  1456   0.375E+01    0.259E+00
DAV:   2    -0.478963102124E+03   -0.40334E+00   -0.46328E+00  1520   0.497E+00    0.169E+00
DAV:   3    -0.478946857325E+03    0.16245E-01   -0.21571E-01  1640   0.135E+00    0.139E+00
DAV:   4    -0.478934431930E+03    0.12425E-01   -0.55140E-02  1584   0.743E-01    0.942E-01
DAV:   5    -0.478927465655E+03    0.69663E-02   -0.27315E-02  1552   0.519E-01    0.302E-01
DAV:   6    -0.478928530083E+03   -0.10644E-02   -0.69795E-03  1584   0.209E-01    0.101E-01
DAV:   7    -0.478928680710E+03   -0.15063E-03   -0.82555E-04  1616   0.768E-02    0.515E-02
DAV:   8    -0.478928808226E+03   -0.12752E-03   -0.92363E-05  1432   0.285E-02    0.216E-02
DAV:   9    -0.478928885198E+03   -0.76972E-04   -0.20344E-05  1072   0.133E-02    0.847E-03
DAV:  10    -0.478928946366E+03   -0.61168E-04   -0.66785E-06  1000   0.712E-03    0.372E-03
DAV:  11    -0.478928997828E+03   -0.51463E-04   -0.43217E-06   960   0.476E-03    0.204E-03
DAV:  12    -0.478929054686E+03   -0.56858E-04   -0.72502E-06  1000   0.462E-03    0.157E-03
DAV:  13    -0.478929077387E+03   -0.22701E-04   -0.27099E-06  1016   0.287E-03    0.107E-03
DAV:  14    -0.478929090620E+03   -0.13233E-04   -0.18733E-06   960   0.200E-03    0.589E-04
DAV:  15    -0.478929097510E+03   -0.68893E-05   -0.99714E-07   960   0.142E-03
  32 F= -.47892910E+03 E0= -.47892857E+03  d E =-.262318E+00
       N       E                     dE             d eps       ncg     rms          rms(c)
DAV:   1    -0.476780771066E+03    0.21483E+01   -0.14920E+03  1472   0.767E+01    0.811E+00
DAV:   2    -0.478980497185E+03   -0.21997E+01   -0.24458E+01  1544   0.112E+01    0.421E+00
DAV:   3    -0.478922110544E+03    0.58387E-01   -0.94287E-01  1656   0.286E+00    0.355E+00
DAV:   4    -0.478889233614E+03    0.32877E-01   -0.24619E-01  1616   0.148E+00    0.270E+00
DAV:   5    -0.478844137721E+03    0.45096E-01   -0.92599E-02  1568   0.105E+00    0.134E+00
DAV:   6    -0.478844499825E+03   -0.36210E-03   -0.46382E-02  1584   0.523E-01    0.352E-01
DAV:   7    -0.478844961479E+03   -0.46165E-03   -0.60686E-03  1568   0.229E-01    0.153E-01
DAV:   8    -0.478845543403E+03   -0.58192E-03   -0.82507E-04  1552   0.820E-02    0.522E-02
DAV:   9    -0.478845808995E+03   -0.26559E-03   -0.13520E-04  1608   0.310E-02    0.213E-02
DAV:  10    -0.478846012612E+03   -0.20362E-03   -0.26409E-05  1184   0.149E-02    0.106E-02
DAV:  11    -0.478846164684E+03   -0.15207E-03   -0.13379E-05  1056   0.968E-03    0.496E-03
DAV:  12    -0.478846309826E+03   -0.14514E-03   -0.18636E-05  1176   0.829E-03    0.375E-03
DAV:  13    -0.478846396052E+03   -0.86226E-04   -0.84194E-06  1048   0.596E-03    0.250E-03
DAV:  14    -0.478846450119E+03   -0.54067E-04   -0.79847E-06  1056   0.421E-03    0.132E-03
DAV:  15    -0.478846467849E+03   -0.17730E-04   -0.15903E-06  1016   0.222E-03    0.955E-04
DAV:  16    -0.478846484722E+03   -0.16873E-04   -0.15131E-06  1000   0.204E-03    0.476E-04
DAV:  17    -0.478846484557E+03    0.16464E-06   -0.76637E-07   944   0.141E-03
  33 F= -.47884648E+03 E0= -.47884584E+03  d E =-.179705E+00
       N       E                     dE             d eps       ncg     rms          rms(c)
DAV:   1    -0.478329874513E+03    0.51661E+00   -0.60001E+02  1472   0.488E+01    0.332E+00
DAV:   2    -0.479031642676E+03   -0.70177E+00   -0.78342E+00  1552   0.650E+00    0.250E+00
DAV:   3    -0.479013102099E+03    0.18541E-01   -0.40090E-01  1616   0.176E+00    0.182E+00
DAV:   4    -0.478978539879E+03    0.34562E-01   -0.96847E-02  1592   0.107E+00    0.112E+00
DAV:   5    -0.478967840988E+03    0.10699E-01   -0.54713E-02  1560   0.615E-01    0.334E-01
DAV:   6    -0.478969107732E+03   -0.12667E-02   -0.85545E-03  1696   0.235E-01    0.168E-01
DAV:   7    -0.478969239305E+03   -0.13157E-03   -0.99765E-04  1616   0.923E-02    0.726E-02
DAV:   8    -0.478969365666E+03   -0.12636E-03   -0.18377E-04  1568   0.390E-02    0.263E-02
DAV:   9    -0.478969453872E+03   -0.88206E-04   -0.40516E-05  1328   0.180E-02    0.136E-02
DAV:  10    -0.478969540186E+03   -0.86314E-04   -0.82340E-06  1016   0.833E-03    0.555E-03
DAV:  11    -0.478969636901E+03   -0.96715E-04   -0.67826E-06  1000   0.595E-03    0.330E-03
DAV:  12    -0.478969701436E+03   -0.64535E-04   -0.54619E-06  1008   0.513E-03    0.275E-03
DAV:  13    -0.478969756229E+03   -0.54793E-04   -0.47443E-06   984   0.376E-03    0.171E-03
DAV:  14    -0.478969770528E+03   -0.14299E-04   -0.21510E-06  1008   0.250E-03    0.928E-04
DAV:  15    -0.478969782538E+03   -0.12010E-04   -0.98525E-07   936   0.176E-03    0.597E-04
DAV:  16    -0.478969790577E+03   -0.80390E-05   -0.53292E-07   944   0.111E-03
  34 F= -.47896979E+03 E0= -.47896922E+03  d E =-.303011E+00
       N       E                     dE             d eps       ncg     rms          rms(c)
DAV:   1    -0.479078846538E+03   -0.10906E+00   -0.85954E+01  1432   0.197E+01    0.144E+00
DAV:   2    -0.479178967253E+03   -0.10012E+00   -0.12020E+00  1504   0.274E+00    0.123E+00
DAV:   3    -0.479167334063E+03    0.11633E-01   -0.97839E-02  1560   0.100E+00    0.832E-01
DAV:   4    -0.479160598977E+03    0.67351E-02   -0.19669E-02  1560   0.456E-01    0.421E-01
DAV:   5    -0.479159877270E+03    0.72171E-03   -0.89049E-03  1552   0.283E-01    0.144E-01
DAV:   6    -0.479159965674E+03   -0.88405E-04   -0.16325E-03  1560   0.122E-01    0.566E-02
DAV:   7    -0.479160010429E+03   -0.44755E-04   -0.21983E-04  1680   0.367E-02    0.290E-02
DAV:   8    -0.479160033076E+03   -0.22647E-04   -0.29627E-05  1072   0.167E-02    0.115E-02
DAV:   9    -0.479160052994E+03   -0.19918E-04   -0.82016E-06   952   0.898E-03    0.409E-03
DAV:  10    -0.479160068468E+03   -0.15474E-04   -0.23034E-06   928   0.457E-03    0.228E-03
DAV:  11    -0.479160083841E+03   -0.15373E-04   -0.14509E-06   936   0.301E-03    0.112E-03
DAV:  12    -0.479160098498E+03   -0.14657E-04   -0.12960E-06   952   0.232E-03    0.777E-04
DAV:  13    -0.479160108002E+03   -0.95043E-05   -0.88175E-07   952   0.166E-03
  35 F= -.47916011E+03 E0= -.47915947E+03  d E =-.190317E+00
       N       E                     dE             d eps       ncg     rms          rms(c)
DAV:   1    -0.479099369847E+03    0.60729E-01   -0.16388E+02  1448   0.272E+01    0.207E+00
DAV:   2    -0.479294595099E+03   -0.19523E+00   -0.23122E+00  1520   0.380E+00    0.174E+00
DAV:   3    -0.479269670605E+03    0.24924E-01   -0.19612E-01  1584   0.145E+00    0.120E+00
DAV:   4    -0.479256388212E+03    0.13282E-01   -0.38752E-02  1560   0.641E-01    0.612E-01
DAV:   5    -0.479254548353E+03    0.18399E-02   -0.17165E-02  1536   0.411E-01    0.258E-01
DAV:   6    -0.479254481297E+03    0.67056E-04   -0.36603E-03  1552   0.189E-01    0.778E-02
DAV:   7    -0.479254579699E+03   -0.98403E-04   -0.52195E-04  1688   0.569E-02    0.417E-02
DAV:   8    -0.479254622767E+03   -0.43067E-04   -0.58535E-05  1264   0.226E-02    0.185E-02
DAV:   9    -0.479254662919E+03   -0.40152E-04   -0.15404E-05  1024   0.126E-02    0.576E-03
DAV:  10    -0.479254691206E+03   -0.28287E-04   -0.40528E-06   968   0.620E-03    0.316E-03
DAV:  11    -0.479254718768E+03   -0.27562E-04   -0.24721E-06   960   0.392E-03    0.161E-03
DAV:  12    -0.479254747145E+03   -0.28377E-04   -0.23537E-06   952   0.330E-03    0.113E-03
DAV:  13    -0.479254765741E+03   -0.18596E-04   -0.18242E-06   984   0.244E-03    0.787E-04
DAV:  14    -0.479254777055E+03   -0.11314E-04   -0.12027E-06   944   0.179E-03    0.505E-04
DAV:  15    -0.479254783684E+03   -0.66292E-05   -0.79531E-07   952   0.126E-03
  36 F= -.47925478E+03 E0= -.47925404E+03  d E =-.284993E+00
       N       E                     dE             d eps       ncg     rms          rms(c)
DAV:   1    -0.479325757449E+03   -0.70980E-01   -0.59345E+01  1464   0.174E+01    0.115E+00
DAV:   2    -0.479395417718E+03   -0.69660E-01   -0.84252E-01  1544   0.228E+00    0.805E-01
DAV:   3    -0.479393367370E+03    0.20503E-02   -0.45425E-02  1672   0.614E-01    0.641E-01
DAV:   4    -0.479390677550E+03    0.26898E-02   -0.13813E-02  1584   0.406E-01    0.462E-01
DAV:   5    -0.479389390904E+03    0.12866E-02   -0.54457E-03  1552   0.247E-01    0.126E-01
DAV:   6    -0.479389679693E+03   -0.28879E-03   -0.12882E-03  1632   0.101E-01    0.551E-02
DAV:   7    -0.479389709258E+03   -0.29565E-04   -0.19097E-04  1608   0.392E-02    0.266E-02
DAV:   8    -0.479389741334E+03   -0.32076E-04   -0.26086E-05  1080   0.154E-02    0.103E-02
DAV:   9    -0.479389762439E+03   -0.21105E-04   -0.70289E-06   976   0.786E-03    0.487E-03
DAV:  10    -0.479389782055E+03   -0.19617E-04   -0.27681E-06   960   0.459E-03    0.202E-03
DAV:  11    -0.479389798998E+03   -0.16942E-04   -0.20378E-06   976   0.310E-03    0.108E-03
DAV:  12    -0.479389809984E+03   -0.10986E-04   -0.12156E-06   968   0.208E-03    0.865E-04
DAV:  13    -0.479389819065E+03   -0.90813E-05   -0.10977E-06   952   0.169E-03
  37 F= -.47938982E+03 E0= -.47938922E+03  d E =-.135035E+00
       N       E                     dE             d eps       ncg     rms          rms(c)
DAV:   1    -0.479356536465E+03    0.33274E-01   -0.76349E+01  1464   0.197E+01    0.132E+00
DAV:   2    -0.479446769804E+03   -0.90233E-01   -0.10889E+00  1536   0.260E+00    0.917E-01
DAV:   3    -0.479444338566E+03    0.24312E-02   -0.59091E-02  1656   0.701E-01    0.736E-01
DAV:   4    -0.479440662341E+03    0.36762E-02   -0.17760E-02  1584   0.456E-01    0.525E-01
DAV:   5    -0.479438978389E+03    0.16840E-02   -0.68285E-03  1552   0.276E-01    0.148E-01
DAV:   6    -0.479439361110E+03   -0.38272E-03   -0.16927E-03  1616   0.116E-01    0.639E-02
DAV:   7    -0.479439397711E+03   -0.36601E-04   -0.26055E-04  1608   0.461E-02    0.299E-02
DAV:   8    -0.479439438298E+03   -0.40587E-04   -0.34563E-05  1200   0.174E-02    0.123E-02
DAV:   9    -0.479439463937E+03   -0.25639E-04   -0.79907E-06  1000   0.847E-03    0.585E-03
DAV:  10    -0.479439489081E+03   -0.25144E-04   -0.33695E-06   968   0.499E-03    0.217E-03
DAV:  11    -0.479439510639E+03   -0.21557E-04   -0.24864E-06   968   0.331E-03    0.128E-03
DAV:  12    -0.479439525989E+03   -0.15351E-04   -0.16715E-06   992   0.237E-03    0.103E-03
DAV:  13    -0.479439538445E+03   -0.12456E-04   -0.16000E-06   968   0.202E-03    0.572E-04
DAV:  14    -0.479439545076E+03   -0.66312E-05   -0.10389E-06   968   0.154E-03
  38 F= -.47943955E+03 E0= -.47943907E+03  d E =-.184761E+00
       N       E                     dE             d eps       ncg     rms          rms(c)
DAV:   1    -0.479513166374E+03   -0.73628E-01   -0.58464E+01  1472   0.177E+01    0.115E+00
DAV:   2    -0.479583856239E+03   -0.70690E-01   -0.83808E-01  1520   0.229E+00    0.898E-01
DAV:   3    -0.479581926410E+03    0.19298E-02   -0.52323E-02  1648   0.662E-01    0.717E-01
DAV:   4    -0.479577163138E+03    0.47633E-02   -0.13479E-02  1568   0.399E-01    0.419E-01
DAV:   5    -0.479576682796E+03    0.48034E-03   -0.59504E-03  1544   0.229E-01    0.999E-02
DAV:   6    -0.479576945787E+03   -0.26299E-03   -0.11099E-03  1672   0.870E-02    0.527E-02
DAV:   7    -0.479576978845E+03   -0.33058E-04   -0.10797E-04  1560   0.315E-02    0.237E-02
DAV:   8    -0.479577008867E+03   -0.30022E-04   -0.19918E-05  1024   0.147E-02    0.792E-03
DAV:   9    -0.479577028765E+03   -0.19898E-04   -0.59149E-06   920   0.708E-03    0.352E-03
DAV:  10    -0.479577047894E+03   -0.19129E-04   -0.21836E-06   928   0.356E-03    0.179E-03
DAV:  11    -0.479577066495E+03   -0.18601E-04   -0.18747E-06   936   0.243E-03    0.983E-04
DAV:  12    -0.479577078812E+03   -0.12317E-04   -0.12343E-06   928   0.196E-03    0.783E-04
DAV:  13    -0.479577088218E+03   -0.94063E-05   -0.10550E-06   920   0.177E-03
  39 F= -.47957709E+03 E0= -.47957662E+03  d E =-.137543E+00
       N       E                     dE             d eps       ncg     rms          rms(c)
DAV:   1    -0.479434891342E+03    0.14219E+00   -0.21366E+02  1472   0.339E+01    0.245E+00
DAV:   2    -0.479706379899E+03   -0.27149E+00   -0.31908E+00  1568   0.449E+00    0.179E+00
DAV:   3    -0.479703929965E+03    0.24499E-02   -0.21030E-01  1616   0.132E+00    0.151E+00
DAV:   4    -0.479680997371E+03    0.22933E-01   -0.53505E-02  1544   0.793E-01    0.890E-01
DAV:   5    -0.479677870618E+03    0.31268E-02   -0.20902E-02  1560   0.402E-01    0.284E-01
DAV:   6    -0.479678833641E+03   -0.96302E-03   -0.44536E-03  1744   0.172E-01    0.110E-01
DAV:   7    -0.479678965263E+03   -0.13162E-03   -0.43868E-04  1552   0.626E-02    0.470E-02
DAV:   8    -0.479679056784E+03   -0.91521E-04   -0.70145E-05  1536   0.266E-02    0.159E-02
DAV:   9    -0.479679116615E+03   -0.59831E-04   -0.14208E-05   976   0.120E-02    0.714E-03
DAV:  10    -0.479679166632E+03   -0.50017E-04   -0.59033E-06   928   0.599E-03    0.349E-03
DAV:  11    -0.479679215485E+03   -0.48853E-04   -0.43672E-06   952   0.401E-03    0.182E-03
DAV:  12    -0.479679256873E+03   -0.41388E-04   -0.48788E-06   960   0.365E-03    0.161E-03
DAV:  13    -0.479679279668E+03   -0.22795E-04   -0.29160E-06   992   0.300E-03    0.968E-04
DAV:  14    -0.479679292970E+03   -0.13302E-04   -0.22490E-06   960   0.229E-03    0.572E-04
DAV:  15    -0.479679298169E+03   -0.51991E-05   -0.10411E-06   968   0.151E-03
  40 F= -.47967930E+03 E0= -.47967881E+03  d E =-.239753E+00
       N       E                     dE             d eps       ncg     rms          rms(c)
DAV:   1    -0.479729232816E+03   -0.49940E-01   -0.90892E+01  1472   0.229E+01    0.171E+00
DAV:   2    -0.479838170273E+03   -0.10894E+00   -0.14278E+00  1568   0.303E+00    0.113E+00
DAV:   3    -0.479835489848E+03    0.26804E-02   -0.84502E-02  1616   0.896E-01    0.104E+00
DAV:   4    -0.479827552766E+03    0.79371E-02   -0.28746E-02  1552   0.542E-01    0.597E-01
DAV:   5    -0.479825177773E+03    0.23750E-02   -0.10380E-02  1560   0.337E-01    0.172E-01
DAV:   6    -0.479825600907E+03   -0.42313E-03   -0.20982E-03  1680   0.124E-01    0.684E-02
DAV:   7    -0.479825673436E+03   -0.72529E-04   -0.21785E-04  1584   0.426E-02    0.347E-02
DAV:   8    -0.479825729256E+03   -0.55820E-04   -0.33211E-05  1200   0.194E-02    0.134E-02
DAV:   9    -0.479825768202E+03   -0.38946E-04   -0.10030E-05   992   0.969E-03    0.520E-03
DAV:  10    -0.479825799272E+03   -0.31070E-04   -0.31910E-06   976   0.490E-03    0.276E-03
DAV:  11    -0.479825834716E+03   -0.35443E-04   -0.29841E-06   960   0.380E-03    0.142E-03
DAV:  12    -0.479825862917E+03   -0.28202E-04   -0.30259E-06   968   0.302E-03    0.124E-03
DAV:  13    -0.479825877038E+03   -0.14120E-04   -0.16769E-06   992   0.214E-03    0.754E-04
DAV:  14    -0.479825883929E+03   -0.68917E-05   -0.10582E-06   960   0.154E-03
  41 F= -.47982588E+03 E0= -.47982550E+03  d E =-.146586E+00
       N       E                     dE             d eps       ncg     rms          rms(c)
DAV:   1    -0.479810369027E+03    0.15508E-01   -0.41870E+01  1472   0.156E+01    0.112E+00
DAV:   2    -0.479859537178E+03   -0.49168E-01   -0.64789E-01  1560   0.205E+00    0.776E-01
DAV:   3    -0.479858409487E+03    0.11277E-02   -0.39753E-02  1624   0.600E-01    0.703E-01
DAV:   4    -0.479854574744E+03    0.38347E-02   -0.13063E-02  1536   0.368E-01    0.393E-01
DAV:   5    -0.479853766520E+03    0.80822E-03   -0.49197E-03  1560   0.227E-01    0.110E-01
DAV:   6    -0.479853939334E+03   -0.17281E-03   -0.91686E-04  1640   0.845E-02    0.465E-02
DAV:   7    -0.479853978431E+03   -0.39097E-04   -0.10352E-04  1584   0.289E-02    0.238E-02
DAV:   8    -0.479854006350E+03   -0.27919E-04   -0.16399E-05  1040   0.138E-02    0.907E-03
DAV:   9    -0.479854028279E+03   -0.21929E-04   -0.62511E-06   976   0.741E-03    0.362E-03
DAV:  10    -0.479854044363E+03   -0.16084E-04   -0.17299E-06   968   0.369E-03    0.210E-03
DAV:  11    -0.479854064481E+03   -0.20118E-04   -0.17228E-06   944   0.295E-03    0.111E-03
DAV:  12    -0.479854079635E+03   -0.15154E-04   -0.15516E-06   984   0.229E-03    0.902E-04
DAV:  13    -0.479854087558E+03   -0.79231E-05   -0.87676E-07   968   0.158E-03
  42 F= -.47985409E+03 E0= -.47985373E+03  d E =-.174789E+00
       N       E                     dE             d eps       ncg     rms          rms(c)
DAV:   1    -0.479904219874E+03   -0.50140E-01   -0.10256E+02  1440   0.251E+01    0.198E+00
DAV:   2    -0.480026024376E+03   -0.12180E+00   -0.17012E+00  1560   0.327E+00    0.115E+00
DAV:   3    -0.480020167328E+03    0.58570E-02   -0.83500E-02  1688   0.828E-01    0.948E-01
DAV:   4    -0.480018005362E+03    0.21620E-02   -0.31577E-02  1552   0.550E-01    0.763E-01
DAV:   5    -0.480013033216E+03    0.49721E-02   -0.11767E-02  1560   0.370E-01    0.224E-01
DAV:   6    -0.480013784141E+03   -0.75093E-03   -0.29117E-03  1680   0.138E-01    0.759E-02
DAV:   7    -0.480013887893E+03   -0.10375E-03   -0.32504E-04  1560   0.532E-02    0.368E-02
DAV:   8    -0.480013965987E+03   -0.78094E-04   -0.41654E-05  1304   0.217E-02    0.139E-02
DAV:   9    -0.480014003697E+03   -0.37710E-04   -0.82980E-06   984   0.960E-03    0.553E-03
DAV:  10    -0.480014034641E+03   -0.30943E-04   -0.36653E-06   928   0.444E-03    0.263E-03
DAV:  11    -0.480014062938E+03   -0.28298E-04   -0.23410E-06   960   0.301E-03    0.131E-03
DAV:  12    -0.480014082441E+03   -0.19503E-04   -0.18854E-06   976   0.239E-03    0.108E-03
DAV:  13    -0.480014096583E+03   -0.14142E-04   -0.16835E-06   976   0.232E-03    0.692E-04
DAV:  14    -0.480014104569E+03   -0.79853E-05   -0.13157E-06   976   0.177E-03
  43 F= -.48001410E+03 E0= -.48001381E+03  d E =-.160017E+00
       N       E                     dE             d eps       ncg     rms          rms(c)
DAV:   1    -0.479941820287E+03    0.72276E-01   -0.12316E+02  1440   0.276E+01    0.223E+00
DAV:   2    -0.480088780882E+03   -0.14696E+00   -0.20635E+00  1552   0.360E+00    0.127E+00
DAV:   3    -0.480081500131E+03    0.72808E-02   -0.10144E-01  1672   0.917E-01    0.104E+00
DAV:   4    -0.480078937912E+03    0.25622E-02   -0.37631E-02  1560   0.596E-01    0.835E-01
DAV:   5    -0.480073110877E+03    0.58270E-02   -0.13834E-02  1576   0.400E-01    0.261E-01
DAV:   6    -0.480074010995E+03   -0.90012E-03   -0.36144E-03  1664   0.154E-01    0.852E-02
DAV:   7    -0.480074129519E+03   -0.11852E-03   -0.43354E-04  1568   0.612E-02    0.407E-02
DAV:   8    -0.480074222742E+03   -0.93223E-04   -0.54834E-05  1424   0.244E-02    0.154E-02
DAV:   9    -0.480074267533E+03   -0.44791E-04   -0.89978E-06   992   0.104E-02    0.623E-03
DAV:  10    -0.480074305540E+03   -0.38007E-04   -0.45892E-06   960   0.491E-03    0.280E-03
DAV:  11    -0.480074337923E+03   -0.32384E-04   -0.24917E-06   968   0.314E-03    0.142E-03
DAV:  12    -0.480074364539E+03   -0.26616E-04   -0.26484E-06   992   0.271E-03    0.118E-03
DAV:  13    -0.480074381201E+03   -0.16661E-04   -0.21359E-06   984   0.252E-03    0.778E-04
DAV:  14    -0.480074390057E+03   -0.88564E-05   -0.15518E-06   984   0.193E-03
  44 F= -.48007439E+03 E0= -.48007413E+03  d E =-.220302E+00
       N       E                     dE             d eps       ncg     rms          rms(c)
DAV:   1    -0.480135254660E+03   -0.60873E-01   -0.72246E+01  1456   0.215E+01    0.162E+00
DAV:   2    -0.480219991235E+03   -0.84737E-01   -0.11930E+00  1560   0.273E+00    0.959E-01
DAV:   3    -0.480214011309E+03    0.59799E-02   -0.51093E-02  1720   0.639E-01    0.698E-01
DAV:   4    -0.480215547751E+03   -0.15364E-02   -0.22091E-02  1592   0.457E-01    0.674E-01
DAV:   5    -0.480210928816E+03    0.46189E-02   -0.10079E-02  1584   0.338E-01    0.178E-01
DAV:   6    -0.480211480556E+03   -0.55174E-03   -0.19122E-03  1632   0.116E-01    0.624E-02
DAV:   7    -0.480211581119E+03   -0.10056E-03   -0.24795E-04  1600   0.431E-02    0.317E-02
DAV:   8    -0.480211666165E+03   -0.85047E-04   -0.26268E-05  1120   0.153E-02    0.989E-03
DAV:   9    -0.480211714201E+03   -0.48035E-04   -0.69381E-06  1000   0.774E-03    0.419E-03
DAV:  10    -0.480211764262E+03   -0.50061E-04   -0.53802E-06   984   0.557E-03    0.226E-03
DAV:  11    -0.480211808521E+03   -0.44260E-04   -0.48126E-06  1008   0.428E-03    0.161E-03
DAV:  12    -0.480211834813E+03   -0.26291E-04   -0.31697E-06  1000   0.288E-03    0.124E-03
DAV:  13    -0.480211851224E+03   -0.16411E-04   -0.24540E-06  1000   0.231E-03    0.755E-04
DAV:  14    -0.480211860832E+03   -0.96086E-05   -0.16344E-06   976   0.180E-03
  45 F= -.48021186E+03 E0= -.48021161E+03  d E =-.137471E+00
       N       E                     dE             d eps       ncg     rms          rms(c)
DAV:   1    -0.480123543537E+03    0.88308E-01   -0.14777E+02  1456   0.308E+01    0.251E+00
DAV:   2    -0.480305339137E+03   -0.18180E+00   -0.25371E+00  1560   0.399E+00    0.140E+00
DAV:   3    -0.480293778593E+03    0.11561E-01   -0.11067E-01  1720   0.940E-01    0.108E+00
DAV:   4    -0.480295374304E+03   -0.15957E-02   -0.43108E-02  1568   0.634E-01    0.982E-01
DAV:   5    -0.480285880676E+03    0.94936E-02   -0.19391E-02  1576   0.473E-01    0.294E-01
DAV:   6    -0.480286928218E+03   -0.10475E-02   -0.46829E-03  1656   0.178E-01    0.985E-02
DAV:   7    -0.480287130464E+03   -0.20225E-03   -0.62391E-04  1624   0.704E-02    0.476E-02
DAV:   8    -0.480287304613E+03   -0.17415E-03   -0.77314E-05  1528   0.256E-02    0.174E-02
DAV:   9    -0.480287394180E+03   -0.89567E-04   -0.13432E-05  1048   0.121E-02    0.674E-03
DAV:  10    -0.480287483764E+03   -0.89584E-04   -0.11435E-05  1072   0.809E-03    0.378E-03
DAV:  11    -0.480287552493E+03   -0.68729E-04   -0.58291E-06  1016   0.522E-03    0.238E-03
DAV:  12    -0.480287617351E+03   -0.64859E-04   -0.87282E-06  1064   0.430E-03    0.176E-03
DAV:  13    -0.480287646905E+03   -0.29553E-04   -0.34976E-06  1032   0.292E-03    0.116E-03
DAV:  14    -0.480287663336E+03   -0.16431E-04   -0.24982E-06  1016   0.227E-03    0.648E-04
DAV:  15    -0.480287670757E+03   -0.74216E-05   -0.12155E-06   960   0.163E-03
  46 F= -.48028767E+03 E0= -.48028729E+03  d E =-.213281E+00
       N       E                     dE             d eps       ncg     rms          rms(c)
DAV:   1    -0.480354373934E+03   -0.66711E-01   -0.69007E+01  1456   0.214E+01    0.166E+00
DAV:   2    -0.480440304266E+03   -0.85930E-01   -0.11661E+00  1560   0.276E+00    0.113E+00
DAV:   3    -0.480435818373E+03    0.44859E-02   -0.83146E-02  1600   0.887E-01    0.987E-01
DAV:   4    -0.480427476351E+03    0.83420E-02   -0.25179E-02  1552   0.511E-01    0.529E-01
DAV:   5    -0.480426103790E+03    0.13726E-02   -0.79042E-03  1624   0.296E-01    0.153E-01
DAV:   6    -0.480426538911E+03   -0.43512E-03   -0.17592E-03  1632   0.115E-01    0.584E-02
DAV:   7    -0.480426619246E+03   -0.80335E-04   -0.18975E-04  1672   0.374E-02    0.309E-02
DAV:   8    -0.480426667380E+03   -0.48134E-04   -0.19148E-05  1064   0.159E-02    0.115E-02
DAV:   9    -0.480426701452E+03   -0.34072E-04   -0.90444E-06   976   0.902E-03    0.400E-03
DAV:  10    -0.480426725525E+03   -0.24073E-04   -0.27105E-06   960   0.472E-03    0.238E-03
DAV:  11    -0.480426753944E+03   -0.28419E-04   -0.26338E-06  1000   0.380E-03    0.144E-03
DAV:  12    -0.480426780022E+03   -0.26078E-04   -0.29775E-06  1000   0.334E-03    0.109E-03
DAV:  13    -0.480426793681E+03   -0.13658E-04   -0.18031E-06   984   0.235E-03    0.850E-04
DAV:  14    -0.480426801178E+03   -0.74973E-05   -0.10756E-06   992   0.159E-03
  47 F= -.48042680E+03 E0= -.48042648E+03  d E =-.139130E+00
       N       E                     dE             d eps       ncg     rms          rms(c)
DAV:   1    -0.480375492678E+03    0.51301E-01   -0.10455E+02  1456   0.263E+01    0.213E+00
DAV:   2    -0.480508386649E+03   -0.13289E+00   -0.18051E+00  1584   0.344E+00    0.140E+00
DAV:   3    -0.480501286954E+03    0.70997E-02   -0.12744E-01  1608   0.111E+00    0.125E+00
DAV:   4    -0.480488634269E+03    0.12653E-01   -0.38421E-02  1560   0.629E-01    0.687E-01
DAV:   5    -0.480486011737E+03    0.26225E-02   -0.11901E-02  1624   0.369E-01    0.212E-01
DAV:   6    -0.480486687478E+03   -0.67574E-03   -0.30080E-03  1680   0.148E-01    0.733E-02
DAV:   7    -0.480486793537E+03   -0.10606E-03   -0.30968E-04  1624   0.492E-02    0.394E-02
DAV:   8    -0.480486869110E+03   -0.75573E-04   -0.34216E-05  1264   0.202E-02    0.148E-02
DAV:   9    -0.480486917515E+03   -0.48405E-04   -0.11079E-05  1000   0.105E-02    0.509E-03
DAV:  10    -0.480486954236E+03   -0.36721E-04   -0.41265E-06  1000   0.556E-03    0.291E-03
DAV:  11    -0.480486993715E+03   -0.39480E-04   -0.35435E-06   984   0.432E-03    0.174E-03
DAV:  12    -0.480487034872E+03   -0.41156E-04   -0.53700E-06  1008   0.432E-03    0.138E-03
DAV:  13    -0.480487052062E+03   -0.17190E-04   -0.25808E-06  1016   0.286E-03    0.105E-03
DAV:  14    -0.480487061900E+03   -0.98379E-05   -0.15924E-06   976   0.191E-03
  48 F= -.48048706E+03 E0= -.48048678E+03  d E =-.199391E+00
       N       E                     dE             d eps       ncg     rms          rms(c)
DAV:   1    -0.480536310524E+03   -0.49258E-01   -0.83638E+01  1472   0.237E+01    0.184E+00
DAV:   2    -0.480636624237E+03   -0.10031E+00   -0.13684E+00  1608   0.302E+00    0.113E+00
DAV:   3    -0.480632260900E+03    0.43633E-02   -0.77714E-02  1632   0.864E-01    0.971E-01
DAV:   4    -0.480626113059E+03    0.61478E-02   -0.28194E-02  1568   0.532E-01    0.621E-01
DAV:   5    -0.480623837059E+03    0.22760E-02   -0.85166E-03  1632   0.315E-01    0.180E-01
DAV:   6    -0.480624482529E+03   -0.64547E-03   -0.21294E-03  1744   0.124E-01    0.657E-02
DAV:   7    -0.480624569587E+03   -0.87058E-04   -0.22969E-04  1616   0.441E-02    0.357E-02
DAV:   8    -0.480624644811E+03   -0.75224E-04   -0.29774E-05  1144   0.190E-02    0.121E-02
DAV:   9    -0.480624688422E+03   -0.43611E-04   -0.93880E-06   992   0.976E-03    0.431E-03
DAV:  10    -0.480624722039E+03   -0.33617E-04   -0.40253E-06   976   0.502E-03    0.274E-03
DAV:  11    -0.480624758779E+03   -0.36739E-04   -0.33862E-06  1000   0.385E-03    0.150E-03
DAV:  12    -0.480624786564E+03   -0.27786E-04   -0.34718E-06  1016   0.323E-03    0.118E-03
DAV:  13    -0.480624799622E+03   -0.13058E-04   -0.18775E-06   992   0.237E-03    0.810E-04
DAV:  14    -0.480624808271E+03   -0.86488E-05   -0.15526E-06  1024   0.179E-03
  49 F= -.48062481E+03 E0= -.48062453E+03  d E =-.137746E+00
       N       E                     dE             d eps       ncg     rms          rms(c)
DAV:   1    -0.480600278872E+03    0.24521E-01   -0.57397E+01  1472   0.196E+01    0.149E+00
DAV:   2    -0.480668183618E+03   -0.67905E-01   -0.93082E-01  1600   0.249E+00    0.949E-01
DAV:   3    -0.480665237089E+03    0.29465E-02   -0.56371E-02  1640   0.733E-01    0.806E-01
DAV:   4    -0.480660570819E+03    0.46663E-02   -0.19195E-02  1576   0.441E-01    0.493E-01
DAV:   5    -0.480659441969E+03    0.11289E-02   -0.57355E-03  1648   0.257E-01    0.144E-01
DAV:   6    -0.480659873913E+03   -0.43194E-03   -0.13680E-03  1720   0.102E-01    0.528E-02
DAV:   7    -0.480659939833E+03   -0.65920E-04   -0.14730E-04  1616   0.349E-02    0.287E-02
DAV:   8    -0.480659995163E+03   -0.55330E-04   -0.18006E-05  1008   0.151E-02    0.951E-03
DAV:   9    -0.480660028352E+03   -0.33189E-04   -0.75635E-06   960   0.807E-03    0.351E-03
DAV:  10    -0.480660053358E+03   -0.25006E-04   -0.28573E-06  1024   0.430E-03    0.234E-03
DAV:  11    -0.480660082635E+03   -0.29276E-04   -0.30315E-06   984   0.352E-03    0.132E-03
DAV:  12    -0.480660103680E+03   -0.21046E-04   -0.25367E-06  1016   0.278E-03    0.988E-04
DAV:  13    -0.480660114522E+03   -0.10842E-04   -0.15579E-06   984   0.208E-03    0.704E-04
DAV:  14    -0.480660121554E+03   -0.70323E-05   -0.12079E-06  1008   0.157E-03
  50 F= -.48066012E+03 E0= -.48065983E+03  d E =-.173060E+00
       N       E                     dE             d eps       ncg     rms          rms(c)
DAV:   1    -0.480674964867E+03   -0.14850E-01   -0.84441E+01  1472   0.240E+01    0.176E+00
DAV:   2    -0.480777759720E+03   -0.10279E+00   -0.13700E+00  1608   0.300E+00    0.104E+00
DAV:   3    -0.480770680335E+03    0.70794E-02   -0.55016E-02  1784   0.675E-01    0.711E-01
DAV:   4    -0.480773380566E+03   -0.27002E-02   -0.22195E-02  1592   0.481E-01    0.679E-01
DAV:   5    -0.480768624352E+03    0.47562E-02   -0.12258E-02  1568   0.371E-01    0.191E-01
DAV:   6    -0.480769107766E+03   -0.48341E-03   -0.20013E-03  1672   0.134E-01    0.660E-02
DAV:   7    -0.480769198813E+03   -0.91047E-04   -0.30997E-04  1624   0.486E-02    0.365E-02
DAV:   8    -0.480769284661E+03   -0.85847E-04   -0.34830E-05  1312   0.170E-02    0.117E-02
DAV:   9    -0.480769341370E+03   -0.56709E-04   -0.80140E-06   984   0.953E-03    0.526E-03
DAV:  10    -0.480769396024E+03   -0.54654E-04   -0.62386E-06   992   0.737E-03    0.254E-03
DAV:  11    -0.480769440339E+03   -0.44315E-04   -0.44705E-06   992   0.501E-03    0.180E-03
DAV:  12    -0.480769472576E+03   -0.32238E-04   -0.42299E-06  1032   0.386E-03    0.138E-03
DAV:  13    -0.480769488384E+03   -0.15808E-04   -0.27174E-06   992   0.260E-03    0.822E-04
DAV:  14    -0.480769496333E+03   -0.79486E-05   -0.16033E-06   976   0.185E-03
  51 F= -.48076950E+03 E0= -.48076934E+03  d E =-.109375E+00
       N       E                     dE             d eps       ncg     rms          rms(c)
DAV:   1    -0.480768596811E+03    0.89157E-03   -0.48834E+00  1472   0.577E+00    0.379E-01
DAV:   2    -0.480774076251E+03   -0.54794E-02   -0.75423E-02  1584   0.705E-01    0.245E-01
DAV:   3    -0.480773775498E+03    0.30075E-03   -0.32126E-03  1760   0.166E-01    0.161E-01
DAV:   4    -0.480774005587E+03   -0.23009E-03   -0.14968E-03  1608   0.124E-01    0.165E-01
DAV:   5    -0.480773739517E+03    0.26607E-03   -0.71017E-04  1584   0.896E-02    0.357E-02
DAV:   6    -0.480773766815E+03   -0.27298E-04   -0.97375E-05  1560   0.286E-02    0.158E-02
DAV:   7    -0.480773771962E+03   -0.51469E-05   -0.13668E-05   976   0.107E-02
  52 F= -.48077377E+03 E0= -.48077363E+03  d E =-.113650E+00
       N       E                     dE             d eps       ncg     rms          rms(c)
DAV:   1    -0.480815104034E+03   -0.41337E-01   -0.44452E+01  1472   0.175E+01    0.120E+00
DAV:   2    -0.480867261106E+03   -0.52157E-01   -0.69206E-01  1624   0.216E+00    0.767E-01
DAV:   3    -0.480865561651E+03    0.16995E-02   -0.34592E-02  1704   0.572E-01    0.598E-01
DAV:   4    -0.480864491511E+03    0.10701E-02   -0.13035E-02  1576   0.371E-01    0.448E-01
DAV:   5    -0.480863257812E+03    0.12337E-02   -0.44574E-03  1592   0.236E-01    0.121E-01
DAV:   6    -0.480863582797E+03   -0.32498E-03   -0.10006E-03  1704   0.884E-02    0.451E-02
DAV:   7    -0.480863616549E+03   -0.33753E-04   -0.13968E-04  1640   0.348E-02    0.249E-02
DAV:   8    -0.480863652142E+03   -0.35592E-04   -0.17891E-05  1024   0.147E-02    0.898E-03
DAV:   9    -0.480863675977E+03   -0.23835E-04   -0.66752E-06  1000   0.775E-03    0.409E-03
DAV:  10    -0.480863698571E+03   -0.22594E-04   -0.27334E-06   984   0.459E-03    0.230E-03
DAV:  11    -0.480863722260E+03   -0.23689E-04   -0.26021E-06   992   0.369E-03    0.134E-03
DAV:  12    -0.480863737826E+03   -0.15566E-04   -0.16575E-06  1032   0.281E-03    0.114E-03
DAV:  13    -0.480863748477E+03   -0.10650E-04   -0.12258E-06  1000   0.202E-03    0.668E-04
DAV:  14    -0.480863756023E+03   -0.75458E-05   -0.92190E-07  1016   0.148E-03
  53 F= -.48086376E+03 E0= -.48086355E+03  d E =-.899841E-01
       N       E                     dE             d eps       ncg     rms          rms(c)
DAV:   1    -0.480855984415E+03    0.77641E-02   -0.26642E+01  1472   0.135E+01    0.909E-01
DAV:   2    -0.480886638752E+03   -0.30654E-01   -0.41052E-01  1600   0.167E+00    0.601E-01
DAV:   3    -0.480885934100E+03    0.70465E-03   -0.22000E-02  1704   0.457E-01    0.478E-01
DAV:   4    -0.480885002726E+03    0.93137E-03   -0.79626E-03  1560   0.292E-01    0.335E-01
DAV:   5    -0.480884459242E+03    0.54348E-03   -0.26169E-03  1608   0.181E-01    0.907E-02
DAV:   6    -0.480884640815E+03   -0.18157E-03   -0.57034E-04  1688   0.679E-02    0.346E-02
DAV:   7    -0.480884660875E+03   -0.20060E-04   -0.79902E-05  1624   0.260E-02    0.193E-02
DAV:   8    -0.480884681467E+03   -0.20592E-04   -0.10093E-05   968   0.111E-02    0.679E-03
DAV:   9    -0.480884695993E+03   -0.14526E-04   -0.39785E-06   984   0.591E-03    0.305E-03
DAV:  10    -0.480884709494E+03   -0.13500E-04   -0.15087E-06   968   0.351E-03    0.181E-03
DAV:  11    -0.480884724993E+03   -0.15499E-04   -0.15487E-06   992   0.296E-03    0.103E-03
DAV:  12    -0.480884734932E+03   -0.99391E-05   -0.97408E-07   992   0.220E-03
  54 F= -.48088473E+03 E0= -.48088446E+03  d E =-.110963E+00
       N       E                     dE             d eps       ncg     rms          rms(c)
DAV:   1    -0.480928275392E+03   -0.43550E-01   -0.27326E+01  1472   0.137E+01    0.892E-01
DAV:   2    -0.480960739973E+03   -0.32465E-01   -0.41253E-01  1616   0.167E+00    0.637E-01
DAV:   3    -0.480959585319E+03    0.11547E-02   -0.22597E-02  1632   0.474E-01    0.509E-01
DAV:   4    -0.480957998515E+03    0.15868E-02   -0.76402E-03  1576   0.296E-01    0.310E-01
DAV:   5    -0.480957896580E+03    0.10193E-03   -0.27386E-03  1616   0.180E-01    0.747E-02
DAV:   6    -0.480958058394E+03   -0.16181E-03   -0.56792E-04  1664   0.643E-02    0.357E-02
DAV:   7    -0.480958081536E+03   -0.23142E-04   -0.55556E-05  1528   0.215E-02    0.190E-02
DAV:   8    -0.480958103488E+03   -0.21952E-04   -0.10351E-05   960   0.113E-02    0.703E-03
DAV:   9    -0.480958120346E+03   -0.16857E-04   -0.48743E-06   968   0.621E-03    0.317E-03
DAV:  10    -0.480958134554E+03   -0.14208E-04   -0.13843E-06   976   0.323E-03    0.182E-03
DAV:  11    -0.480958152053E+03   -0.17499E-04   -0.15603E-06  1000   0.282E-03    0.966E-04
DAV:  12    -0.480958162766E+03   -0.10713E-04   -0.95290E-07   968   0.179E-03    0.821E-04
DAV:  13    -0.480958171780E+03   -0.90137E-05   -0.87848E-07   984   0.148E-03
  55 F= -.48095817E+03 E0= -.48095792E+03  d E =-.734368E-01
       N       E                     dE             d eps       ncg     rms          rms(c)
DAV:   1    -0.480911604793E+03    0.46558E-01   -0.85848E+01  1472   0.242E+01    0.170E+00
DAV:   2    -0.481018821536E+03   -0.10722E+00   -0.13366E+00  1600   0.301E+00    0.114E+00
DAV:   3    -0.481014690025E+03    0.41315E-02   -0.74345E-02  1640   0.867E-01    0.936E-01
DAV:   4    -0.481009129008E+03    0.55610E-02   -0.24044E-02  1568   0.520E-01    0.598E-01
DAV:   5    -0.481007632826E+03    0.14962E-02   -0.85502E-03  1616   0.323E-01    0.159E-01
DAV:   6    -0.481008284744E+03   -0.65192E-03   -0.21204E-03  1736   0.120E-01    0.647E-02
DAV:   7    -0.481008344445E+03   -0.59701E-04   -0.19388E-04  1624   0.408E-02    0.342E-02
DAV:   8    -0.481008409658E+03   -0.65213E-04   -0.35462E-05  1328   0.196E-02    0.127E-02
DAV:   9    -0.481008453641E+03   -0.43983E-04   -0.10025E-05  1000   0.959E-03    0.533E-03
DAV:  10    -0.481008491769E+03   -0.38128E-04   -0.36720E-06   992   0.507E-03    0.285E-03
DAV:  11    -0.481008533638E+03   -0.41869E-04   -0.34336E-06  1000   0.415E-03    0.158E-03
DAV:  12    -0.481008566943E+03   -0.33305E-04   -0.35032E-06  1008   0.303E-03    0.140E-03
DAV:  13    -0.481008588870E+03   -0.21926E-04   -0.25274E-06  1024   0.249E-03    0.845E-04
DAV:  14    -0.481008599051E+03   -0.10181E-04   -0.16231E-06   984   0.182E-03    0.485E-04
DAV:  15    -0.481008603156E+03   -0.41051E-05   -0.81928E-07   984   0.127E-03
  56 F= -.48100860E+03 E0= -.48100840E+03  d E =-.123868E+00
       N       E                     dE             d eps       ncg     rms          rms(c)
DAV:   1    -0.481036119855E+03   -0.27521E-01   -0.39231E+01  1472   0.164E+01    0.107E+00
DAV:   2    -0.481083624423E+03   -0.47505E-01   -0.59937E-01  1616   0.200E+00    0.676E-01
DAV:   3    -0.481081297938E+03    0.23265E-02   -0.20683E-02  1760   0.394E-01    0.429E-01
DAV:   4    -0.481081337955E+03   -0.40017E-04   -0.48698E-03  1640   0.225E-01    0.185E-01
DAV:   5    -0.481082092404E+03   -0.75445E-03   -0.26753E-03  1584   0.169E-01    0.190E-01
DAV:   6    -0.481081714978E+03    0.37743E-03   -0.92092E-04  1552   0.104E-01    0.447E-02
DAV:   7    -0.481081745181E+03   -0.30203E-04   -0.84729E-05  1520   0.261E-02    0.241E-02
DAV:   8    -0.481081766764E+03   -0.21583E-04   -0.19292E-05   984   0.150E-02    0.790E-03
DAV:   9    -0.481081783067E+03   -0.16303E-04   -0.74030E-06   944   0.800E-03    0.388E-03
DAV:  10    -0.481081793649E+03   -0.10583E-04   -0.17716E-06   960   0.392E-03    0.237E-03
DAV:  11    -0.481081809486E+03   -0.15837E-04   -0.18082E-06   952   0.319E-03    0.104E-03
DAV:  12    -0.481081817364E+03   -0.78777E-05   -0.83987E-07   960   0.206E-03
  57 F= -.48108182E+03 E0= -.48108154E+03  d E =-.732142E-01
       N       E                     dE             d eps       ncg     rms          rms(c)
DAV:   1    -0.481062504533E+03    0.19305E-01   -0.36654E+01  1472   0.158E+01    0.103E+00
DAV:   2    -0.481106883892E+03   -0.44379E-01   -0.56032E-01  1624   0.194E+00    0.653E-01
DAV:   3    -0.481104731283E+03    0.21526E-02   -0.19342E-02  1768   0.380E-01    0.415E-01
DAV:   4    -0.481104827514E+03   -0.96231E-04   -0.45449E-03  1648   0.221E-01    0.192E-01
DAV:   5    -0.481105534363E+03   -0.70685E-03   -0.26606E-03  1568   0.174E-01    0.192E-01
DAV:   6    -0.481105147355E+03    0.38701E-03   -0.97473E-04  1552   0.106E-01    0.465E-02
[...]
DAV:   6    -0.484211978862E+03   -0.15189E-04   -0.73393E-05  1400   0.310E-02    0.205E-02
DAV:   7    -0.484211977051E+03    0.18108E-05   -0.15337E-05  1016   0.159E-02
 204 F= -.48421198E+03 E0= -.48421198E+03  d E =-.673032E-02
       N       E                     dE             d eps       ncg     rms          rms(c)
DAV:   1    -0.484211864112E+03    0.11475E-03   -0.21795E-01  1440   0.112E+00    0.753E-02
DAV:   2    -0.484212131703E+03   -0.26759E-03   -0.32792E-03  1600   0.145E-01    0.459E-02
DAV:   3    -0.484212127363E+03    0.43395E-05   -0.12150E-04  1632   0.319E-02    0.310E-02
DAV:   4    -0.484212131056E+03   -0.36928E-05   -0.26267E-05  1040   0.180E-02
 205 F= -.48421213E+03 E0= -.48421213E+03  d E =-.688433E-02
       N       E                     dE             d eps       ncg     rms          rms(c)
DAV:   1    -0.484207159752E+03    0.49676E-02   -0.88551E+00  1424   0.708E+00    0.466E-01
DAV:   2    -0.484217834757E+03   -0.10675E-01   -0.13030E-01  1560   0.916E-01    0.292E-01
DAV:   3    -0.484217605420E+03    0.22934E-03   -0.49791E-03  1664   0.202E-01    0.196E-01
DAV:   4    -0.484217657068E+03   -0.51648E-04   -0.12181E-03  1584   0.122E-01    0.120E-01
DAV:   5    -0.484217704784E+03   -0.47716E-04   -0.62115E-04  1568   0.953E-02    0.559E-02
DAV:   6    -0.484217707358E+03   -0.25739E-05   -0.15707E-04  1496   0.480E-02    0.211E-02
DAV:   7    -0.484217709483E+03   -0.21251E-05   -0.20396E-05  1008   0.142E-02
 206 F= -.48421771E+03 E0= -.48421771E+03  d E =-.557843E-02
       N       E                     dE             d eps       ncg     rms          rms(c)
DAV:   1    -0.484217597434E+03    0.10992E-03   -0.19395E-01  1424   0.105E+00    0.679E-02
DAV:   2    -0.484217837665E+03   -0.24023E-03   -0.28941E-03  1592   0.136E-01    0.429E-02
DAV:   3    -0.484217834432E+03    0.32329E-05   -0.10589E-04  1608   0.292E-02    0.292E-02
DAV:   4    -0.484217838008E+03   -0.35758E-05   -0.23664E-05   992   0.172E-02
 207 F= -.48421784E+03 E0= -.48421784E+03  d E =-.570695E-02
       N       E                     dE             d eps       ncg     rms          rms(c)
DAV:   1    -0.484213597989E+03    0.42364E-02   -0.82339E+00  1440   0.682E+00    0.428E-01
DAV:   2    -0.484223297448E+03   -0.96995E-02   -0.11688E-01  1544   0.872E-01    0.285E-01
DAV:   3    -0.484223064527E+03    0.23292E-03   -0.48062E-03  1656   0.207E-01    0.190E-01
DAV:   4    -0.484223087220E+03   -0.22693E-04   -0.13768E-03  1584   0.139E-01    0.131E-01
DAV:   5    -0.484223064405E+03    0.22815E-04   -0.66249E-04  1568   0.977E-02    0.410E-02
DAV:   6    -0.484223082722E+03   -0.18318E-04   -0.10003E-04  1472   0.341E-02    0.183E-02
DAV:   7    -0.484223083729E+03   -0.10071E-05   -0.20333E-05  1000   0.133E-02
 208 F= -.48422308E+03 E0= -.48422308E+03  d E =-.524572E-02
       N       E                     dE             d eps       ncg     rms          rms(c)
DAV:   1    -0.484222686882E+03    0.39584E-03   -0.61718E-01  1440   0.187E+00    0.115E-01
DAV:   2    -0.484223421276E+03   -0.73439E-03   -0.88001E-03  1560   0.239E-01    0.773E-02
DAV:   3    -0.484223405096E+03    0.16181E-04   -0.34848E-04  1664   0.552E-02    0.517E-02
DAV:   4    -0.484223410433E+03   -0.53371E-05   -0.10165E-04  1432   0.378E-02    0.351E-02
DAV:   5    -0.484223411202E+03   -0.76905E-06   -0.50670E-05  1224   0.274E-02
 209 F= -.48422341E+03 E0= -.48422341E+03  d E =-.557319E-02
       N       E                     dE             d eps       ncg     rms          rms(c)
DAV:   1    -0.484222337731E+03    0.10727E-02   -0.51531E+00  1440   0.539E+00    0.336E-01
DAV:   2    -0.484228223474E+03   -0.58857E-02   -0.72372E-02  1544   0.688E-01    0.221E-01
DAV:   3    -0.484228087963E+03    0.13551E-03   -0.29951E-03  1648   0.161E-01    0.147E-01
DAV:   4    -0.484228107966E+03   -0.20003E-04   -0.80546E-04  1592   0.103E-01    0.973E-02
DAV:   5    -0.484228105640E+03    0.23260E-05   -0.38166E-04  1576   0.760E-02    0.386E-02
DAV:   6    -0.484228112944E+03   -0.73033E-05   -0.72354E-05  1272   0.316E-02
 210 F= -.48422811E+03 E0= -.48422811E+03  d E =-.470174E-02
       N       E                     dE             d eps       ncg     rms          rms(c)
DAV:   1    -0.484226707216E+03    0.13984E-02   -0.21389E+00  1440   0.348E+00    0.217E-01
DAV:   2    -0.484229165022E+03   -0.24578E-02   -0.30159E-02  1576   0.444E-01    0.143E-01
DAV:   3    -0.484229114635E+03    0.50387E-04   -0.12452E-03  1648   0.105E-01    0.956E-02
DAV:   4    -0.484229126963E+03   -0.12327E-04   -0.34024E-04  1600   0.670E-02    0.636E-02
DAV:   5    -0.484229127791E+03   -0.82876E-06   -0.15895E-04  1456   0.493E-02    0.246E-02
DAV:   6    -0.484229132756E+03   -0.49647E-05   -0.29690E-05  1104   0.206E-02
 211 F= -.48422913E+03 E0= -.48422913E+03  d E =-.572155E-02
       N       E                     dE             d eps       ncg     rms          rms(c)
DAV:   1    -0.484229336329E+03   -0.20854E-03   -0.27396E+00  1440   0.398E+00    0.250E-01
DAV:   2    -0.484232563398E+03   -0.32271E-02   -0.39177E-02  1552   0.508E-01    0.161E-01
DAV:   3    -0.484232457784E+03    0.10561E-03   -0.14622E-03  1672   0.110E-01    0.105E-01
DAV:   4    -0.484232454811E+03    0.29725E-05   -0.31968E-04  1584   0.553E-02    0.450E-02
DAV:   5    -0.484232475816E+03   -0.21005E-04   -0.67637E-05  1496   0.266E-02    0.155E-02
DAV:   6    -0.484232479444E+03   -0.36282E-05   -0.11699E-05   952   0.111E-02
 212 F= -.48423248E+03 E0= -.48423248E+03  d E =-.334669E-02
       N       E                     dE             d eps       ncg     rms          rms(c)
DAV:   1    -0.484232320639E+03    0.15518E-03   -0.49770E-01  1440   0.170E+00    0.107E-01
DAV:   2    -0.484232909247E+03   -0.58861E-03   -0.71430E-03  1552   0.217E-01    0.687E-02
DAV:   3    -0.484232890119E+03    0.19127E-04   -0.26422E-04  1672   0.469E-02    0.449E-02
DAV:   4    -0.484232891197E+03   -0.10778E-05   -0.58619E-05  1560   0.240E-02
 213 F= -.48423289E+03 E0= -.48423289E+03  d E =-.375844E-02
       N       E                     dE             d eps       ncg     rms          rms(c)
DAV:   1    -0.484233067038E+03   -0.17692E-03   -0.29174E+00  1440   0.411E+00    0.261E-01
DAV:   2    -0.484236390059E+03   -0.33230E-02   -0.40799E-02  1592   0.516E-01    0.168E-01
DAV:   3    -0.484236294492E+03    0.95566E-04   -0.15348E-03  1664   0.114E-01    0.111E-01
DAV:   4    -0.484236315537E+03   -0.21045E-04   -0.41519E-04  1584   0.722E-02    0.658E-02
DAV:   5    -0.484236322885E+03   -0.73474E-05   -0.20793E-04  1520   0.560E-02    0.308E-02
DAV:   6    -0.484236322039E+03    0.84580E-06   -0.43533E-05  1200   0.266E-02
 214 F= -.48423632E+03 E0= -.48423632E+03  d E =-.343084E-02
       N       E                     dE             d eps       ncg     rms          rms(c)
DAV:   1    -0.484235943556E+03    0.37933E-03   -0.10603E+00  1440   0.248E+00    0.157E-01
DAV:   2    -0.484237171035E+03   -0.12275E-02   -0.14951E-02  1576   0.312E-01    0.101E-01
DAV:   3    -0.484237138469E+03    0.32566E-04   -0.55844E-04  1656   0.696E-02    0.670E-02
DAV:   4    -0.484237147164E+03   -0.86950E-05   -0.15436E-04  1576   0.446E-02    0.413E-02
DAV:   5    -0.484237148545E+03   -0.13805E-05   -0.77159E-05  1328   0.344E-02
 215 F= -.48423715E+03 E0= -.48423715E+03  d E =-.425735E-02
       N       E                     dE             d eps       ncg     rms          rms(c)
DAV:   1    -0.484237017606E+03    0.12956E-03   -0.17557E-01  1440   0.101E+00    0.660E-02
DAV:   2    -0.484237220265E+03   -0.20266E-03   -0.24734E-03  1616   0.127E-01    0.410E-02
DAV:   3    -0.484237216659E+03    0.36053E-05   -0.90566E-05  1544   0.275E-02
 216 F= -.48423722E+03 E0= -.48423722E+03  d E =-.432546E-02
       N       E                     dE             d eps       ncg     rms          rms(c)
DAV:   1    -0.484235703548E+03    0.15167E-02   -0.35727E+00  1440   0.459E+00    0.305E-01
DAV:   2    -0.484239895693E+03   -0.41921E-02   -0.51993E-02  1528   0.585E-01    0.196E-01
DAV:   3    -0.484239750257E+03    0.14544E-03   -0.19273E-03  1680   0.124E-01    0.126E-01
DAV:   4    -0.484239753306E+03   -0.30492E-05   -0.45642E-04  1592   0.646E-02    0.557E-02
DAV:   5    -0.484239781776E+03   -0.28470E-04   -0.99499E-05  1592   0.356E-02    0.208E-02
DAV:   6    -0.484239785977E+03   -0.42011E-05   -0.33249E-05  1104   0.223E-02
 217 F= -.48423979E+03 E0= -.48423979E+03  d E =-.256932E-02
       N       E                     dE             d eps       ncg     rms          rms(c)
DAV:   1    -0.484239733053E+03    0.48723E-04   -0.91406E-02  1440   0.735E-01    0.502E-02
DAV:   2    -0.484239847705E+03   -0.11465E-03   -0.13617E-03  1584   0.944E-02    0.308E-02
DAV:   3    -0.484239846533E+03    0.11727E-05   -0.47729E-05  1280   0.213E-02
 218 F= -.48423985E+03 E0= -.48423985E+03  d E =-.262987E-02
       N       E                     dE             d eps       ncg     rms          rms(c)
DAV:   1    -0.484239739270E+03    0.10843E-03   -0.25763E+00  1456   0.394E+00    0.255E-01
DAV:   2    -0.484242743712E+03   -0.30044E-02   -0.37587E-02  1528   0.499E-01    0.165E-01
DAV:   3    -0.484242659636E+03    0.84077E-04   -0.13979E-03  1680   0.105E-01    0.105E-01
DAV:   4    -0.484242674827E+03   -0.15191E-04   -0.32026E-04  1568   0.568E-02    0.477E-02
DAV:   5    -0.484242701240E+03   -0.26413E-04   -0.97924E-05  1504   0.361E-02    0.229E-02
DAV:   6    -0.484242700386E+03    0.85475E-06   -0.35204E-05  1088   0.238E-02
 219 F= -.48424270E+03 E0= -.48424270E+03  d E =-.285385E-02
       N       E                     dE             d eps       ncg     rms          rms(c)
DAV:   1    -0.484241364373E+03    0.13369E-02   -0.18248E+00  1456   0.332E+00    0.213E-01
DAV:   2    -0.484243545649E+03   -0.21813E-02   -0.26845E-02  1552   0.421E-01    0.136E-01
DAV:   3    -0.484243488519E+03    0.57130E-04   -0.97458E-04  1680   0.889E-02    0.871E-02
DAV:   4    -0.484243499575E+03   -0.11055E-04   -0.22781E-04  1552   0.490E-02    0.421E-02
DAV:   5    -0.484243517130E+03   -0.17555E-04   -0.80039E-05  1392   0.342E-02    0.216E-02
DAV:   6    -0.484243516338E+03    0.79277E-06   -0.28141E-05  1080   0.216E-02
 220 F= -.48424352E+03 E0= -.48424352E+03  d E =-.366980E-02
       N       E                     dE             d eps       ncg     rms          rms(c)
DAV:   1    -0.484243712896E+03   -0.19577E-03   -0.18837E+00  1456   0.340E+00    0.218E-01
DAV:   2    -0.484246003311E+03   -0.22904E-02   -0.28112E-02  1552   0.428E-01    0.140E-01
DAV:   3    -0.484245934818E+03    0.68493E-04   -0.97653E-04  1664   0.937E-02    0.913E-02
DAV:   4    -0.484245957279E+03   -0.22461E-04   -0.30520E-04  1576   0.615E-02    0.527E-02
DAV:   5    -0.484245962070E+03   -0.47913E-05   -0.13510E-04  1456   0.461E-02    0.247E-02
DAV:   6    -0.484245962784E+03   -0.71375E-06   -0.29584E-05  1088   0.222E-02
 221 F= -.48424596E+03 E0= -.48424596E+03  d E =-.244645E-02
       N       E                     dE             d eps       ncg     rms          rms(c)
DAV:   1    -0.484245073810E+03    0.88826E-03   -0.16217E+00  1456   0.316E+00    0.203E-01
DAV:   2    -0.484247047735E+03   -0.19739E-02   -0.24220E-02  1544   0.398E-01    0.129E-01
DAV:   3    -0.484246987658E+03    0.60077E-04   -0.83461E-04  1656   0.865E-02    0.846E-02
DAV:   4    -0.484247006387E+03   -0.18729E-04   -0.26018E-04  1576   0.565E-02    0.481E-02
DAV:   5    -0.484247011853E+03   -0.54663E-05   -0.11438E-04  1448   0.424E-02    0.230E-02
DAV:   6    -0.484247012462E+03   -0.60906E-06   -0.25768E-05  1096   0.208E-02
 222 F= -.48424701E+03 E0= -.48424701E+03  d E =-.349612E-02
       N       E                     dE             d eps       ncg     rms          rms(c)
DAV:   1    -0.484247721139E+03   -0.70929E-03   -0.11997E+00  1440   0.276E+00    0.190E-01
DAV:   2    -0.484249261506E+03   -0.15404E-02   -0.19217E-02  1576   0.354E-01    0.118E-01
DAV:   3    -0.484249204672E+03    0.56834E-04   -0.68798E-04  1664   0.775E-02    0.767E-02
DAV:   4    -0.484249214205E+03   -0.95335E-05   -0.17580E-04  1576   0.398E-02    0.353E-02
DAV:   5    -0.484249229570E+03   -0.15365E-04   -0.39947E-05  1176   0.241E-02    0.153E-02
DAV:   6    -0.484249230094E+03   -0.52405E-06   -0.17243E-05   992   0.169E-02
 223 F= -.48424923E+03 E0= -.48424923E+03  d E =-.221763E-02
       N       E                     dE             d eps       ncg     rms          rms(c)
DAV:   1    -0.484248650421E+03    0.57915E-03   -0.94977E-01  1440   0.246E+00    0.169E-01
DAV:   2    -0.484249866789E+03   -0.12164E-02   -0.15201E-02  1544   0.315E-01    0.104E-01
DAV:   3    -0.484249822232E+03    0.44557E-04   -0.54494E-04  1664   0.690E-02    0.676E-02
DAV:   4    -0.484249830858E+03   -0.86255E-05   -0.13919E-04  1576   0.356E-02    0.314E-02
DAV:   5    -0.484249842887E+03   -0.12029E-04   -0.33394E-05  1160   0.225E-02    0.144E-02
DAV:   6    -0.484249843023E+03   -0.13632E-06   -0.14475E-05   944   0.156E-02
 224 F= -.48424984E+03 E0= -.48424984E+03  d E =-.283056E-02
       N       E                     dE             d eps       ncg     rms          rms(c)
DAV:   1    -0.484250310901E+03   -0.46801E-03   -0.81979E-01  1440   0.228E+00    0.149E-01
DAV:   2    -0.484251328797E+03   -0.10179E-02   -0.12733E-02  1544   0.285E-01    0.958E-02
DAV:   3    -0.484251298215E+03    0.30582E-04   -0.45580E-04  1672   0.631E-02    0.625E-02
DAV:   4    -0.484251313457E+03   -0.15242E-04   -0.13571E-04  1576   0.415E-02    0.365E-02
DAV:   5    -0.484251318758E+03   -0.53013E-05   -0.63958E-05  1304   0.313E-02
 225 F= -.48425132E+03 E0= -.48425132E+03  d E =-.147573E-02
       N       E                     dE             d eps       ncg     rms          rms(c)
DAV:   1    -0.484247089365E+03    0.42241E-02   -0.46167E+00  1440   0.541E+00    0.355E-01
DAV:   2    -0.484252799116E+03   -0.57098E-02   -0.71576E-02  1528   0.676E-01    0.228E-01
DAV:   3    -0.484252628332E+03    0.17078E-03   -0.25334E-03  1688   0.147E-01    0.149E-01
DAV:   4    -0.484252687866E+03   -0.59534E-04   -0.72142E-04  1592   0.933E-02    0.811E-02
DAV:   5    -0.484252724084E+03   -0.36218E-04   -0.33829E-04  1568   0.715E-02    0.409E-02
DAV:   6    -0.484252722131E+03    0.19535E-05   -0.77198E-05  1384   0.351E-02
 226 F= -.48425272E+03 E0= -.48425272E+03  d E =-.287911E-02
       N       E                     dE             d eps       ncg     rms          rms(c)
DAV:   1    -0.484252980765E+03   -0.25668E-03   -0.14478E+00  1440   0.304E+00    0.204E-01
DAV:   2    -0.484254826809E+03   -0.18460E-02   -0.23053E-02  1552   0.385E-01    0.129E-01
DAV:   3    -0.484254766527E+03    0.60282E-04   -0.84618E-04  1688   0.856E-02    0.843E-02
DAV:   4    -0.484254791814E+03   -0.25287E-04   -0.24198E-04  1576   0.554E-02    0.488E-02
DAV:   5    -0.484254801750E+03   -0.99363E-05   -0.11640E-04  1424   0.421E-02    0.226E-02
DAV:   6    -0.484254803975E+03   -0.22248E-05   -0.23543E-05  1072   0.196E-02
 227 F= -.48425480E+03 E0= -.48425480E+03  d E =-.208184E-02
       N       E                     dE             d eps       ncg     rms          rms(c)
DAV:   1    -0.484254457642E+03    0.34411E-03   -0.78182E-01  1424   0.223E+00    0.150E-01
DAV:   2    -0.484255464649E+03   -0.10070E-02   -0.12552E-02  1552   0.283E-01    0.950E-02
DAV:   3    -0.484255433660E+03    0.30989E-04   -0.46549E-04  1704   0.631E-02    0.622E-02
DAV:   4    -0.484255446374E+03   -0.12714E-04   -0.12896E-04  1576   0.404E-02    0.359E-02
DAV:   5    -0.484255452540E+03   -0.61654E-05   -0.62586E-05  1304   0.310E-02
 228 F= -.48425545E+03 E0= -.48425545E+03  d E =-.273041E-02
       N       E                     dE             d eps       ncg     rms          rms(c)
DAV:   1    -0.484256394742E+03   -0.94837E-03   -0.75127E-01  1424   0.221E+00    0.160E-01
DAV:   2    -0.484257310707E+03   -0.91597E-03   -0.12431E-02  1584   0.288E-01    0.977E-02
DAV:   3    -0.484257278318E+03    0.32389E-04   -0.56989E-04  1688   0.715E-02    0.628E-02
DAV:   4    -0.484257286205E+03   -0.78863E-05   -0.14229E-04  1568   0.428E-02    0.386E-02
DAV:   5    -0.484257290693E+03   -0.44882E-05   -0.63790E-05  1296   0.319E-02
 229 F= -.48425729E+03 E0= -.48425729E+03  d E =-.183815E-02
       N       E                     dE             d eps       ncg     rms          rms(c)
DAV:   1    -0.484257147392E+03    0.13881E-03   -0.49416E-01  1424   0.179E+00    0.131E-01
DAV:   2    -0.484257748045E+03   -0.60065E-03   -0.81589E-03  1608   0.233E-01    0.792E-02
DAV:   3    -0.484257726699E+03    0.21346E-04   -0.37085E-04  1680   0.576E-02    0.508E-02
DAV:   4    -0.484257732347E+03   -0.56489E-05   -0.90971E-05  1592   0.338E-02
 230 F= -.48425773E+03 E0= -.48425773E+03  d E =-.227981E-02
       N       E                     dE             d eps       ncg     rms          rms(c)
DAV:   1    -0.484258302203E+03   -0.57550E-03   -0.73404E-01  1424   0.216E+00    0.148E-01
DAV:   2    -0.484259155452E+03   -0.85325E-03   -0.11391E-02  1584   0.272E-01    0.972E-02
DAV:   3    -0.484259128281E+03    0.27170E-04   -0.48331E-04  1672   0.687E-02    0.634E-02
DAV:   4    -0.484259143336E+03   -0.15055E-04   -0.16952E-04  1560   0.493E-02    0.410E-02
DAV:   5    -0.484259142964E+03    0.37153E-06   -0.67576E-05  1296   0.322E-02
 231 F= -.48425914E+03 E0= -.48425914E+03  d E =-.141062E-02
       N       E                     dE             d eps       ncg     rms          rms(c)
DAV:   1    -0.484257643265E+03    0.15001E-02   -0.19579E+00  1424   0.352E+00    0.234E-01
DAV:   2    -0.484259998581E+03   -0.23553E-02   -0.30486E-02  1576   0.442E-01    0.150E-01
DAV:   3    -0.484259919833E+03    0.78748E-04   -0.11137E-03  1704   0.944E-02    0.940E-02
DAV:   4    -0.484259939192E+03   -0.19359E-04   -0.27911E-04  1600   0.545E-02    0.403E-02
DAV:   5    -0.484259958151E+03   -0.18959E-04   -0.95071E-05  1432   0.379E-02    0.227E-02
DAV:   6    -0.484259955507E+03    0.26441E-05   -0.29612E-05  1104   0.219E-02
 232 F= -.48425996E+03 E0= -.48425996E+03  d E =-.222316E-02
       N       E                     dE             d eps       ncg     rms          rms(c)
DAV:   1    -0.484260081309E+03   -0.12316E-03   -0.12479E+00  1408   0.282E+00    0.190E-01
DAV:   2    -0.484261673029E+03   -0.15917E-02   -0.20240E-02  1544   0.363E-01    0.121E-01
DAV:   3    -0.484261615664E+03    0.57366E-04   -0.84776E-04  1728   0.833E-02    0.765E-02
DAV:   4    -0.484261623977E+03   -0.83129E-05   -0.17977E-04  1568   0.449E-02    0.375E-02
DAV:   5    -0.484261636625E+03   -0.12648E-04   -0.76546E-05  1400   0.343E-02    0.213E-02
DAV:   6    -0.484261634180E+03    0.24452E-05   -0.22098E-05  1032   0.196E-02
 233 F= -.48426163E+03 E0= -.48426163E+03  d E =-.167867E-02
       N       E                     dE             d eps       ncg     rms          rms(c)
DAV:   1    -0.484261514110E+03    0.12252E-03   -0.23979E-01  1408   0.124E+00    0.840E-02
DAV:   2    -0.484261821937E+03   -0.30783E-03   -0.39043E-03  1576   0.159E-01    0.531E-02
DAV:   3    -0.484261812280E+03    0.96566E-05   -0.16189E-04  1736   0.364E-02    0.334E-02
DAV:   4    -0.484261814763E+03   -0.24827E-05   -0.32011E-05  1104   0.194E-02
 234 F= -.48426181E+03 E0= -.48426181E+03  d E =-.185926E-02
       N       E                     dE             d eps       ncg     rms          rms(c)
DAV:   1    -0.484262236555E+03   -0.42428E-03   -0.80255E-01  1440   0.228E+00    0.156E-01
DAV:   2    -0.484263225556E+03   -0.98900E-03   -0.12956E-02  1592   0.292E-01    0.101E-01
DAV:   3    -0.484263175305E+03    0.50251E-04   -0.50236E-04  1688   0.650E-02    0.626E-02
DAV:   4    -0.484263177757E+03   -0.24521E-05   -0.12671E-04  1552   0.363E-02    0.274E-02
DAV:   5    -0.484263186667E+03   -0.89099E-05   -0.36366E-05  1184   0.238E-02
 235 F= -.48426319E+03 E0= -.48426319E+03  d E =-.137190E-02
