 running on   48 total cores
 distrk:  each k-point on   48 cores,    1 groups
 distr:  one band on   12 cores,    4 groups
 vasp.6.3.2 27Jun22 (build May 04 2024 18:40:40) complex                        
  
 POSCAR found type information on POSCAR C N AuAgPd
 POSCAR found :  5 types and      59 ions
 Reading from existing POTCAR
 scaLAPACK will be used
 Reading from existing POTCAR
 LDA part: xc-table for Pade appr. of Perdew
 POSCAR found type information on POSCAR C N AuAgPd
 POSCAR found :  5 types and      59 ions
 POSCAR, INCAR and KPOINTS ok, starting setup
 FFT: planning ... GRIDC
 FFT: planning ... GRID_SOFT
 FFT: planning ... GRID
 WAVECAR not read
 entering main loop
       N       E                     dE             d eps       ncg     rms          rms(c)
DAV:   1     0.262123799119E+04    0.26212E+04   -0.10187E+05  1600   0.103E+03
DAV:   2     0.146452763738E+02   -0.26066E+04   -0.24834E+04  2040   0.285E+02
DAV:   3    -0.488884186901E+03   -0.50353E+03   -0.49796E+03  1712   0.136E+02
DAV:   4    -0.506885023830E+03   -0.18001E+02   -0.17297E+02  1624   0.295E+01
DAV:   5    -0.507615675023E+03   -0.73065E+00   -0.71690E+00  1952   0.477E+00    0.561E+01
DAV:   6    -0.475927051165E+03    0.31689E+02   -0.12313E+02  1608   0.365E+01    0.501E+01
DAV:   7    -0.471364457176E+03    0.45626E+01   -0.31020E+01  1592   0.239E+01    0.207E+01
DAV:   8    -0.469959452815E+03    0.14050E+01   -0.96880E+00  1600   0.125E+01    0.127E+01
DAV:   9    -0.468949884835E+03    0.10096E+01   -0.52300E+00  1608   0.115E+01    0.548E+00
DAV:  10    -0.468740508536E+03    0.20938E+00   -0.95724E-01  1568   0.338E+00    0.189E+00
DAV:  11    -0.468734861460E+03    0.56471E-02   -0.14841E-01  1632   0.140E+00    0.141E+00
DAV:  12    -0.468717990642E+03    0.16871E-01   -0.50742E-02  1584   0.871E-01    0.659E-01
DAV:  13    -0.468713000483E+03    0.49902E-02   -0.20397E-02  1568   0.511E-01    0.293E-01
DAV:  14    -0.468714221095E+03   -0.12206E-02   -0.67590E-03  1536   0.274E-01    0.184E-01
DAV:  15    -0.468716184127E+03   -0.19630E-02   -0.27073E-03  1568   0.155E-01    0.140E-01
DAV:  16    -0.468719558854E+03   -0.33747E-02   -0.26974E-03  1520   0.153E-01    0.975E-02
DAV:  17    -0.468724416326E+03   -0.48575E-02   -0.23954E-03  1520   0.102E-01    0.686E-02
DAV:  18    -0.468727339927E+03   -0.29236E-02   -0.26072E-03  1528   0.130E-01    0.742E-02
DAV:  19    -0.468729329523E+03   -0.19896E-02   -0.49731E-04  1600   0.498E-02    0.394E-02
DAV:  20    -0.468731095489E+03   -0.17660E-02   -0.52283E-04  1464   0.522E-02    0.395E-02
DAV:  21    -0.468733221447E+03   -0.21260E-02   -0.70797E-04  1496   0.713E-02    0.343E-02
DAV:  22    -0.468733950515E+03   -0.72907E-03   -0.12996E-04  1432   0.342E-02    0.171E-02
DAV:  23    -0.468735379778E+03   -0.14293E-02   -0.12620E-04  1328   0.221E-02    0.139E-02
DAV:  24    -0.468735908754E+03   -0.52898E-03   -0.23520E-05  1232   0.101E-02    0.114E-02
DAV:  25    -0.468736576906E+03   -0.66815E-03   -0.50923E-05  1296   0.108E-02    0.719E-03
DAV:  26    -0.468736803318E+03   -0.22641E-03   -0.10851E-05   984   0.585E-03    0.393E-03
DAV:  27    -0.468736869225E+03   -0.65906E-04   -0.37465E-06   976   0.380E-03    0.224E-03
DAV:  28    -0.468736905506E+03   -0.36281E-04   -0.27406E-06   936   0.294E-03    0.136E-03
DAV:  29    -0.468736919462E+03   -0.13956E-04   -0.13297E-06   928   0.197E-03    0.823E-04
DAV:  30    -0.468736922521E+03   -0.30587E-05   -0.70231E-07   960   0.170E-03
   1 F= -.46873692E+03 E0= -.46868317E+03  d E =-.468737E+03
 curvature:   0.00 expect dE= 0.000E+00 dE for cont linesearch  0.000E+00
 trial: gam= 0.00000 g(F)=  0.445E+01 g(S)=  0.434E+00 ort = 0.000E+00 (trialstep = 0.100E+01)
 search vector abs. value=  0.488E+01
 bond charge predicted
       N       E                     dE             d eps       ncg     rms          rms(c)
DAV:   1    -0.472273835401E+03   -0.35369E+01   -0.23367E+02  1408   0.339E+01    0.755E+00
DAV:   2    -0.472777812014E+03   -0.50398E+00   -0.61984E+00  1560   0.110E+01    0.119E+01
DAV:   3    -0.472360144588E+03    0.41767E+00   -0.12537E+00  1552   0.402E+00    0.100E+01
DAV:   4    -0.472351269407E+03    0.88752E-02   -0.12749E-01  1592   0.136E+00    0.836E+00
DAV:   5    -0.472223495208E+03    0.12777E+00   -0.11714E+00  1680   0.362E+00    0.325E+00
DAV:   6    -0.472180368971E+03    0.43126E-01   -0.20724E-01  1544   0.153E+00    0.205E+00
DAV:   7    -0.472164857303E+03    0.15512E-01   -0.35028E-02  1680   0.589E-01    0.168E+00
DAV:   8    -0.472158122183E+03    0.67351E-02   -0.16647E-02  1624   0.384E-01    0.102E+00
DAV:   9    -0.472157053948E+03    0.10682E-02   -0.72089E-03  1600   0.245E-01    0.608E-01
DAV:  10    -0.472156819657E+03    0.23429E-03   -0.47418E-03  1736   0.196E-01    0.276E-01
DAV:  11    -0.472157333493E+03   -0.51384E-03   -0.11433E-03  1592   0.990E-02    0.153E-01
DAV:  12    -0.472157541231E+03   -0.20774E-03   -0.90359E-05  1648   0.268E-02    0.107E-01
DAV:  13    -0.472157759806E+03   -0.21858E-03   -0.52827E-05  1328   0.258E-02    0.368E-02
DAV:  14    -0.472157860982E+03   -0.10118E-03   -0.40808E-05  1312   0.180E-02    0.130E-02
DAV:  15    -0.472157877482E+03   -0.16500E-04   -0.81071E-06   944   0.875E-03    0.546E-03
DAV:  16    -0.472157945255E+03   -0.67772E-04   -0.47950E-06   952   0.536E-03    0.366E-03
DAV:  17    -0.472158011712E+03   -0.66458E-04   -0.62507E-06  1032   0.402E-03    0.337E-03
DAV:  18    -0.472158042092E+03   -0.30380E-04   -0.21870E-06   984   0.286E-03    0.256E-03
DAV:  19    -0.472158069403E+03   -0.27311E-04   -0.39681E-06   968   0.283E-03    0.153E-03
DAV:  20    -0.472158073663E+03   -0.42601E-05   -0.10744E-06   936   0.177E-03
   2 F= -.47215807E+03 E0= -.47209965E+03  d E =-.342115E+01
 trial-energy change:   -3.421151  1 .order   -3.504036   -4.880016   -2.128055
 step:   2.3398(harm=  1.7733)  dis= 0.20681  next Energy=  -473.384296 (dE=-0.465E+01)
 bond charge predicted
       N       E                     dE             d eps       ncg     rms          rms(c)
DAV:   1    -0.473406554716E+03   -0.12485E+01   -0.42461E+02  1432   0.454E+01    0.821E+00
DAV:   2    -0.474914657735E+03   -0.15081E+01   -0.10865E+01  1608   0.139E+01    0.170E+01
DAV:   3    -0.473405397043E+03    0.15093E+01   -0.67473E+00  1560   0.678E+00    0.912E+00
DAV:   4    -0.473349616254E+03    0.55781E-01   -0.33125E-01  1600   0.192E+00    0.805E+00
DAV:   5    -0.473324190093E+03    0.25426E-01   -0.24395E-01  1648   0.186E+00    0.538E+00
DAV:   6    -0.473336227412E+03   -0.12037E-01   -0.27997E-01  1616   0.193E+00    0.226E+00
DAV:   7    -0.473284444803E+03    0.51783E-01   -0.90276E-02  1600   0.105E+00    0.191E+00
DAV:   8    -0.473251356336E+03    0.33088E-01   -0.28623E-02  1592   0.538E-01    0.131E+00
DAV:   9    -0.473235172838E+03    0.16183E-01   -0.14410E-02  1632   0.363E-01    0.829E-01
DAV:  10    -0.473228867715E+03    0.63051E-02   -0.57682E-03  1656   0.246E-01    0.544E-01
DAV:  11    -0.473227000863E+03    0.18669E-02   -0.17301E-03  1624   0.111E-01    0.373E-01
DAV:  12    -0.473226168374E+03    0.83249E-03   -0.87696E-04  1712   0.103E-01    0.265E-01
DAV:  13    -0.473225762530E+03    0.40584E-03   -0.13052E-03  1616   0.124E-01    0.654E-02
DAV:  14    -0.473225889568E+03   -0.12704E-03   -0.40766E-04  1632   0.480E-02    0.326E-02
DAV:  15    -0.473225946560E+03   -0.56992E-04   -0.18745E-05  1096   0.120E-02    0.278E-02
DAV:  16    -0.473226071021E+03   -0.12446E-03   -0.24772E-05  1176   0.149E-02    0.145E-02
DAV:  17    -0.473226171438E+03   -0.10042E-03   -0.14313E-05  1088   0.800E-03    0.996E-03
DAV:  18    -0.473226230082E+03   -0.58644E-04   -0.57352E-06  1008   0.489E-03    0.993E-03
DAV:  19    -0.473226269100E+03   -0.39018E-04   -0.43975E-06  1000   0.505E-03    0.531E-03
DAV:  20    -0.473226305365E+03   -0.36265E-04   -0.37824E-06  1000   0.310E-03    0.334E-03
DAV:  21    -0.473226320024E+03   -0.14659E-04   -0.20082E-06   976   0.227E-03    0.175E-03
DAV:  22    -0.473226324653E+03   -0.46290E-05   -0.10119E-06   952   0.176E-03
   3 F= -.47322632E+03 E0= -.47316989E+03  d E =-.448940E+01
 curvature:  -0.41 expect dE=-0.675E+00 dE for cont linesearch -0.116E-01
 ZBRENT: interpolating
 opt :   2.1410  next Energy=  -473.263166 (dE=-0.453E+01)
 bond charge predicted
       N       E                     dE             d eps       ncg     rms          rms(c)
DAV:   1    -0.473273118999E+03   -0.46799E-01   -0.90193E+00  1448   0.657E+00    0.121E+00
DAV:   2    -0.473319457502E+03   -0.46339E-01   -0.46402E-01  1560   0.200E+00    0.349E+00
DAV:   3    -0.473270768859E+03    0.48689E-01   -0.63788E-02  1584   0.105E+00    0.123E+00
DAV:   4    -0.473274141739E+03   -0.33729E-02   -0.12154E-02  1560   0.369E-01    0.133E+00
DAV:   5    -0.473267656445E+03    0.64853E-02   -0.16005E-02  1584   0.419E-01    0.403E-01
DAV:   6    -0.473268320435E+03   -0.66399E-03   -0.18974E-03  1568   0.146E-01    0.225E-01
DAV:   7    -0.473268307287E+03    0.13148E-04   -0.44444E-04  1568   0.614E-02    0.131E-01
DAV:   8    -0.473268330225E+03   -0.22938E-04   -0.82461E-05  1648   0.293E-02    0.964E-02
DAV:   9    -0.473268340652E+03   -0.10427E-04   -0.66011E-05  1344   0.241E-02    0.354E-02
DAV:  10    -0.473268364995E+03   -0.24343E-04   -0.12276E-05   952   0.114E-02    0.111E-02
DAV:  11    -0.473268380767E+03   -0.15772E-04   -0.39057E-06   904   0.518E-03    0.618E-03
DAV:  12    -0.473268393711E+03   -0.12944E-04   -0.15498E-06   920   0.332E-03    0.190E-03
DAV:  13    -0.473268404260E+03   -0.10549E-04   -0.82391E-07   944   0.193E-03    0.130E-03
DAV:  14    -0.473268413629E+03   -0.93688E-05   -0.65273E-07   920   0.170E-03
   4 F= -.47326841E+03 E0= -.47321130E+03  d E =-.453149E+01
 curvature:  -1.31 expect dE=-0.178E+01 dE for cont linesearch -0.902E-03
 trial: gam= 0.29113 g(F)=  0.120E+01 g(S)=  0.158E+00 ort =-0.580E-01 (trialstep = 0.123E+01)
 search vector abs. value=  0.174E+01
 bond charge predicted
       N       E                     dE             d eps       ncg     rms          rms(c)
DAV:   1    -0.474465164364E+03   -0.11968E+01   -0.12951E+02  1416   0.251E+01    0.349E+00
DAV:   2    -0.474838670421E+03   -0.37351E+00   -0.26515E+00  1560   0.529E+00    0.596E+00
DAV:   3    -0.474583680870E+03    0.25499E+00   -0.12093E+00  1560   0.285E+00    0.213E+00
DAV:   4    -0.474570771631E+03    0.12909E-01   -0.10925E-01  1528   0.115E+00    0.191E+00
DAV:   5    -0.474557317220E+03    0.13454E-01   -0.63825E-02  1560   0.805E-01    0.491E-01
DAV:   6    -0.474556647398E+03    0.66982E-03   -0.92088E-03  1584   0.372E-01    0.325E-01
DAV:   7    -0.474556415389E+03    0.23201E-03   -0.27478E-03  1584   0.181E-01    0.155E-01
DAV:   8    -0.474556353126E+03    0.62263E-04   -0.91206E-04  1544   0.823E-02    0.742E-02
DAV:   9    -0.474556478187E+03   -0.12506E-03   -0.21855E-04  1568   0.370E-02    0.193E-02
DAV:  10    -0.474556529843E+03   -0.51657E-04   -0.27405E-05  1144   0.179E-02    0.119E-02
DAV:  11    -0.474556584108E+03   -0.54265E-04   -0.86042E-06   944   0.925E-03    0.563E-03
DAV:  12    -0.474556632998E+03   -0.48889E-04   -0.32097E-06   944   0.435E-03    0.322E-03
DAV:  13    -0.474556686654E+03   -0.53657E-04   -0.38715E-06   992   0.374E-03    0.215E-03
DAV:  14    -0.474556709044E+03   -0.22390E-04   -0.15195E-06   960   0.243E-03    0.165E-03
DAV:  15    -0.474556727861E+03   -0.18816E-04   -0.12042E-06   928   0.179E-03    0.112E-03
DAV:  16    -0.474556741819E+03   -0.13959E-04   -0.10670E-06   936   0.159E-03    0.733E-04
DAV:  17    -0.474556743817E+03   -0.19977E-05   -0.52503E-07   936   0.109E-03
   5 F= -.47455674E+03 E0= -.47450880E+03  d E =-.128833E+01
 trial-energy change:   -1.288330  1 .order   -1.288972   -1.652938   -0.925005
 step:   2.7889(harm=  2.7889)  dis= 0.15269  next Energy=  -475.145101 (dE=-0.188E+01)
 bond charge predicted
       N       E                     dE             d eps       ncg     rms          rms(c)
DAV:   1    -0.474931111344E+03   -0.37437E+00   -0.20933E+02  1432   0.317E+01    0.402E+00
DAV:   2    -0.475260152159E+03   -0.32904E+00   -0.36791E+00  1560   0.548E+00    0.474E+00
DAV:   3    -0.475190615542E+03    0.69537E-01   -0.68486E-01  1592   0.261E+00    0.251E+00
DAV:   4    -0.475134959311E+03    0.55656E-01   -0.14695E-01  1560   0.144E+00    0.146E+00
DAV:   5    -0.475131917305E+03    0.30420E-02   -0.46535E-02  1576   0.655E-01    0.538E-01
DAV:   6    -0.475129956608E+03    0.19607E-02   -0.99675E-03  1592   0.358E-01    0.267E-01
DAV:   7    -0.475129769455E+03    0.18715E-03   -0.27310E-03  1568   0.143E-01    0.104E-01
DAV:   8    -0.475129867806E+03   -0.98351E-04   -0.42478E-04  1568   0.674E-02    0.531E-02
DAV:   9    -0.475129970619E+03   -0.10281E-03   -0.97016E-05  1544   0.322E-02    0.204E-02
DAV:  10    -0.475130039566E+03   -0.68947E-04   -0.17264E-05   960   0.152E-02    0.967E-03
DAV:  11    -0.475130109863E+03   -0.70297E-04   -0.75959E-06   984   0.824E-03    0.482E-03
DAV:  12    -0.475130185774E+03   -0.75911E-04   -0.50726E-06   976   0.446E-03    0.260E-03
DAV:  13    -0.475130241317E+03   -0.55543E-04   -0.38981E-06   992   0.359E-03    0.189E-03
DAV:  14    -0.475130273709E+03   -0.32391E-04   -0.26651E-06  1000   0.263E-03    0.156E-03
DAV:  15    -0.475130288349E+03   -0.14641E-04   -0.13509E-06   936   0.206E-03    0.892E-04
DAV:  16    -0.475130294277E+03   -0.59277E-05   -0.63161E-07   944   0.128E-03
   6 F= -.47513029E+03 E0= -.47510806E+03  d E =-.186188E+01
 curvature:  -1.81 expect dE=-0.146E+01 dE for cont linesearch -0.680E-03
 trial: gam= 0.72585 g(F)=  0.802E+00 g(S)=  0.798E-02 ort =-0.256E-01 (trialstep = 0.154E+01)
 search vector abs. value=  0.169E+01
 bond charge predicted
       N       E                     dE             d eps       ncg     rms          rms(c)
DAV:   1    -0.475821369355E+03   -0.69108E+00   -0.21234E+02  1432   0.293E+01    0.364E+00
DAV:   2    -0.476048121081E+03   -0.22675E+00   -0.29987E+00  1576   0.439E+00    0.224E+00
DAV:   3    -0.476057559205E+03   -0.94381E-02   -0.21439E-01  1600   0.150E+00    0.243E+00
DAV:   4    -0.476034839630E+03    0.22720E-01   -0.13053E-01  1576   0.133E+00    0.119E+00
DAV:   5    -0.476022632962E+03    0.12207E-01   -0.27685E-02  1552   0.606E-01    0.313E-01
DAV:   6    -0.476022436373E+03    0.19659E-03   -0.44300E-03  1680   0.213E-01    0.144E-01
DAV:   7    -0.476022454796E+03   -0.18424E-04   -0.14389E-03  1560   0.110E-01    0.760E-02
DAV:   8    -0.476022567510E+03   -0.11271E-03   -0.24035E-04  1616   0.462E-02    0.374E-02
DAV:   9    -0.476022662806E+03   -0.95296E-04   -0.51091E-05  1360   0.238E-02    0.178E-02
DAV:  10    -0.476022757864E+03   -0.95058E-04   -0.13791E-05  1016   0.116E-02    0.733E-03
DAV:  11    -0.476022831946E+03   -0.74082E-04   -0.58170E-06   976   0.563E-03    0.380E-03
DAV:  12    -0.476022918191E+03   -0.86244E-04   -0.55078E-06   992   0.432E-03    0.281E-03
DAV:  13    -0.476022991108E+03   -0.72917E-04   -0.59118E-06  1008   0.383E-03    0.184E-03
DAV:  14    -0.476023014454E+03   -0.23346E-04   -0.21017E-06   976   0.249E-03    0.140E-03
DAV:  15    -0.476023031410E+03   -0.16956E-04   -0.17310E-06   944   0.195E-03    0.726E-04
DAV:  16    -0.476023041977E+03   -0.10567E-04   -0.94659E-07   968   0.138E-03    0.525E-04
DAV:  17    -0.476023046541E+03   -0.45641E-05   -0.50993E-07   944   0.102E-03
   7 F= -.47602305E+03 E0= -.47600965E+03  d E =-.892752E+00
 trial-energy change:   -0.892752  1 .order   -0.893257   -1.218886   -0.567628
 step:   2.8829(harm=  2.8829)  dis= 0.17837  next Energy=  -476.270920 (dE=-0.114E+01)
 bond charge predicted
       N       E                     dE             d eps       ncg     rms          rms(c)
DAV:   1    -0.476119217560E+03   -0.96176E-01   -0.16082E+02  1424   0.255E+01    0.302E+00
DAV:   2    -0.476291525271E+03   -0.17231E+00   -0.22466E+00  1584   0.382E+00    0.179E+00
DAV:   3    -0.476310781324E+03   -0.19256E-01   -0.20293E-01  1592   0.154E+00    0.239E+00
DAV:   4    -0.476273460258E+03    0.37321E-01   -0.96811E-02  1552   0.116E+00    0.879E-01
DAV:   5    -0.476269193285E+03    0.42670E-02   -0.21399E-02  1536   0.468E-01    0.269E-01
DAV:   6    -0.476268915489E+03    0.27780E-03   -0.32223E-03  1664   0.177E-01    0.118E-01
DAV:   7    -0.476268967467E+03   -0.51978E-04   -0.84895E-04  1576   0.808E-02    0.567E-02
DAV:   8    -0.476269054876E+03   -0.87409E-04   -0.12634E-04  1600   0.370E-02    0.289E-02
DAV:   9    -0.476269131267E+03   -0.76391E-04   -0.27840E-05  1120   0.171E-02    0.107E-02
DAV:  10    -0.476269205076E+03   -0.73809E-04   -0.66898E-06   992   0.777E-03    0.475E-03
DAV:  11    -0.476269267260E+03   -0.62184E-04   -0.44255E-06   960   0.440E-03    0.279E-03
DAV:  12    -0.476269342299E+03   -0.75039E-04   -0.51640E-06   992   0.364E-03    0.185E-03
DAV:  13    -0.476269390772E+03   -0.48473E-04   -0.42552E-06  1000   0.309E-03    0.168E-03
DAV:  14    -0.476269407954E+03   -0.17182E-04   -0.17145E-06   952   0.220E-03    0.989E-04
DAV:  15    -0.476269420530E+03   -0.12576E-04   -0.11857E-06   936   0.166E-03    0.655E-04
DAV:  16    -0.476269427634E+03   -0.71041E-05   -0.68449E-07   952   0.122E-03
   8 F= -.47626943E+03 E0= -.47626069E+03  d E =-.113913E+01
 curvature:  -3.08 expect dE=-0.157E+01 dE for cont linesearch -0.339E-05
 trial: gam= 0.60792 g(F)=  0.501E+00 g(S)=  0.887E-02 ort =-0.136E-02 (trialstep = 0.181E+01)
 search vector abs. value=  0.113E+01
 bond charge predicted
       N       E                     dE             d eps       ncg     rms          rms(c)
DAV:   1    -0.476654509097E+03   -0.38509E+00   -0.19205E+02  1448   0.288E+01    0.292E+00
DAV:   2    -0.476875528289E+03   -0.22102E+00   -0.27722E+00  1592   0.447E+00    0.269E+00
DAV:   3    -0.476871190290E+03    0.43380E-02   -0.32230E-01  1600   0.184E+00    0.186E+00
DAV:   4    -0.476839117533E+03    0.32073E-01   -0.85376E-02  1576   0.115E+00    0.117E+00
DAV:   5    -0.476836328048E+03    0.27895E-02   -0.30466E-02  1560   0.452E-01    0.491E-01
DAV:   6    -0.476835986806E+03    0.34124E-03   -0.40976E-03  1592   0.210E-01    0.130E-01
DAV:   7    -0.476836003604E+03   -0.16798E-04   -0.11056E-03  1608   0.917E-02    0.689E-02
DAV:   8    -0.476836075101E+03   -0.71496E-04   -0.15078E-04  1592   0.338E-02    0.287E-02
DAV:   9    -0.476836151332E+03   -0.76231E-04   -0.53164E-05  1424   0.220E-02    0.136E-02
DAV:  10    -0.476836213264E+03   -0.61932E-04   -0.11316E-05  1024   0.117E-02    0.546E-03
DAV:  11    -0.476836265830E+03   -0.52566E-04   -0.50236E-06   984   0.528E-03    0.274E-03
DAV:  12    -0.476836323985E+03   -0.58155E-04   -0.42873E-06   992   0.410E-03    0.185E-03
DAV:  13    -0.476836370149E+03   -0.46164E-04   -0.50926E-06   984   0.377E-03    0.126E-03
DAV:  14    -0.476836382295E+03   -0.12146E-04   -0.13711E-06   960   0.222E-03    0.831E-04
DAV:  15    -0.476836389499E+03   -0.72042E-05   -0.80874E-07   936   0.141E-03
   9 F= -.47683639E+03 E0= -.47683100E+03  d E =-.566962E+00
 trial-energy change:   -0.566962  1 .order   -0.572503   -0.920871   -0.224135
 step:   2.4306(harm=  2.3907)  dis= 0.12565  next Energy=  -476.874686 (dE=-0.605E+00)
 bond charge predicted
       N       E                     dE             d eps       ncg     rms          rms(c)
DAV:   1    -0.476853787504E+03   -0.17405E-01   -0.22437E+01  1448   0.980E+00    0.946E-01
DAV:   2    -0.476878513126E+03   -0.24726E-01   -0.30511E-01  1584   0.148E+00    0.841E-01
DAV:   3    -0.476877657634E+03    0.85549E-03   -0.35415E-02  1536   0.623E-01    0.606E-01
DAV:   4    -0.476874364262E+03    0.32934E-02   -0.91401E-03  1536   0.369E-01    0.353E-01
DAV:   5    -0.476874063660E+03    0.30060E-03   -0.30180E-03  1528   0.158E-01    0.118E-01
DAV:   6    -0.476874108956E+03   -0.45296E-04   -0.40843E-04  1696   0.590E-02    0.401E-02
DAV:   7    -0.476874109811E+03   -0.85535E-06   -0.10980E-04  1520   0.273E-02    0.184E-02
DAV:   8    -0.476874123987E+03   -0.14176E-04   -0.11782E-05   968   0.107E-02    0.777E-03
DAV:   9    -0.476874136841E+03   -0.12854E-04   -0.53000E-06   944   0.661E-03    0.352E-03
DAV:  10    -0.476874146234E+03   -0.93932E-05   -0.15404E-06   936   0.355E-03
  10 F= -.47687415E+03 E0= -.47686944E+03  d E =-.604719E+00
 curvature:  -2.65 expect dE=-0.798E+00 dE for cont linesearch -0.661E-05
 trial: gam= 0.62642 g(F)=  0.288E+00 g(S)=  0.132E-01 ort =-0.168E-02 (trialstep = 0.193E+01)
 search vector abs. value=  0.744E+00
 bond charge predicted
       N       E                     dE             d eps       ncg     rms          rms(c)
DAV:   1    -0.477066919460E+03   -0.19278E+00   -0.13036E+02  1424   0.244E+01    0.261E+00
DAV:   2    -0.477215473734E+03   -0.14855E+00   -0.20731E+00  1592   0.374E+00    0.137E+00
DAV:   3    -0.477210265617E+03    0.52081E-02   -0.14731E-01  1600   0.132E+00    0.132E+00
DAV:   4    -0.477198927506E+03    0.11338E-01   -0.57351E-02  1576   0.848E-01    0.738E-01
DAV:   5    -0.477195241550E+03    0.36860E-02   -0.13479E-02  1544   0.400E-01    0.273E-01
DAV:   6    -0.477195228800E+03    0.12750E-04   -0.26167E-03  1600   0.157E-01    0.933E-02
DAV:   7    -0.477195304979E+03   -0.76179E-04   -0.40814E-04  1680   0.538E-02    0.473E-02
DAV:   8    -0.477195361377E+03   -0.56398E-04   -0.86734E-05  1464   0.270E-02    0.221E-02
DAV:   9    -0.477195419699E+03   -0.58322E-04   -0.16444E-05   992   0.136E-02    0.631E-03
DAV:  10    -0.477195462560E+03   -0.42861E-04   -0.60341E-06   960   0.655E-03    0.381E-03
DAV:  11    -0.477195508329E+03   -0.45769E-04   -0.33202E-06   992   0.412E-03    0.226E-03
DAV:  12    -0.477195552647E+03   -0.44318E-04   -0.35813E-06   984   0.321E-03    0.162E-03
DAV:  13    -0.477195574122E+03   -0.21475E-04   -0.13054E-06   968   0.228E-03    0.115E-03
DAV:  14    -0.477195592727E+03   -0.18605E-04   -0.16597E-06   960   0.195E-03    0.621E-04
DAV:  15    -0.477195600141E+03   -0.74137E-05   -0.59407E-07   960   0.125E-03
  11 F= -.47719560E+03 E0= -.47719498E+03  d E =-.321454E+00
 trial-energy change:   -0.321454  1 .order   -0.319189   -0.580625   -0.057753
 step:   2.1408(harm=  2.1467)  dis= 0.09064  next Energy=  -477.198703 (dE=-0.325E+00)
 bond charge predicted
       N       E                     dE             d eps       ncg     rms          rms(c)
DAV:   1    -0.477197270540E+03   -0.16778E-02   -0.14976E+00  1424   0.261E+00    0.268E-01
DAV:   2    -0.477198903922E+03   -0.16334E-02   -0.23050E-02  1552   0.402E-01    0.152E-01
DAV:   3    -0.477198870459E+03    0.33462E-04   -0.20349E-03  1552   0.155E-01    0.148E-01
DAV:   4    -0.477198669247E+03    0.20121E-03   -0.69107E-04  1544   0.961E-02    0.704E-02
DAV:   5    -0.477198653008E+03    0.16239E-04   -0.14842E-04  1544   0.385E-02    0.268E-02
DAV:   6    -0.477198653938E+03   -0.92921E-06   -0.27098E-05  1144   0.178E-02
  12 F= -.47719865E+03 E0= -.47719818E+03  d E =-.324508E+00
 curvature:  -2.66 expect dE=-0.340E+00 dE for cont linesearch -0.146E-05
 trial: gam= 0.42340 g(F)=  0.124E+00 g(S)=  0.370E-02 ort =-0.640E-03 (trialstep = 0.197E+01)
 search vector abs. value=  0.261E+00
 bond charge predicted
       N       E                     dE             d eps       ncg     rms          rms(c)
DAV:   1    -0.477327561602E+03   -0.12891E+00   -0.48070E+01  1408   0.147E+01    0.149E+00
DAV:   2    -0.477377663032E+03   -0.50101E-01   -0.73426E-01  1608   0.227E+00    0.906E-01
DAV:   3    -0.477374276562E+03    0.33865E-02   -0.74699E-02  1536   0.947E-01    0.820E-01
DAV:   4    -0.477367939322E+03    0.63372E-02   -0.21141E-02  1560   0.507E-01    0.383E-01
DAV:   5    -0.477367177766E+03    0.76156E-03   -0.48525E-03  1552   0.228E-01    0.157E-01
DAV:   6    -0.477367127353E+03    0.50413E-04   -0.11485E-03  1616   0.112E-01    0.537E-02
DAV:   7    -0.477367151745E+03   -0.24392E-04   -0.21936E-04  1688   0.380E-02    0.298E-02
DAV:   8    -0.477367166405E+03   -0.14660E-04   -0.26432E-05  1120   0.161E-02    0.150E-02
DAV:   9    -0.477367189365E+03   -0.22960E-04   -0.93015E-06   936   0.957E-03    0.397E-03
DAV:  10    -0.477367203469E+03   -0.14104E-04   -0.19556E-06   928   0.460E-03    0.265E-03
DAV:  11    -0.477367225909E+03   -0.22440E-04   -0.16145E-06   936   0.375E-03    0.130E-03
DAV:  12    -0.477367239812E+03   -0.13903E-04   -0.11682E-06   928   0.231E-03    0.102E-03
DAV:  13    -0.477367248689E+03   -0.88772E-05   -0.64017E-07   920   0.160E-03
  13 F= -.47736725E+03 E0= -.47736678E+03  d E =-.168595E+00
 trial-energy change:   -0.168595  1 .order   -0.168552   -0.251885   -0.085218
 step:   2.9844(harm=  2.9844)  dis= 0.08052  next Energy=  -477.388992 (dE=-0.190E+00)
 bond charge predicted
       N       E                     dE             d eps       ncg     rms          rms(c)
DAV:   1    -0.477378379491E+03   -0.11140E-01   -0.12568E+01  1408   0.751E+00    0.755E-01
DAV:   2    -0.477391203488E+03   -0.12824E-01   -0.19004E-01  1592   0.117E+00    0.476E-01
DAV:   3    -0.477390252112E+03    0.95138E-03   -0.19945E-02  1536   0.485E-01    0.412E-01
DAV:   4    -0.477388612985E+03    0.16391E-02   -0.54180E-03  1544   0.258E-01    0.193E-01
DAV:   5    -0.477388425446E+03    0.18754E-03   -0.12868E-03  1544   0.113E-01    0.751E-02
DAV:   6    -0.477388421022E+03    0.44232E-05   -0.28484E-04  1632   0.552E-02    0.277E-02
DAV:   7    -0.477388428163E+03   -0.71403E-05   -0.51826E-05  1288   0.193E-02
  14 F= -.47738843E+03 E0= -.47738795E+03  d E =-.189774E+00
 curvature:  -3.05 expect dE=-0.386E+00 dE for cont linesearch -0.174E-04
 trial: gam= 1.00264 g(F)=  0.111E+00 g(S)=  0.159E-01 ort =-0.122E-02 (trialstep = 0.147E+01)
 search vector abs. value=  0.386E+00
 bond charge predicted
       N       E                     dE             d eps       ncg     rms          rms(c)
DAV:   1    -0.477481271065E+03   -0.92850E-01   -0.42164E+01  1416   0.135E+01    0.104E+00
DAV:   2    -0.477529685675E+03   -0.48415E-01   -0.58116E-01  1592   0.189E+00    0.697E-01
DAV:   3    -0.477527746351E+03    0.19393E-02   -0.35090E-02  1584   0.572E-01    0.525E-01
DAV:   4    -0.477525924211E+03    0.18221E-02   -0.99984E-03  1552   0.369E-01    0.383E-01
DAV:   5    -0.477525165584E+03    0.75863E-03   -0.37878E-03  1528   0.197E-01    0.136E-01
DAV:   6    -0.477525282216E+03   -0.11663E-03   -0.94177E-04  1600   0.838E-02    0.527E-02
DAV:   7    -0.477525285541E+03   -0.33257E-05   -0.14505E-04  1576   0.359E-02    0.267E-02
DAV:   8    -0.477525302566E+03   -0.17025E-04   -0.33618E-05  1184   0.171E-02    0.108E-02
DAV:   9    -0.477525321165E+03   -0.18599E-04   -0.70389E-06   920   0.886E-03    0.490E-03
DAV:  10    -0.477525334725E+03   -0.13559E-04   -0.22596E-06   920   0.411E-03    0.263E-03
DAV:  11    -0.477525349388E+03   -0.14663E-04   -0.11660E-06   912   0.248E-03    0.119E-03
DAV:  12    -0.477525359738E+03   -0.10351E-04   -0.78097E-07   928   0.168E-03    0.711E-04
DAV:  13    -0.477525371162E+03   -0.11424E-04   -0.94783E-07   920   0.156E-03    0.501E-04
DAV:  14    -0.477525375858E+03   -0.46960E-05   -0.51223E-07   928   0.111E-03
  15 F= -.47752538E+03 E0= -.47752520E+03  d E =-.136948E+00
 trial-energy change:   -0.136948  1 .order   -0.137068   -0.184279   -0.089858
 step:   2.8666(harm=  2.8666)  dis= 0.10157  next Energy=  -477.568255 (dE=-0.180E+00)
 bond charge predicted
       N       E                     dE             d eps       ncg     rms          rms(c)
DAV:   1    -0.477529220980E+03   -0.38498E-02   -0.38165E+01  1424   0.128E+01    0.978E-01
DAV:   2    -0.477572514149E+03   -0.43293E-01   -0.52182E-01  1608   0.179E+00    0.638E-01
DAV:   3    -0.477570728987E+03    0.17852E-02   -0.29951E-02  1584   0.525E-01    0.479E-01
DAV:   4    -0.477569336594E+03    0.13924E-02   -0.87051E-03  1552   0.336E-01    0.357E-01
DAV:   5    -0.477568612396E+03    0.72420E-03   -0.32561E-03  1536   0.185E-01    0.128E-01
DAV:   6    -0.477568705877E+03   -0.93481E-04   -0.83820E-04  1592   0.797E-02    0.477E-02
DAV:   7    -0.477568712126E+03   -0.62494E-05   -0.13270E-04  1568   0.336E-02    0.245E-02
DAV:   8    -0.477568727448E+03   -0.15322E-04   -0.26475E-05  1160   0.157E-02    0.103E-02
DAV:   9    -0.477568744948E+03   -0.17500E-04   -0.63712E-06   920   0.836E-03    0.456E-03
DAV:  10    -0.477568757285E+03   -0.12337E-04   -0.20174E-06   920   0.392E-03    0.249E-03
DAV:  11    -0.477568770849E+03   -0.13564E-04   -0.10870E-06   928   0.239E-03    0.110E-03
DAV:  12    -0.477568780605E+03   -0.97559E-05   -0.74885E-07   936   0.163E-03
  16 F= -.47756878E+03 E0= -.47756872E+03  d E =-.180352E+00
 curvature:  -4.41 expect dE=-0.502E+00 dE for cont linesearch -0.822E-05
 trial: gam= 0.87752 g(F)=  0.111E+00 g(S)=  0.230E-02 ort = 0.848E-03 (trialstep = 0.164E+01)
 search vector abs. value=  0.413E+00
 bond charge predicted
       N       E                     dE             d eps       ncg     rms          rms(c)
DAV:   1    -0.477652742033E+03   -0.83971E-01   -0.53407E+01  1408   0.151E+01    0.118E+00
DAV:   2    -0.477713798552E+03   -0.61057E-01   -0.72311E-01  1592   0.211E+00    0.851E-01
DAV:   3    -0.477710216855E+03    0.35817E-02   -0.49384E-02  1568   0.696E-01    0.622E-01
DAV:   4    -0.477707167153E+03    0.30497E-02   -0.12830E-02  1560   0.411E-01    0.407E-01
DAV:   5    -0.477706393499E+03    0.77365E-03   -0.42893E-03  1544   0.195E-01    0.154E-01
DAV:   6    -0.477706511788E+03   -0.11829E-03   -0.10916E-03  1616   0.909E-02    0.635E-02
DAV:   7    -0.477706501455E+03    0.10333E-04   -0.15351E-04  1592   0.400E-02    0.348E-02
DAV:   8    -0.477706515518E+03   -0.14064E-04   -0.49337E-05  1304   0.218E-02    0.129E-02
DAV:   9    -0.477706531147E+03   -0.15628E-04   -0.75282E-06   920   0.884E-03    0.535E-03
DAV:  10    -0.477706544442E+03   -0.13296E-04   -0.24705E-06   912   0.438E-03    0.256E-03
DAV:  11    -0.477706559051E+03   -0.14608E-04   -0.14851E-06   912   0.303E-03    0.166E-03
DAV:  12    -0.477706568724E+03   -0.96729E-05   -0.78626E-07   952   0.193E-03
  17 F= -.47770657E+03 E0= -.47770654E+03  d E =-.137788E+00
 trial-energy change:   -0.137788  1 .order   -0.137765   -0.187309   -0.088221
 step:   3.0938(harm=  3.0938)  dis= 0.12050  next Energy=  -477.745818 (dE=-0.177E+00)
 bond charge predicted
       N       E                     dE             d eps       ncg     rms          rms(c)
DAV:   1    -0.477704173641E+03    0.23854E-02   -0.42277E+01  1408   0.134E+01    0.104E+00
DAV:   2    -0.477752161543E+03   -0.47988E-01   -0.56984E-01  1584   0.187E+00    0.734E-01
DAV:   3    -0.477749377485E+03    0.27841E-02   -0.37775E-02  1576   0.608E-01    0.542E-01
DAV:   4    -0.477747105560E+03    0.22719E-02   -0.10069E-02  1560   0.360E-01    0.356E-01
DAV:   5    -0.477746475323E+03    0.63024E-03   -0.32152E-03  1560   0.172E-01    0.135E-01
DAV:   6    -0.477746564639E+03   -0.89316E-04   -0.88059E-04  1616   0.813E-02    0.542E-02
DAV:   7    -0.477746560368E+03    0.42711E-05   -0.12055E-04  1568   0.353E-02    0.300E-02
DAV:   8    -0.477746574781E+03   -0.14414E-04   -0.36000E-05  1176   0.189E-02    0.114E-02
DAV:   9    -0.477746590488E+03   -0.15707E-04   -0.63286E-06   904   0.811E-03    0.468E-03
DAV:  10    -0.477746603318E+03   -0.12830E-04   -0.22594E-06   936   0.408E-03    0.234E-03
DAV:  11    -0.477746618184E+03   -0.14866E-04   -0.13876E-06   904   0.280E-03    0.145E-03
DAV:  12    -0.477746627818E+03   -0.96338E-05   -0.77562E-07   944   0.183E-03
  18 F= -.47774663E+03 E0= -.47774661E+03  d E =-.177847E+00
 curvature:  -5.58 expect dE=-0.585E+00 dE for cont linesearch -0.120E-04
 trial: gam= 0.94193 g(F)=  0.101E+00 g(S)=  0.413E-02 ort = 0.942E-03 (trialstep = 0.168E+01)
 search vector abs. value=  0.473E+00
 bond charge predicted
       N       E                     dE             d eps       ncg     rms          rms(c)
DAV:   1    -0.477798500377E+03   -0.51882E-01   -0.66447E+01  1432   0.168E+01    0.119E+00
DAV:   2    -0.477873571830E+03   -0.75071E-01   -0.86405E-01  1592   0.228E+00    0.743E-01
DAV:   3    -0.477868494009E+03    0.50778E-02   -0.35144E-02  1624   0.552E-01    0.496E-01
DAV:   4    -0.477867792626E+03    0.70138E-03   -0.12662E-02  1568   0.376E-01    0.343E-01
DAV:   5    -0.477867154276E+03    0.63835E-03   -0.60729E-03  1568   0.260E-01    0.190E-01
DAV:   6    -0.477866867282E+03    0.28699E-03   -0.13876E-03  1536   0.126E-01    0.616E-02
DAV:   7    -0.477866876247E+03   -0.89648E-05   -0.19133E-04  1592   0.397E-02    0.371E-02
DAV:   8    -0.477866888938E+03   -0.12691E-04   -0.43018E-05  1240   0.189E-02    0.166E-02
DAV:   9    -0.477866910122E+03   -0.21184E-04   -0.10541E-05   984   0.105E-02    0.715E-03
DAV:  10    -0.477866926367E+03   -0.16245E-04   -0.32911E-06   936   0.578E-03    0.355E-03
DAV:  11    -0.477866944755E+03   -0.18387E-04   -0.18422E-06   920   0.447E-03    0.187E-03
DAV:  12    -0.477866957458E+03   -0.12703E-04   -0.13064E-06   944   0.307E-03    0.145E-03
DAV:  13    -0.477866967231E+03   -0.97735E-05   -0.70585E-07   904   0.197E-03
  19 F= -.47786697E+03 E0= -.47786696E+03  d E =-.120339E+00
 trial-energy change:   -0.120339  1 .order   -0.120298   -0.177930   -0.062665
 step:   2.5980(harm=  2.5980)  dis= 0.11525  next Energy=  -477.883960 (dE=-0.137E+00)
 bond charge predicted
       N       E                     dE             d eps       ncg     rms          rms(c)
DAV:   1    -0.477863787953E+03    0.31695E-02   -0.19542E+01  1416   0.913E+00    0.642E-01
DAV:   2    -0.477885727501E+03   -0.21940E-01   -0.25372E-01  1600   0.124E+00    0.402E-01
DAV:   3    -0.477884191843E+03    0.15357E-02   -0.10311E-02  1584   0.296E-01    0.270E-01
DAV:   4    -0.477883827987E+03    0.36386E-03   -0.32575E-03  1584   0.182E-01    0.148E-01
DAV:   5    -0.477883889144E+03   -0.61157E-04   -0.14578E-03  1584   0.127E-01    0.114E-01
DAV:   6    -0.477883741923E+03    0.14722E-03   -0.49087E-04  1560   0.755E-02    0.349E-02
DAV:   7    -0.477883748138E+03   -0.62148E-05   -0.45997E-05  1200   0.195E-02
  20 F= -.47788375E+03 E0= -.47788374E+03  d E =-.137120E+00
 curvature:  -5.81 expect dE=-0.390E+00 dE for cont linesearch -0.640E-05
 trial: gam= 0.65091 g(F)=  0.653E-01 g(S)=  0.179E-02 ort =-0.722E-03 (trialstep = 0.187E+01)
 search vector abs. value=  0.266E+00
 bond charge predicted
       N       E                     dE             d eps       ncg     rms          rms(c)
DAV:   1    -0.477928519674E+03   -0.44778E-01   -0.46848E+01  1424   0.136E+01    0.930E-01
DAV:   2    -0.477978493530E+03   -0.49974E-01   -0.58300E-01  1592   0.186E+00    0.629E-01
DAV:   3    -0.477975637223E+03    0.28563E-02   -0.24659E-02  1632   0.438E-01    0.429E-01
DAV:   4    -0.477975426866E+03    0.21036E-03   -0.86390E-03  1576   0.306E-01    0.359E-01
DAV:   5    -0.477974288381E+03    0.11385E-02   -0.44201E-03  1568   0.220E-01    0.145E-01
DAV:   6    -0.477974286422E+03    0.19593E-05   -0.94509E-04  1536   0.951E-02    0.503E-02
DAV:   7    -0.477974288859E+03   -0.24370E-05   -0.14055E-04  1616   0.352E-02    0.280E-02
DAV:   8    -0.477974300058E+03   -0.11198E-04   -0.30136E-05  1184   0.165E-02    0.117E-02
DAV:   9    -0.477974312708E+03   -0.12650E-04   -0.64591E-06   936   0.865E-03    0.586E-03
DAV:  10    -0.477974321082E+03   -0.83743E-05   -0.21309E-06   928   0.420E-03
  21 F= -.47797432E+03 E0= -.47797432E+03  d E =-.905729E-01
 trial-energy change:   -0.090573  1 .order   -0.090342   -0.124289   -0.056395
 step:   3.3611(harm=  3.4160)  dis= 0.12078  next Energy=  -477.997031 (dE=-0.113E+00)
 bond charge predicted
       N       E                     dE             d eps       ncg     rms          rms(c)
DAV:   1    -0.477968162408E+03    0.61503E-02   -0.29997E+01  1424   0.109E+01    0.739E-01
DAV:   2    -0.477999840003E+03   -0.31678E-01   -0.37098E-01  1600   0.148E+00    0.497E-01
DAV:   3    -0.477997997991E+03    0.18420E-02   -0.15614E-02  1608   0.346E-01    0.337E-01
DAV:   4    -0.477997870466E+03    0.12753E-03   -0.54371E-03  1568   0.242E-01    0.281E-01
DAV:   5    -0.477997169813E+03    0.70065E-03   -0.27743E-03  1568   0.174E-01    0.114E-01
