 vasp.6.3.2 27Jun22 (build May 04 2024 18:40:40) complex                        
  
 executed on             LinuxIFC date 2024.09.02  21:16:53
 running on   48 total cores
 distrk:  each k-point on   48 cores,    1 groups
 distr:  one band on NCORE=  12 cores,    4 groups


--------------------------------------------------------------------------------------------------------


 INCAR:
   SYSTEM = slab_Cel1-OPT
   ISTART = 0
   ICHARG = 2
   LWAVE = .F.
   LAECHG = .F.
   LCHARG = .F.
   LELF = .False.
   ENCUT = 400
   PREC = N
   NELM = 200
   ALGO = N
   ISMEAR = 0
   SIGMA = 0.1
   EDIFF = 1E-5
   IBRION = 2
   POTIM = 0.1
   EDIFFG = -0.05
   ISIF = 3
   NSW = 1000
   LDIPOL = .True.
   IDIPOL = 3
   LREAL = AUTO
   NCORE = 12

 POTCAR:    PAW_PBE C 08Apr2002                   
 POTCAR:    PAW_PBE N 08Apr2002                   
 POTCAR:    PAW_PBE Au 04Oct2007                  
 POTCAR:    PAW_PBE Ag 02Apr2005                  
 POTCAR:    PAW_PBE Pd 04Jan2005                  
 POTCAR:    PAW_PBE C 08Apr2002                   
   SHA256 =  253f7b50bb8d59471dbedb8285d89021f4a42ed1a2c5d38a03a736e69125dd95 C/POTCAR              
   COPYR  = (c) Copyright 08Apr2002 Georg Kresse                                                    
   COPYR  = This file is part of the software VASP. Any use, copying, and all other rights are regul
   COPYR  = If you do not have a valid VASP license, you may not use, copy or distribute this file. 
   VRHFIN =C: s2p2                                                                                  
   LEXCH  = PE                                                                                      
   EATOM  =   147.1560 eV,   10.8157 Ry                                                             
                                                                                                    
   TITEL  = PAW_PBE C 08Apr2002                                                                     
   LULTRA =        F    use ultrasoft PP ?                                                          
   IUNSCR =        1    unscreen: 0-lin 1-nonlin 2-no                                               
   RPACOR =    1.200    partial core radius                                                         
   POMASS =   12.011; ZVAL   =    4.000    mass and valenz                                          
   RCORE  =    1.500    outmost cutoff radius                                                       
   RWIGS  =    1.630; RWIGS  =    0.863    wigner-seitz radius (au A)                               
   ENMAX  =  400.000; ENMIN  =  300.000 eV                                                          
   ICORE  =        2    local potential                                                             
   LCOR   =        T    correct aug charges                                                         
   LPAW   =        T    paw PP                                                                      
   EAUG   =  644.873                                                                                
   DEXC   =    0.000                                                                                
   RMAX   =    1.529    core radius for proj-oper                                                   
   RAUG   =    1.300    factor for augmentation sphere                                              
   RDEP   =    1.501    radius for radial grids                                                     
   RDEPT  =    1.300    core radius for aug-charge                                                  
                                                                                                    
   Atomic configuration                                                                             
    4 entries                                                                                       
     n  l   j            E        occ.                                                              
     1  0  0.50      -273.3789   2.0000                                                             
     2  0  0.50       -13.7508   2.0000                                                             
     2  1  0.50        -5.2854   2.0000                                                             
     3  2  1.50        -5.4423   0.0000                                                             
   Description                                                                                      
     l       E           TYP  RCUT    TYP  RCUT                                                     
     0    -13.7508458     23  1.200                                                                 
     0     -8.2022199     23  1.200                                                                 
     1     -5.2854383     23  1.500                                                                 
     1     34.0145650     23  1.500                                                                 
     2     -5.4423304      7  1.500                                                                 
  local pseudopotential read in
  partial core-charges read in
  partial kinetic energy density read in
  atomic valenz-charges read in
  non local Contribution for L=           0  read in
    real space projection operators read in
  non local Contribution for L=           0  read in
    real space projection operators read in
  non local Contribution for L=           1  read in
    real space projection operators read in
  non local Contribution for L=           1  read in
    real space projection operators read in
    PAW grid and wavefunctions read in
 
   number of l-projection  operators is LMAX  =           4
   number of lm-projection operators is LMMAX =           8
 
 POTCAR:    PAW_PBE N 08Apr2002                   
   SHA256 =  e053789ff3a61a86a1b75d8a110fcc91f86041011e7b0817c7c99e4e8a6349d7 N/POTCAR              
   COPYR  = (c) Copyright 08Apr2002 Georg Kresse                                                    
   COPYR  = This file is part of the software VASP. Any use, copying, and all other rights are regul
   COPYR  = If you do not have a valid VASP license, you may not use, copy or distribute this file. 
   VRHFIN =N: s2p3                                                                                  
   LEXCH  = PE                                                                                      
   EATOM  =   264.5486 eV,   19.4438 Ry                                                             
                                                                                                    
   TITEL  = PAW_PBE N 08Apr2002                                                                     
   LULTRA =        F    use ultrasoft PP ?                                                          
   IUNSCR =        1    unscreen: 0-lin 1-nonlin 2-no                                               
   RPACOR =    1.200    partial core radius                                                         
   POMASS =   14.001; ZVAL   =    5.000    mass and valenz                                          
   RCORE  =    1.500    outmost cutoff radius                                                       
   RWIGS  =    1.400; RWIGS  =    0.741    wigner-seitz radius (au A)                               
   ENMAX  =  400.000; ENMIN  =  300.000 eV                                                          
   ICORE  =        2    local potential                                                             
   LCOR   =        T    correct aug charges                                                         
   LPAW   =        T    paw PP                                                                      
   EAUG   =  627.112                                                                                
   DEXC   =    0.000                                                                                
   RMAX   =    1.529    core radius for proj-oper                                                   
   RAUG   =    1.300    factor for augmentation sphere                                              
   RDEP   =    1.514    radius for radial grids                                                     
   RDEPT  =    1.338    core radius for aug-charge                                                  
                                                                                                    
   Atomic configuration                                                                             
    4 entries                                                                                       
     n  l   j            E        occ.                                                              
     1  0  0.50      -384.7179   2.0000                                                             
     2  0  0.50       -18.5828   2.0000                                                             
     2  1  0.50        -7.0898   3.0000                                                             
     3  2  1.50        -6.8029   0.0000                                                             
   Description                                                                                      
     l       E           TYP  RCUT    TYP  RCUT                                                     
     0    -18.5828119     23  1.200                                                                 
     0    -13.5018863     23  1.200                                                                 
     1     -7.0897853     23  1.500                                                                 
     1      9.5240782     23  1.500                                                                 
     2     -6.8029130      7  1.500                                                                 
  local pseudopotential read in
  partial core-charges read in
  partial kinetic energy density read in
  atomic valenz-charges read in
  non local Contribution for L=           0  read in
    real space projection operators read in
  non local Contribution for L=           0  read in
    real space projection operators read in
  non local Contribution for L=           1  read in
    real space projection operators read in
  non local Contribution for L=           1  read in
    real space projection operators read in
    PAW grid and wavefunctions read in
 
   number of l-projection  operators is LMAX  =           4
   number of lm-projection operators is LMMAX =           8
 
 POTCAR:    PAW_PBE Au 04Oct2007                  
   SHA256 =  d0044ae04e2bdce24051b198fc5c053d722a5bc6fe3c3b100514a13fc5d2db88 Au/POTCAR             
   COPYR  = (c) Copyright 04Oct2007 Georg Kresse                                                    
   COPYR  = This file is part of the software VASP. Any use, copying, and all other rights are regul
   COPYR  = If you do not have a valid VASP license, you may not use, copy or distribute this file. 
   VRHFIN =Au: s1d10                                                                                
   LEXCH  = PE                                                                                      
   EATOM  =   926.0867 eV,   68.0654 Ry                                                             
                                                                                                    
   TITEL  = PAW_PBE Au 04Oct2007                                                                    
   LULTRA =        F    use ultrasoft PP ?                                                          
   IUNSCR =        1    unscreen: 0-lin 1-nonlin 2-no                                               
   RPACOR =    2.330    partial core radius                                                         
   POMASS =  196.966; ZVAL   =   11.000    mass and valenz                                          
   RCORE  =    2.500    outmost cutoff radius                                                       
   RWIGS  =    2.840; RWIGS  =    1.503    wigner-seitz radius (au A)                               
   ENMAX  =  229.943; ENMIN  =  172.457 eV                                                          
   ICORE  =        3    local potential                                                             
   LCOR   =        T    correct aug charges                                                         
   LPAW   =        T    paw PP                                                                      
   EAUG   =  356.670                                                                                
   DEXC   =    0.000                                                                                
   RMAX   =    2.562    core radius for proj-oper                                                   
   RAUG   =    1.300    factor for augmentation sphere                                              
   RDEP   =    2.598    radius for radial grids                                                     
   RDEPT  =    2.193    core radius for aug-charge                                                  
                                                                                                    
   Atomic configuration                                                                             
   16 entries                                                                                       
     n  l   j            E        occ.                                                              
     1  0  0.50    -80748.5001   2.0000                                                             
     2  0  0.50    -14244.7466   2.0000                                                             
     2  1  1.50    -12310.9591   6.0000                                                             
     3  0  0.50     -3362.1768   2.0000                                                             
     3  1  1.50     -2801.5463   6.0000                                                             
     3  2  2.50     -2203.8206  10.0000                                                             
     4  0  0.50      -729.8168   2.0000                                                             
     4  1  1.50      -546.0527   6.0000                                                             
     4  2  2.50      -325.7302  10.0000                                                             
     4  3  3.50       -81.1472  14.0000                                                             
     5  0  0.50      -108.3201   2.0000                                                             
     5  1  1.50       -59.7479   6.0000                                                             
     5  2  2.50        -6.8783  10.0000                                                             
     6  0  0.50        -5.7602   1.0000                                                             
     6  1  1.50        -6.8029   0.0000                                                             
     5  3  2.50        -1.3606   0.0000                                                             
   Description                                                                                      
     l       E           TYP  RCUT    TYP  RCUT                                                     
     2     -6.8782861     23  2.500                                                                 
     2     -8.2388687     23  2.500                                                                 
     0     -5.7601759     23  2.500                                                                 
     0     -0.8493231     23  2.500                                                                 
     1     -2.7211652     23  2.500                                                                 
     1     27.2116520     23  2.500                                                                 
     3     -1.3605826     23  2.500                                                                 
  local pseudopotential read in
  partial core-charges read in
  partial kinetic energy density read in
  atomic valenz-charges read in
  non local Contribution for L=           2  read in
    real space projection operators read in
  non local Contribution for L=           2  read in
    real space projection operators read in
  non local Contribution for L=           0  read in
    real space projection operators read in
  non local Contribution for L=           0  read in
    real space projection operators read in
  non local Contribution for L=           1  read in
    real space projection operators read in
  non local Contribution for L=           1  read in
    real space projection operators read in
    PAW grid and wavefunctions read in
 
   number of l-projection  operators is LMAX  =           6
   number of lm-projection operators is LMMAX =          18
 
 POTCAR:    PAW_PBE Ag 02Apr2005                  
   SHA256 =  6550cfa3543261e132c169e1b98a529204624d72be14e2da2e0242bcb74a174d Ag/POTCAR             
   COPYR  = (c) Copyright 02Apr2005 Georg Kresse                                                    
   COPYR  = This file is part of the software VASP. Any use, copying, and all other rights are regul
   COPYR  = If you do not have a valid VASP license, you may not use, copy or distribute this file. 
   VRHFIN =Ag : s1 d10                                                                              
   LEXCH  = PE                                                                                      
   EATOM  =  1037.2675 eV,   76.2370 Ry                                                             
                                                                                                    
   TITEL  = PAW_PBE Ag 02Apr2005                                                                    
   LULTRA =        F    use ultrasoft PP ?                                                          
   IUNSCR =        1    unscreen: 0-lin 1-nonlin 2-no                                               
   RPACOR =    2.000    partial core radius                                                         
   POMASS =  107.868; ZVAL   =   11.000    mass and valenz                                          
   RCORE  =    2.500    outmost cutoff radius                                                       
   RWIGS  =    2.840; RWIGS  =    1.503    wigner-seitz radius (au A)                               
   ENMAX  =  249.844; ENMIN  =  187.383 eV                                                          
   ICORE  =        3    local potential                                                             
   LCOR   =        T    correct aug charges                                                         
   LPAW   =        T    paw PP                                                                      
   EAUG   =  412.496                                                                                
   DEXC   =    0.000                                                                                
   RMAX   =    2.560    core radius for proj-oper                                                   
   RAUG   =    1.300    factor for augmentation sphere                                              
   RDEP   =    2.576    radius for radial grids                                                     
   RDEPT  =    2.072    core radius for aug-charge                                                  
                                                                                                    
   Atomic configuration                                                                             
   12 entries                                                                                       
     n  l   j            E        occ.                                                              
     1  0  0.50    -25324.9161   2.0000                                                             
     2  0  0.50     -3728.5341   2.0000                                                             
     2  1  1.50     -3344.0404   6.0000                                                             
     3  0  0.50      -683.5581   2.0000                                                             
     3  1  1.50      -557.3225   6.0000                                                             
     3  2  2.50      -358.3853  10.0000                                                             
     4  0  0.50       -95.0341   2.0000                                                             
     4  1  1.50       -58.5511   6.0000                                                             
     4  2  2.50        -7.4440  10.0000                                                             
     5  0  0.50        -4.4045   1.0000                                                             
     5  1  0.50        -1.3606   0.0000                                                             
     4  3  2.50        -1.3606   0.0000                                                             
   Description                                                                                      
     l       E           TYP  RCUT    TYP  RCUT                                                     
     2     -7.4439781     23  2.400                                                                 
     2     -8.8045607     23  2.400                                                                 
     0     -4.4044681     23  2.400                                                                 
     0      1.9520038     23  2.400                                                                 
     1     -1.3605826     23  2.500                                                                 
     1     27.2116520     23  2.500                                                                 
     3     -4.0817478     23  2.400                                                                 
  local pseudopotential read in
  partial core-charges read in
  partial kinetic energy density read in
  atomic valenz-charges read in
  non local Contribution for L=           2  read in
    real space projection operators read in
  non local Contribution for L=           2  read in
    real space projection operators read in
  non local Contribution for L=           0  read in
    real space projection operators read in
  non local Contribution for L=           0  read in
    real space projection operators read in
  non local Contribution for L=           1  read in
    real space projection operators read in
  non local Contribution for L=           1  read in
    real space projection operators read in
    PAW grid and wavefunctions read in
 
   number of l-projection  operators is LMAX  =           6
   number of lm-projection operators is LMMAX =          18
 
 POTCAR:    PAW_PBE Pd 04Jan2005                  
   SHA256 =  dd6f6f02930356371984e2b707ff5e456046761dc76b07c1eba30abd15eb3c39 Pd/POTCAR             
   COPYR  = (c) Copyright 04Jan2005 Georg Kresse                                                    
   COPYR  = This file is part of the software VASP. Any use, copying, and all other rights are regul
   COPYR  = If you do not have a valid VASP license, you may not use, copy or distribute this file. 
   VRHFIN =Pd : s1 d9                                                                               
   LEXCH  = PE                                                                                      
   EATOM  =   809.7530 eV,   59.5152 Ry                                                             
                                                                                                    
   TITEL  = PAW_PBE Pd 04Jan2005                                                                    
   LULTRA =        F    use ultrasoft PP ?                                                          
   IUNSCR =        1    unscreen: 0-lin 1-nonlin 2-no                                               
   RPACOR =    2.000    partial core radius                                                         
   POMASS =  106.420; ZVAL   =   10.000    mass and valenz                                          
   RCORE  =    2.600    outmost cutoff radius                                                       
   RWIGS  =    2.710; RWIGS  =    1.434    wigner-seitz radius (au A)                               
   ENMAX  =  250.925; ENMIN  =  188.194 eV                                                          
   ICORE  =        3    local potential                                                             
   LCOR   =        T    correct aug charges                                                         
   LPAW   =        T    paw PP                                                                      
   EAUG   =  416.230                                                                                
   DEXC   =    0.000                                                                                
   RMAX   =    2.653    core radius for proj-oper                                                   
   RAUG   =    1.300    factor for augmentation sphere                                              
   RDEP   =    2.734    radius for radial grids                                                     
   RDEPT  =    2.103    core radius for aug-charge                                                  
                                                                                                    
   Atomic configuration                                                                             
   12 entries                                                                                       
     n  l   j            E        occ.                                                              
     1  0  0.50    -24164.6631   2.0000                                                             
     2  0  0.50     -3530.9218   2.0000                                                             
     2  1  1.50     -3165.6822   6.0000                                                             
     3  0  0.50      -639.4577   2.0000                                                             
     3  1  1.50      -519.4532   6.0000                                                             
     3  2  2.50      -328.9757  10.0000                                                             
     4  0  0.50       -88.7014   2.0000                                                             
     4  1  1.50       -54.4540   6.0000                                                             
     4  2  2.50        -6.6878   9.0000                                                             
     5  0  0.50        -4.3543   1.0000                                                             
     5  1  0.50        -1.3606   0.0000                                                             
     4  3  2.50        -1.3606   0.0000                                                             
   Description                                                                                      
     l       E           TYP  RCUT    TYP  RCUT                                                     
     2     -6.6878251     23  2.400                                                                 
     2     -8.0484077     23  2.400                                                                 
     0     -4.3542939     23  2.400                                                                 
     0      4.3406793     23  2.400                                                                 
     1     -4.0817478     23  2.600                                                                 
     1     15.8380318     23  2.600                                                                 
     3     -4.0817478     23  2.400                                                                 
  local pseudopotential read in
  partial core-charges read in
  partial kinetic energy density read in
  atomic valenz-charges read in
  non local Contribution for L=           2  read in
    real space projection operators read in
  non local Contribution for L=           2  read in
    real space projection operators read in
  non local Contribution for L=           0  read in
    real space projection operators read in
  non local Contribution for L=           0  read in
    real space projection operators read in
  non local Contribution for L=           1  read in
    real space projection operators read in
  non local Contribution for L=           1  read in
    real space projection operators read in
    PAW grid and wavefunctions read in
 
   number of l-projection  operators is LMAX  =           6
   number of lm-projection operators is LMMAX =          18
 
 Optimization of the real space projectors (new method)

 maximal supplied QI-value         = 25.13
 optimisation between [QCUT,QGAM] = [ 10.05, 20.36] = [ 28.30,116.06] Ry 
 Optimized for a Real-space Cutoff    1.30 Angstroem

   l    n(q)    QCUT    max X(q) W(low)/X(q) W(high)/X(q)  e(spline) 
   0      8    10.053   115.676    0.49E-03    0.72E-03    0.18E-06
   0      8    10.053    87.132    0.49E-03    0.71E-03    0.18E-06
   1      7    10.053     4.429    0.32E-03    0.31E-03    0.18E-06
   1      7    10.053     2.733    0.23E-03    0.19E-03    0.20E-06
 Optimization of the real space projectors (new method)

 maximal supplied QI-value         = 25.13
 optimisation between [QCUT,QGAM] = [ 10.05, 20.36] = [ 28.30,116.06] Ry 
 Optimized for a Real-space Cutoff    1.65 Angstroem

   l    n(q)    QCUT    max X(q) W(low)/X(q) W(high)/X(q)  e(spline) 
   0     10    10.053    79.467    0.76E-04    0.72E-04    0.56E-06
   0     10    10.053    66.151    0.76E-04    0.72E-04    0.55E-06
   1     10    10.053     8.350    0.25E-03    0.92E-03    0.41E-05
   1     10    10.053     5.531    0.27E-03    0.10E-02    0.45E-05
 Optimization of the real space projectors (new method)

 maximal supplied QI-value         = 15.12
 optimisation between [QCUT,QGAM] = [ 10.13, 20.41] = [ 28.73,116.64] Ry 
 Optimized for a Real-space Cutoff    1.51 Angstroem

   l    n(q)    QCUT    max X(q) W(low)/X(q) W(high)/X(q)  e(spline) 
   2      8    10.129    60.898    0.46E-03    0.46E-03    0.14E-06
   2      8    10.129    58.894    0.47E-03    0.47E-03    0.14E-06
   0      9    10.129   109.617    0.16E-03    0.11E-03    0.54E-07
   0      9    10.129    75.026    0.15E-03    0.11E-03    0.52E-07
   1      9    10.129    16.344    0.96E-04    0.15E-03    0.14E-06
   1      9    10.129    10.160    0.81E-04    0.12E-03    0.11E-06
 Optimization of the real space projectors (new method)

 maximal supplied QI-value         = 15.12
 optimisation between [QCUT,QGAM] = [ 10.13, 20.41] = [ 28.73,116.64] Ry 
 Optimized for a Real-space Cutoff    1.51 Angstroem

   l    n(q)    QCUT    max X(q) W(low)/X(q) W(high)/X(q)  e(spline) 
   2      8    10.129    53.897    0.29E-03    0.16E-03    0.95E-07
   2      8    10.129    52.416    0.29E-03    0.17E-03    0.97E-07
   0      9    10.129   122.045    0.59E-04    0.96E-05    0.73E-07
   0      9    10.129    73.629    0.57E-04    0.96E-05    0.70E-07
   1      9    10.129    15.255    0.14E-03    0.20E-04    0.11E-06
   1      9    10.129     9.562    0.11E-03    0.14E-04    0.94E-07
 Optimization of the real space projectors (new method)

 maximal supplied QI-value         = 14.36
 optimisation between [QCUT,QGAM] = [ 10.20, 20.39] = [ 29.12,116.47] Ry 
 Optimized for a Real-space Cutoff    1.51 Angstroem

   l    n(q)    QCUT    max X(q) W(low)/X(q) W(high)/X(q)  e(spline) 
   2      8    10.197    59.108    0.26E-03    0.14E-03    0.96E-07
   2      8    10.197    58.101    0.27E-03    0.14E-03    0.98E-07
   0      9    10.197   102.235    0.54E-04    0.60E-05    0.72E-07
   0      9    10.197    58.388    0.52E-04    0.60E-05    0.68E-07
   1      9    10.197    22.191    0.18E-03    0.25E-03    0.79E-07
   1      9    10.197    15.590    0.15E-03    0.21E-03    0.69E-07
  PAW_PBE C 08Apr2002                   :
 energy of atom  1       EATOM= -147.1560
 kinetic energy error for atom=    0.0288 (will be added to EATOM!!)
  PAW_PBE N 08Apr2002                   :
 energy of atom  2       EATOM= -264.5486
 kinetic energy error for atom=    0.0736 (will be added to EATOM!!)
  PAW_PBE Au 04Oct2007                  :
 energy of atom  3       EATOM= -926.0867
 kinetic energy error for atom=    0.0062 (will be added to EATOM!!)
  PAW_PBE Ag 02Apr2005                  :
 energy of atom  4       EATOM=-1037.2675
 kinetic energy error for atom=    0.0091 (will be added to EATOM!!)
  PAW_PBE Pd 04Jan2005                  :
 energy of atom  5       EATOM= -809.7530
 kinetic energy error for atom=    0.0091 (will be added to EATOM!!)
 
 
 POSCAR: C  N  Au Ag Pd
  positions in cartesian coordinates
  No initial velocities read in
 exchange correlation table for  LEXCH =        8
   RHO(1)=    0.500       N(1)  =     2000
   RHO(2)=  100.500       N(2)  =     4000

 VTST: version 4.2, (08/11/21)

 CHAIN: initializing optimizer
 
 OPT: Using VASP Conjugate-Gradient optimizer
 CHAIN: Read ICHAIN            0
 
 POSCAR: C  N  Au Ag Pd
  positions in cartesian coordinates
  No initial velocities read in
 


--------------------------------------------------------------------------------------------------------


 ion  position               nearest neighbor table
   1  0.065  0.404  0.133-  25 1.33  27 1.33  31 1.39
   2  0.981  0.235  0.133-  26 1.33  29 1.33  31 1.39
   3  0.226  0.398  0.133-  27 1.33  30 1.34  40 1.47
   4  0.815  0.577  0.133-  45 1.33  44 1.34  32 1.47  58 2.62
   5  0.150  0.235  0.133-  28 1.33  30 1.33  31 1.39
   6  0.905  0.398  0.133-  25 1.33  26 1.33  32 1.48
   7  0.565  0.404  0.133-  33 1.33  35 1.33  39 1.39  59 2.64  58 2.72
   8  0.481  0.235  0.133-  34 1.33  37 1.33  39 1.39
   9  0.726  0.398  0.133-  35 1.33  38 1.34  32 1.47  58 2.70
  10  0.315  0.577  0.133-  53 1.33  52 1.34  40 1.47  59 2.74
  11  0.650  0.235  0.133-  36 1.33  38 1.33  39 1.39
  12  0.405  0.398  0.133-  33 1.33  34 1.33  40 1.48  59 2.75
  13  0.816  0.904  0.133-  41 1.33  43 1.33  47 1.39
  14  0.731  0.735  0.133-  42 1.33  45 1.33  47 1.39  58 2.58  57 2.59
  15  0.976  0.898  0.133-  43 1.33  46 1.34  56 1.47
  16  0.065  0.077  0.133-  29 1.33  28 1.34  56 1.47
  17  0.900  0.735  0.133-  44 1.33  46 1.33  47 1.39
  18  0.655  0.898  0.133-  41 1.33  42 1.33  48 1.48  57 2.65
  19  0.316  0.904  0.133-  49 1.33  51 1.33  55 1.39
  20  0.231  0.735  0.133-  50 1.33  53 1.33  55 1.39
  21  0.476  0.898  0.133-  51 1.33  54 1.34  48 1.47  57 2.74
  22  0.565  0.077  0.133-  37 1.33  36 1.34  48 1.47
  23  0.400  0.735  0.133-  52 1.33  54 1.33  55 1.39  59 2.62  57 2.76
  24  0.155  0.898  0.133-  49 1.33  50 1.33  56 1.48
  25  0.984  0.456  0.133-   1 1.33   6 1.33
  26  0.901  0.290  0.133-   2 1.33   6 1.33
  27  0.147  0.456  0.133-   3 1.33   1 1.33
  28  0.148  0.127  0.133-   5 1.33  16 1.34
  29  0.983  0.127  0.133-  16 1.33   2 1.33
  30  0.230  0.290  0.133-   5 1.33   3 1.34
  31  0.065  0.291  0.133-   2 1.39   1 1.39   5 1.39
  32  0.816  0.458  0.133-   9 1.47   4 1.47   6 1.48
  33  0.484  0.456  0.133-   7 1.33  12 1.33  59 1.87
  34  0.401  0.290  0.133-   8 1.33  12 1.33
  35  0.647  0.456  0.133-   9 1.33   7 1.33  58 1.89
  36  0.648  0.127  0.133-  11 1.33  22 1.34
  37  0.483  0.127  0.133-  22 1.33   8 1.33
  38  0.730  0.290  0.133-  11 1.33   9 1.34
  39  0.565  0.291  0.133-   8 1.39   7 1.39  11 1.39
  40  0.316  0.458  0.133-   3 1.47  10 1.47  12 1.48
  41  0.734  0.956  0.133-  13 1.33  18 1.33
  42  0.651  0.790  0.133-  14 1.33  18 1.33  57 1.81
  43  0.897  0.956  0.133-  15 1.33  13 1.33
  44  0.899  0.627  0.133-  17 1.33   4 1.34
  45  0.733  0.627  0.133-   4 1.33  14 1.33  58 1.78
  46  0.980  0.790  0.133-  17 1.33  15 1.34
  47  0.816  0.791  0.133-  14 1.39  13 1.39  17 1.39
  48  0.566  0.958  0.133-  21 1.47  22 1.47  18 1.48
  49  0.234  0.956  0.133-  19 1.33  24 1.33
  50  0.151  0.790  0.133-  20 1.33  24 1.33
  51  0.397  0.956  0.133-  21 1.33  19 1.33
  52  0.399  0.627  0.133-  23 1.33  10 1.34  59 1.85
  53  0.233  0.627  0.133-  10 1.33  20 1.33
  54  0.480  0.790  0.133-  23 1.33  21 1.34  57 1.93
  55  0.316  0.791  0.133-  20 1.39  19 1.39  23 1.39
  56  0.066  0.958  0.133-  15 1.47  16 1.47  24 1.48
  57  0.572  0.735  0.216-  42 1.81  54 1.93  58 2.29  59 2.31  14 2.59  18 2.65  21 2.74  23 2.76

  58  0.652  0.574  0.213-  45 1.78  35 1.89  57 2.29  59 2.32  14 2.58   4 2.62   9 2.70   7 2.72

  59  0.490  0.575  0.210-  52 1.85  33 1.87  57 2.31  58 2.32  23 2.62   7 2.64  10 2.74  12 2.75

 
  LATTYP: Found a simple orthorhombic cell.
 ALAT       =    12.3569965043
 B/A-ratio  =     1.1544795691
 C/A-ratio  =     1.2138872091
  
  Lattice vectors:
  
 A1 = (   0.0000000000, -12.3569965043,   0.0000000000)
 A2 = (  14.2659000000,   0.0000000000,   0.0000000000)
 A3 = (   0.0000000000,   0.0000000000,  15.0000000000)


Analysis of symmetry for initial positions (statically):
=====================================================================
 Subroutine PRICEL returns:
 Original cell was already a primitive cell.
 

 Routine SETGRP: Setting up the symmetry group for a 
 simple orthorhombic supercell.


 Subroutine GETGRP returns: Found  1 space group operations
 (whereof  1 operations were pure point group operations)
 out of a pool of  8 trial point group operations.


The static configuration has the point symmetry C_1 .


Analysis of symmetry for dynamics (positions and initial velocities):
=====================================================================
 Subroutine PRICEL returns:
 Original cell was already a primitive cell.
 

 Routine SETGRP: Setting up the symmetry group for a 
 simple orthorhombic supercell.


 Subroutine GETGRP returns: Found  1 space group operations
 (whereof  1 operations were pure point group operations)
 out of a pool of  8 trial point group operations.


The dynamic configuration has the point symmetry C_1 .


 Subroutine INISYM returns: Found  1 space group operations
 (whereof  1 operations are pure point group operations),
 and found     1 'primitive' translations


----------------------------------------------------------------------------------------

                                     Primitive cell                                     

  volume of cell :    2644.2551

  direct lattice vectors                    reciprocal lattice vectors
    14.265900000  0.000000000  0.000000000     0.070097225  0.000000000  0.000000000
     0.000000000 12.356996504  0.000000000     0.000000000  0.080925814  0.000000000
     0.000000000  0.000000000 15.000000000     0.000000000  0.000000000  0.066666667

  length of vectors
    14.265900000 12.356996504 15.000000000     0.070097225  0.080925814  0.066666667

  position of ions in fractional coordinates (direct lattice)
     0.065375930  0.403640000  0.133330000
     0.980977478  0.234940000  0.133330000
     0.225934368  0.398200000  0.133330000
     0.815435750  0.577100000  0.133330000
     0.149737466  0.234900000  0.133330000
     0.905179302  0.397970000  0.133330000
     0.565375930  0.403640000  0.133330000
     0.480977478  0.234940000  0.133330000
     0.725934368  0.398200000  0.133330000
     0.315435750  0.577100000  0.133330000
     0.649737466  0.234900000  0.133330000
     0.405179302  0.397970000  0.133330000
     0.815519537  0.903640000  0.133330000
     0.731121084  0.734940000  0.133330000
     0.976077974  0.898200000  0.133330000
     0.065292144  0.077100000  0.133330000
     0.899881072  0.734900000  0.133330000
     0.655322908  0.897970000  0.133330000
     0.315519537  0.903640000  0.133330000
     0.231121084  0.734940000  0.133330000
     0.476077974  0.898200000  0.133330000
     0.565292144  0.077100000  0.133330000
     0.399881072  0.734900000  0.133330000
     0.155322908  0.897970000  0.133330000
     0.984000934  0.455880000  0.133330000
     0.901118352  0.290210000  0.133330000
     0.147105954  0.455950000  0.133330000
     0.148406516  0.127140000  0.133330000
     0.982561496  0.127070000  0.133330000
     0.229923315  0.290080000  0.133330000
     0.065363625  0.291160000  0.133330000
     0.815531469  0.457740000  0.133330000
     0.484000934  0.455880000  0.133330000
     0.401118352  0.290210000  0.133330000
     0.647105954  0.455950000  0.133330000
     0.648406516  0.127140000  0.133330000
     0.482561496  0.127070000  0.133330000
     0.729923315  0.290080000  0.133330000
     0.565363625  0.291160000  0.133330000
     0.315531469  0.457740000  0.133330000
     0.734144541  0.955880000  0.133330000
     0.651261958  0.790210000  0.133330000
     0.897249561  0.955950000  0.133330000
     0.898550122  0.627140000  0.133330000
     0.732705102  0.627070000  0.133330000
     0.980066921  0.790080000  0.133330000
     0.815507231  0.791160000  0.133330000
     0.565675075  0.957740000  0.133330000
     0.234144541  0.955880000  0.133330000
     0.151261958  0.790210000  0.133330000
     0.397249561  0.955950000  0.133330000
     0.398550122  0.627140000  0.133330000
     0.232705102  0.627070000  0.133330000
     0.480066921  0.790080000  0.133330000
     0.315507231  0.791160000  0.133330000
     0.065675075  0.957740000  0.133330000
     0.572126392  0.735160253  0.216453333
     0.652061715  0.574438574  0.213063333
     0.489661118  0.574674249  0.209883333

  ion indices of the primitive-cell ions
   primitive index   ion index
                 1           1
                 2           2
                 3           3
                 4           4
                 5           5
                 6           6
                 7           7
                 8           8
                 9           9
                10          10
                11          11
                12          12
                13          13
                14          14
                15          15
                16          16
                17          17
                18          18
                19          19
                20          20
                21          21
                22          22
                23          23
                24          24
                25          25
                26          26
                27          27
                28          28
                29          29
                30          30
                31          31
                32          32
                33          33
                34          34
                35          35
                36          36
                37          37
                38          38
                39          39
                40          40
                41          41
                42          42
                43          43
                44          44
                45          45
                46          46
                47          47
                48          48
                49          49
                50          50
                51          51
                52          52
                53          53
                54          54
                55          55
                56          56
                57          57
                58          58
                59          59

----------------------------------------------------------------------------------------

 
 
 KPOINTS: K-POINTS                                

Automatic generation of k-mesh.
 Grid dimensions read from file:
 generate k-points for:    2    2    1

 Generating k-lattice:

  Cartesian coordinates                     Fractional coordinates (reciprocal lattice)
     0.035048612  0.000000000  0.000000000     0.500000000  0.000000000  0.000000000
     0.000000000  0.040462907  0.000000000     0.000000000  0.500000000  0.000000000
     0.000000000  0.000000000  0.066666667     0.000000000  0.000000000  1.000000000

  Length of vectors
     0.035048612  0.040462907  0.066666667

  Shift w.r.t. Gamma in fractional coordinates (k-lattice)
     0.000000000  0.000000000  0.000000000

 
 Subroutine IBZKPT returns following result:
 ===========================================
 
 Found      4 irreducible k-points:
 
 Following reciprocal coordinates:
            Coordinates               Weight
  0.000000  0.000000  0.000000      1.000000
  0.500000  0.000000  0.000000      1.000000
  0.000000  0.500000  0.000000      1.000000
  0.500000  0.500000  0.000000      1.000000
 
 Following cartesian coordinates:
            Coordinates               Weight
  0.000000  0.000000  0.000000      1.000000
  0.035049  0.000000  0.000000      1.000000
  0.000000  0.040463  0.000000      1.000000
  0.035049  0.040463  0.000000      1.000000
 


--------------------------------------------------------------------------------------------------------




 Dimension of arrays:
   k-points           NKPTS =      4   k-points in BZ     NKDIM =      4   number of bands    NBANDS=    176
   number of dos      NEDOS =    301   number of ions     NIONS =     59
   non local maximal  LDIM  =      6   non local SUM 2l+1 LMDIM =     18
   total plane-waves  NPLWV = 336000
   max r-space proj   IRMAX =   2434   max aug-charges    IRDMAX=   7969
   dimension x,y,z NGX =    70 NGY =   60 NGZ =   80
   dimension x,y,z NGXF=   140 NGYF=  120 NGZF=  160
   support grid    NGXF=   140 NGYF=  120 NGZF=  160
   ions per type =              24  32   1   1   1
   NGX,Y,Z   is equivalent  to a cutoff of   8.16,  8.07,  8.87 a.u.
   NGXF,Y,Z  is equivalent  to a cutoff of  16.31, 16.14, 17.73 a.u.

 SYSTEM =  slab_Cel1-OPT                           
 POSCAR =  C  N  Au Ag Pd                          

 Startparameter for this run:
   NWRITE =      2    write-flag & timer
   PREC   = n         normal or accurate (medium, high low for compatibility)
   ISTART =      0    job   : 0-new  1-cont  2-samecut
   ICHARG =      2    charge: 1-file 2-atom 10-const
   ISPIN  =      1    spin polarized calculation?
   LNONCOLLINEAR =      F non collinear calculations
   LSORBIT =      F    spin-orbit coupling
   INIWAV =      1    electr: 0-lowe 1-rand  2-diag
   LASPH  =      F    aspherical Exc in radial PAW
 Electronic Relaxation 1
   ENCUT  =  400.0 eV  29.40 Ry    5.42 a.u.  23.26 20.15 24.46*2*pi/ulx,y,z
   ENINI  =  400.0     initial cutoff
   ENAUG  =  644.9 eV  augmentation charge cutoff
   NELM   =    200;   NELMIN=  2; NELMDL= -5     # of ELM steps 
   EDIFF  = 0.1E-04   stopping-criterion for ELM
   LREAL  =      T    real-space projection
   NLSPLINE    = F    spline interpolate recip. space projectors
   LCOMPAT=      F    compatible to vasp.4.4
   GGA_COMPAT  = T    GGA compatible to vasp.4.4-vasp.4.6
   LMAXPAW     = -100 max onsite density
   LMAXMIX     =    2 max onsite mixed and CHGCAR
   VOSKOWN=      0    Vosko Wilk Nusair interpolation
   ROPT   =   -0.00050  -0.00050  -0.00050  -0.00050
   ROPT   =   -0.00050
 Ionic relaxation
   EDIFFG = -.5E-01   stopping-criterion for IOM
   NSW    =   1000    number of steps for IOM
   NBLOCK =      1;   KBLOCK =   1000    inner block; outer block 
   IBRION =      2    ionic relax: 0-MD 1-quasi-New 2-CG
   NFREE  =      1    steps in history (QN), initial steepest desc. (CG)
   ISIF   =      3    stress and relaxation
   IWAVPR =     11    prediction:  0-non 1-charg 2-wave 3-comb
   ISYM   =      2    0-nonsym 1-usesym 2-fastsym
   LCORR  =      T    Harris-Foulkes like correction to forces

   POTIM  = 0.1000    time-step for ionic-motion
   TEIN   =    0.0    initial temperature
   TEBEG  =    0.0;   TEEND  =   0.0 temperature during run
   SMASS  =  -3.00    Nose mass-parameter (am)
   estimated Nose-frequenzy (Omega)   =  0.10E-29 period in steps = 0.63E+47 mass=  -0.465E-26a.u.
   SCALEE = 1.0000    scale energy and forces
   NPACO  =    256;   APACO  = 10.0  distance and # of slots for P.C.
   PSTRESS=    0.0 pullay stress

  Mass of Ions in am
   POMASS =  12.01 14.00196.97107.87106.42
  Ionic Valenz
   ZVAL   =   4.00  5.00 11.00 11.00 10.00
  Atomic Wigner-Seitz radii
   RWIGS  =  -1.00 -1.00 -1.00 -1.00 -1.00
  virtual crystal weights 
   VCA    =   1.00  1.00  1.00  1.00  1.00
   NELECT =     288.0000    total number of electrons
   NUPDOWN=      -1.0000    fix difference up-down

 DOS related values:
   EMIN   =  10.00;   EMAX   =-10.00  energy-range for DOS
   EFERMI =   0.00
   ISMEAR =     0;   SIGMA  =   0.10  broadening in eV -4-tet -1-fermi 0-gaus

 Electronic relaxation 2 (details)
   IALGO  =     38    algorithm
   LDIAG  =      T    sub-space diagonalisation (order eigenvalues)
   LSUBROT=      F    optimize rotation matrix (better conditioning)
   TURBO    =      0    0=normal 1=particle mesh
   IRESTART =      0    0=no restart 2=restart with 2 vectors
   NREBOOT  =      0    no. of reboots
   NMIN     =      0    reboot dimension
   EREF     =   0.00    reference energy to select bands
   IMIX   =      4    mixing-type and parameters
     AMIX     =   0.40;   BMIX     =  1.00
     AMIX_MAG =   1.60;   BMIX_MAG =  1.00
     AMIN     =   0.10
     WC   =   100.;   INIMIX=   1;  MIXPRE=   1;  MAXMIX= -45

 Intra band minimization:
   WEIMIN = 0.0010     energy-eigenvalue tresh-hold
   EBREAK =  0.14E-07  absolut break condition
   DEPER  =   0.30     relativ break condition  

   TIME   =   0.40     timestep for ELM

  volume/ion in A,a.u.               =      44.82       302.45
  Fermi-wavevector in a.u.,A,eV,Ry     =   0.781816  1.477418  8.316374  0.611236
  Thomas-Fermi vector in A             =   1.885412
 
 Write flags
   LWAVE        =      F    write WAVECAR
   LDOWNSAMPLE  =      F    k-point downsampling of WAVECAR
   LCHARG       =      F    write CHGCAR
   LVTOT        =      F    write LOCPOT, total local potential
   LVHAR        =      F    write LOCPOT, Hartree potential only
   LELF         =      F    write electronic localiz. function (ELF)
   LORBIT       =      0    0 simple, 1 ext, 2 COOP (PROOUT), +10 PAW based schemes


 Dipole corrections
   LMONO  =      F    monopole corrections only (constant potential shift)
   LDIPOL =      T    correct potential (dipole corrections)
   IDIPOL =      3    1-x, 2-y, 3-z, 4-all directions 
   EPSILON=  1.0000000 bulk dielectric constant

 Exchange correlation treatment:
   GGA     =    --    GGA type
   LEXCH   =     8    internal setting for exchange type
   LIBXC   =     F    Libxc                    
   VOSKOWN =     0    Vosko Wilk Nusair interpolation
   LHFCALC =     F    Hartree Fock is set to
   LHFONE  =     F    Hartree Fock one center treatment
   AEXX    =    0.0000 exact exchange contribution

 Linear response parameters
   LEPSILON=     F    determine dielectric tensor
   LRPA    =     F    only Hartree local field effects (RPA)
   LNABLA  =     F    use nabla operator in PAW spheres
   LVEL    =     F    velocity operator in full k-point grid
   CSHIFT  =0.1000    complex shift for real part using Kramers Kronig
   OMEGAMAX=  -1.0    maximum frequency
   DEG_THRESHOLD= 0.2000000E-02 threshold for treating states as degnerate
   RTIME   =   -0.100 relaxation time in fs
  (WPLASMAI=    0.000 imaginary part of plasma frequency in eV, 0.658/RTIME)
   DFIELD  = 0.0000000 0.0000000 0.0000000 field for delta impulse in time
 
  Optional k-point grid parameters
   LKPOINTS_OPT  =     F    use optional k-point grid
   KPOINTS_OPT_MODE=     1    mode for optional k-point grid
 
 Orbital magnetization related:
   ORBITALMAG=     F  switch on orbital magnetization
   LCHIMAG   =     F  perturbation theory with respect to B field
   DQ        =  0.001000  dq finite difference perturbation B field
   LLRAUG    =     F  two centre corrections for induced B field



--------------------------------------------------------------------------------------------------------


 conjugate gradient relaxation of ions
 charge density and potential will be updated during run
 non-spin polarized calculation
 Variant of blocked Davidson
 Davidson routine will perform the subspace rotation
 perform sub-space diagonalisation
    after iterative eigenvector-optimisation
 modified Broyden-mixing scheme, WC =      100.0
 initial mixing is a Kerker type mixing with AMIX =  0.4000 and BMIX =      1.0000
 Hartree-type preconditioning will be used
 using additional bands           32
 real space projection scheme for non local part
 use partial core corrections
 calculate Harris-corrections to forces 
   (improved forces if not selfconsistent)
 use gradient corrections 
 use of overlap-Matrix (Vanderbilt PP)
 Gauss-broadening in eV      SIGMA  =   0.10


--------------------------------------------------------------------------------------------------------


  energy-cutoff  :      400.00
  volume of cell :     2644.26
      direct lattice vectors                 reciprocal lattice vectors
    14.265900000  0.000000000  0.000000000     0.070097225  0.000000000  0.000000000
     0.000000000 12.356996504  0.000000000     0.000000000  0.080925814  0.000000000
     0.000000000  0.000000000 15.000000000     0.000000000  0.000000000  0.066666667

  length of vectors
    14.265900000 12.356996504 15.000000000     0.070097225  0.080925814  0.066666667


 
 k-points in units of 2pi/SCALE and weight: K-POINTS                                
   0.00000000  0.00000000  0.00000000       0.250
   0.03504861  0.00000000  0.00000000       0.250
   0.00000000  0.04046291  0.00000000       0.250
   0.03504861  0.04046291  0.00000000       0.250
 
 k-points in reciprocal lattice and weights: K-POINTS                                
   0.00000000  0.00000000  0.00000000       0.250
   0.50000000  0.00000000  0.00000000       0.250
   0.00000000  0.50000000  0.00000000       0.250
   0.50000000  0.50000000  0.00000000       0.250
 
 position of ions in fractional coordinates (direct lattice) 
   0.06537593  0.40364000  0.13333000
   0.98097748  0.23494000  0.13333000
   0.22593437  0.39820000  0.13333000
   0.81543575  0.57710000  0.13333000
   0.14973747  0.23490000  0.13333000
   0.90517930  0.39797000  0.13333000
   0.56537593  0.40364000  0.13333000
   0.48097748  0.23494000  0.13333000
   0.72593437  0.39820000  0.13333000
   0.31543575  0.57710000  0.13333000
   0.64973747  0.23490000  0.13333000
   0.40517930  0.39797000  0.13333000
   0.81551954  0.90364000  0.13333000
   0.73112108  0.73494000  0.13333000
   0.97607797  0.89820000  0.13333000
   0.06529214  0.07710000  0.13333000
   0.89988107  0.73490000  0.13333000
   0.65532291  0.89797000  0.13333000
   0.31551954  0.90364000  0.13333000
   0.23112108  0.73494000  0.13333000
   0.47607797  0.89820000  0.13333000
   0.56529214  0.07710000  0.13333000
   0.39988107  0.73490000  0.13333000
   0.15532291  0.89797000  0.13333000
   0.98400093  0.45588000  0.13333000
   0.90111835  0.29021000  0.13333000
   0.14710595  0.45595000  0.13333000
   0.14840652  0.12714000  0.13333000
   0.98256150  0.12707000  0.13333000
   0.22992331  0.29008000  0.13333000
   0.06536362  0.29116000  0.13333000
   0.81553147  0.45774000  0.13333000
   0.48400093  0.45588000  0.13333000
   0.40111835  0.29021000  0.13333000
   0.64710595  0.45595000  0.13333000
   0.64840652  0.12714000  0.13333000
   0.48256150  0.12707000  0.13333000
   0.72992331  0.29008000  0.13333000
   0.56536362  0.29116000  0.13333000
   0.31553147  0.45774000  0.13333000
   0.73414454  0.95588000  0.13333000
   0.65126196  0.79021000  0.13333000
   0.89724956  0.95595000  0.13333000
   0.89855012  0.62714000  0.13333000
   0.73270510  0.62707000  0.13333000
   0.98006692  0.79008000  0.13333000
   0.81550723  0.79116000  0.13333000
   0.56567507  0.95774000  0.13333000
   0.23414454  0.95588000  0.13333000
   0.15126196  0.79021000  0.13333000
   0.39724956  0.95595000  0.13333000
   0.39855012  0.62714000  0.13333000
   0.23270510  0.62707000  0.13333000
   0.48006692  0.79008000  0.13333000
   0.31550723  0.79116000  0.13333000
   0.06567507  0.95774000  0.13333000
   0.57212639  0.73516025  0.21645333
   0.65206172  0.57443857  0.21306333
   0.48966112  0.57467425  0.20988333
 
 position of ions in cartesian coordinates  (Angst):
   0.93264649  4.98777807  1.99995000
  13.99452660  2.90315276  1.99995000
   3.22315710  4.92055601  1.99995000
  11.63292487  7.13122268  1.99995000
   2.13613972  2.90265848  1.99995000
  12.91319740  4.91771390  1.99995000
   8.06559649  4.98777807  1.99995000
   6.86157660  2.90315276  1.99995000
  10.35610710  4.92055601  1.99995000
   4.49997487  7.13122268  1.99995000
   9.26908972  2.90265848  1.99995000
   5.78024740  4.91771390  1.99995000
  11.63412016 11.16627632  1.99995000
  10.43010027  9.08165101  1.99995000
  13.92463077 11.09905426  1.99995000
   0.93145120  0.95272443  1.99995000
  12.83761339  9.08115673  1.99995000
   9.34877107 11.09621215  1.99995000
   4.50117016 11.16627632  1.99995000
   3.29715027  9.08165101  1.99995000
   6.79168077 11.09905426  1.99995000
   8.06440120  0.95272443  1.99995000
   5.70466339  9.08115673  1.99995000
   2.21582107 11.09621215  1.99995000
  14.03765893  5.63330757  1.99995000
  12.85526430  3.58612396  1.99995000
   2.09859884  5.63417256  1.99995000
   2.11715252  1.57106854  1.99995000
  14.01712405  1.57020355  1.99995000
   3.28006301  3.58451755  1.99995000
   0.93247093  3.59786310  1.99995000
  11.63429038  5.65629158  1.99995000
   6.90470893  5.63330757  1.99995000
   5.72231430  3.58612396  1.99995000
   9.23154884  5.63417256  1.99995000
   9.25010252  1.57106854  1.99995000
   6.88417405  1.57020355  1.99995000
  10.41301301  3.58451755  1.99995000
   8.06542093  3.59786310  1.99995000
   4.50134038  5.65629158  1.99995000
  10.47323260 11.81180582  1.99995000
   9.29083797  9.76462221  1.99995000
  12.80007251 11.81267081  1.99995000
  12.81862619  7.74956679  1.99995000
  10.45269772  7.74870180  1.99995000
  13.98153668  9.76301580  1.99995000
  11.63394461  9.77636135  1.99995000
   8.06986405 11.83478983  1.99995000
   3.34028260 11.81180582  1.99995000
   2.15788797  9.76462221  1.99995000
   5.66712251 11.81267081  1.99995000
   5.68567619  7.74956679  1.99995000
   3.31974772  7.74870180  1.99995000
   6.84858668  9.76301580  1.99995000
   4.50099461  9.77636135  1.99995000
   0.93691405 11.83478983  1.99995000
   8.16189789  9.08437268  3.24680000
   9.30224723  7.09833545  3.19595000
   6.98545654  7.10124768  3.14825000
 


--------------------------------------------------------------------------------------------------------


 k-point   1 :   0.0000 0.0000 0.0000  plane waves:   48095
 k-point   2 :   0.5000 0.0000 0.0000  plane waves:   47978
 k-point   3 :   0.0000 0.5000 0.0000  plane waves:   48108
 k-point   4 :   0.5000 0.5000 0.0000  plane waves:   48064

 maximum and minimum number of plane-waves per node :      4033     3972

 maximum number of plane-waves:     48108
 maximum index in each direction: 
   IXMAX=   23   IYMAX=   20   IZMAX=   24
   IXMIN=  -23   IYMIN=  -20   IZMIN=  -24


 real space projection operators:
  total allocation   :       7087.52 KBytes
  max/ min on nodes  :        613.75        522.27


 parallel 3D FFT for wavefunctions:
    minimum data exchange during FFTs selected (reduces bandwidth)
 parallel 3D FFT for charge:
    minimum data exchange during FFTs selected (reduces bandwidth)


 total amount of memory used by VASP MPI-rank0    53341. kBytes
=======================================================================

   base      :      30000. kBytes
   nonlr-proj:       3152. kBytes
   fftplans  :       2857. kBytes
   grid      :       5811. kBytes
   one-center:         77. kBytes
   wavefun   :      11444. kBytes
 
     INWAV:  cpu time      0.0000: real time      0.0002
 Broyden mixing: mesh for mixing (old mesh)
   NGX = 47   NGY = 41   NGZ = 49
  (NGX  =140   NGY  =120   NGZ  =160)
  gives a total of  94423 points

 initial charge density was supplied:
 charge density of overlapping atoms calculated
 number of electron     288.0000000 magnetization 
 keeping initial charge density in first step


--------------------------------------------------------------------------------------------------------


 Maximum index for non-local projection operator          237
 Maximum index for augmentation-charges          332 (set IRDMAX)


--------------------------------------------------------------------------------------------------------


 First call to EWALD:  gamma=   0.128
 Maximum number of real-space cells 3x 3x 3
 Maximum number of reciprocal cells 3x 3x 3

    FEWALD:  cpu time      0.0027: real time      0.0027


--------------------------------------- Iteration      1(   1)  ---------------------------------------


    POTLOK:  cpu time      0.0388: real time      0.0399
    SETDIJ:  cpu time      0.0059: real time      0.0066
     EDDAV:  cpu time      1.8241: real time      1.8325
       DOS:  cpu time      0.0008: real time      0.0008
    --------------------------------------------
      LOOP:  cpu time      1.8695: real time      1.8798

 eigenvalue-minimisations  :  1600
 total energy-change (2. order) : 0.2621238E+04  (-0.1018720E+05)
 number of electron     288.0000000 magnetization 
 augmentation part      288.0000000 magnetization 

 DIPCOR: dipole corrections for dipol
 direction  3 min pos   111,
 dipolmoment           0.000000      0.000000      0.000486 electrons x Angstroem
 Tr[quadrupol]     -9357.357363

 energy correction for charged system         0.000000 eV
 dipol+quadrupol energy correction           -0.000000 eV
 added-field ion interaction          0.006865 eV  (added to PSCEN)


 Free energy of the ion-electron system (eV)
  ---------------------------------------------------
  alpha Z        PSCENC =       155.84792990
  Ewald energy   TEWEN  =     31603.61067379
  -Hartree energ DENC   =    -43735.34844371
  -exchange      EXHF   =         0.00000000
  -V(xc)+E(xc)   XCENC  =       935.37287468
  PAW double counting   =     11846.67449192   -11767.02918859
  entropy T*S    EENTRO =        -0.11181844
  eigenvalues    EBANDS =     -1185.11481826
  atomic energy  EATOM  =     14767.33628989
  Solvation  Ediel_sol  =         0.00000000
  ---------------------------------------------------
  free energy    TOTEN  =      2621.23799119 eV

  energy without entropy =     2621.34980963  energy(sigma->0) =     2621.29390041


--------------------------------------------------------------------------------------------------------




--------------------------------------- Iteration      1(   2)  ---------------------------------------


     EDDAV:  cpu time      2.1099: real time      2.1113
       DOS:  cpu time      0.0007: real time      0.0007
    --------------------------------------------
      LOOP:  cpu time      2.1106: real time      2.1119

 eigenvalue-minimisations  :  2040
 total energy-change (2. order) :-0.2606593E+04  (-0.2483366E+04)
 number of electron     288.0000000 magnetization 
 augmentation part      288.0000000 magnetization 

 DIPCOR: dipole corrections for dipol
 direction  3 min pos   111,
 dipolmoment           0.000000      0.000000      0.000486 electrons x Angstroem
 Tr[quadrupol]     -9357.357363

 energy correction for charged system         0.000000 eV
 dipol+quadrupol energy correction           -0.000000 eV
 added-field ion interaction          0.006865 eV  (added to PSCEN)


 Free energy of the ion-electron system (eV)
  ---------------------------------------------------
  alpha Z        PSCENC =       155.84792990
  Ewald energy   TEWEN  =     31603.61067379
  -Hartree energ DENC   =    -43735.34844371
  -exchange      EXHF   =         0.00000000
  -V(xc)+E(xc)   XCENC  =       935.37287468
  PAW double counting   =     11846.67449192   -11767.02918859
  entropy T*S    EENTRO =        -0.03300350
  eigenvalues    EBANDS =     -3791.78634802
  atomic energy  EATOM  =     14767.33628989
  Solvation  Ediel_sol  =         0.00000000
  ---------------------------------------------------
  free energy    TOTEN  =        14.64527637 eV

  energy without entropy =       14.67827987  energy(sigma->0) =       14.66177812


--------------------------------------------------------------------------------------------------------




--------------------------------------- Iteration      1(   3)  ---------------------------------------


     EDDAV:  cpu time      1.9039: real time      1.9049
       DOS:  cpu time      0.0008: real time      0.0008
    --------------------------------------------
      LOOP:  cpu time      1.9047: real time      1.9057

 eigenvalue-minimisations  :  1712
 total energy-change (2. order) :-0.5035295E+03  (-0.4979614E+03)
 number of electron     288.0000000 magnetization 
 augmentation part      288.0000000 magnetization 

 DIPCOR: dipole corrections for dipol
 direction  3 min pos   111,
 dipolmoment           0.000000      0.000000      0.000486 electrons x Angstroem
 Tr[quadrupol]     -9357.357363

 energy correction for charged system         0.000000 eV
 dipol+quadrupol energy correction           -0.000000 eV
 added-field ion interaction          0.006865 eV  (added to PSCEN)


 Free energy of the ion-electron system (eV)
  ---------------------------------------------------
  alpha Z        PSCENC =       155.84792990
  Ewald energy   TEWEN  =     31603.61067379
  -Hartree energ DENC   =    -43735.34844371
  -exchange      EXHF   =         0.00000000
  -V(xc)+E(xc)   XCENC  =       935.37287468
  PAW double counting   =     11846.67449192   -11767.02918859
  entropy T*S    EENTRO =        -0.11015465
  eigenvalues    EBANDS =     -4295.23866014
  atomic energy  EATOM  =     14767.33628989
  Solvation  Ediel_sol  =         0.00000000
  ---------------------------------------------------
  free energy    TOTEN  =      -488.88418690 eV

  energy without entropy =     -488.77403225  energy(sigma->0) =     -488.82910958


--------------------------------------------------------------------------------------------------------




--------------------------------------- Iteration      1(   4)  ---------------------------------------


     EDDAV:  cpu time      1.7521: real time      1.7595
       DOS:  cpu time      0.0008: real time      0.0008
    --------------------------------------------
      LOOP:  cpu time      1.7529: real time      1.7603

 eigenvalue-minimisations  :  1624
 total energy-change (2. order) :-0.1800084E+02  (-0.1729747E+02)
 number of electron     288.0000000 magnetization 
 augmentation part      288.0000000 magnetization 

 DIPCOR: dipole corrections for dipol
 direction  3 min pos   111,
 dipolmoment           0.000000      0.000000      0.000486 electrons x Angstroem
 Tr[quadrupol]     -9357.357363

 energy correction for charged system         0.000000 eV
 dipol+quadrupol energy correction           -0.000000 eV
 added-field ion interaction          0.006865 eV  (added to PSCEN)


 Free energy of the ion-electron system (eV)
  ---------------------------------------------------
  alpha Z        PSCENC =       155.84792990
  Ewald energy   TEWEN  =     31603.61067379
  -Hartree energ DENC   =    -43735.34844371
  -exchange      EXHF   =         0.00000000
  -V(xc)+E(xc)   XCENC  =       935.37287468
  PAW double counting   =     11846.67449192   -11767.02918859
  entropy T*S    EENTRO =        -0.13325329
  eigenvalues    EBANDS =     -4313.21639842
  atomic energy  EATOM  =     14767.33628989
  Solvation  Ediel_sol  =         0.00000000
  ---------------------------------------------------
  free energy    TOTEN  =      -506.88502383 eV

  energy without entropy =     -506.75177054  energy(sigma->0) =     -506.81839718


--------------------------------------------------------------------------------------------------------




--------------------------------------- Iteration      1(   5)  ---------------------------------------


     EDDAV:  cpu time      2.0213: real time      2.0262
       DOS:  cpu time      0.0007: real time      0.0007
    CHARGE:  cpu time      0.0485: real time      0.0486
    MIXING:  cpu time      0.0020: real time      0.0022
    --------------------------------------------
      LOOP:  cpu time      2.0725: real time      2.0776

 eigenvalue-minimisations  :  1952
 total energy-change (2. order) :-0.7306512E+00  (-0.7169044E+00)
 number of electron     287.9999906 magnetization 
 augmentation part       23.5420524 magnetization 

 DIPCOR: dipole corrections for dipol
 direction  3 min pos   111,
 dipolmoment           0.000000      0.000000      0.000486 electrons x Angstroem
 Tr[quadrupol]     -9357.357363

 energy correction for charged system         0.000000 eV
 dipol+quadrupol energy correction           -0.000000 eV
 added-field ion interaction          0.006865 eV  (added to PSCEN)


 Broyden mixing:
  rms(total) = 0.56097E+01    rms(broyden)= 0.56067E+01
  rms(prec ) = 0.60773E+01
  weight for this iteration     100.00

 Free energy of the ion-electron system (eV)
  ---------------------------------------------------
  alpha Z        PSCENC =       155.84792990
  Ewald energy   TEWEN  =     31603.61067379
  -Hartree energ DENC   =    -43735.34844371
  -exchange      EXHF   =         0.00000000
  -V(xc)+E(xc)   XCENC  =       935.37287468
  PAW double counting   =     11846.67449192   -11767.02918859
  entropy T*S    EENTRO =        -0.13357819
  eigenvalues    EBANDS =     -4313.94672472
  atomic energy  EATOM  =     14767.33628989
  Solvation  Ediel_sol  =         0.00000000
  ---------------------------------------------------
  free energy    TOTEN  =      -507.61567502 eV

  energy without entropy =     -507.48209684  energy(sigma->0) =     -507.54888593


--------------------------------------------------------------------------------------------------------




--------------------------------------- Iteration      1(   6)  ---------------------------------------


    POTLOK:  cpu time      0.0319: real time      0.0323
    SETDIJ:  cpu time      0.0046: real time      0.0050
     EDDAV:  cpu time      1.7276: real time      1.7348
       DOS:  cpu time      0.0028: real time      0.0028
    CHARGE:  cpu time      0.0545: real time      0.0545
    MIXING:  cpu time      0.0032: real time      0.0033
    --------------------------------------------
      LOOP:  cpu time      1.8246: real time      1.8327

 eigenvalue-minimisations  :  1608
 total energy-change (2. order) : 0.3168862E+02  (-0.1231342E+02)
 number of electron     287.9999879 magnetization 
 augmentation part       24.3510181 magnetization 

 DIPCOR: dipole corrections for dipol
 direction  3 min pos   104,
 dipolmoment           0.000000      0.000000     -0.392774 electrons x Angstroem
 Tr[quadrupol]     -9359.044630

 energy correction for charged system         0.000000 eV
 dipol+quadrupol energy correction           -0.005564 eV
 added-field ion interaction         -0.188696 eV  (added to PSCEN)


 Broyden mixing:
  rms(total) = 0.50072E+01    rms(broyden)= 0.50065E+01
  rms(prec ) = 0.51336E+01
  weight for this iteration     100.00

 eigenvalues of (default mixing * dielectric matrix)
  average eigenvalue GAMMA=   0.7227
  0.7227

 Free energy of the ion-electron system (eV)
  ---------------------------------------------------
  alpha Z        PSCENC =       155.64680530
  Ewald energy   TEWEN  =     31603.61067379
  -Hartree energ DENC   =    -44029.82974093
  -exchange      EXHF   =         0.00000000
  -V(xc)+E(xc)   XCENC  =       953.72266023
  PAW double counting   =     18056.36129242   -17988.81887228
  entropy T*S    EENTRO =        -0.00000031
  eigenvalues    EBANDS =     -3993.95615927
  atomic energy  EATOM  =     14767.33628989
  Solvation  Ediel_sol  =         0.00000000
  ---------------------------------------------------
  free energy    TOTEN  =      -475.92705117 eV

  energy without entropy =     -475.92705086  energy(sigma->0) =     -475.92705101


--------------------------------------------------------------------------------------------------------




--------------------------------------- Iteration      1(   7)  ---------------------------------------


    POTLOK:  cpu time      0.0421: real time      0.0435
    SETDIJ:  cpu time      0.0044: real time      0.0048
     EDDAV:  cpu time      1.7493: real time      1.7502
       DOS:  cpu time      0.0007: real time      0.0007
    CHARGE:  cpu time      0.0474: real time      0.0474
    MIXING:  cpu time      0.0014: real time      0.0014
    --------------------------------------------
      LOOP:  cpu time      1.8453: real time      1.8481

 eigenvalue-minimisations  :  1592
 total energy-change (2. order) : 0.4562594E+01  (-0.3102004E+01)
 number of electron     287.9999880 magnetization 
 augmentation part       22.6806125 magnetization 

 DIPCOR: dipole corrections for dipol
 direction  3 min pos   101,
 dipolmoment           0.000000      0.000000     -0.154079 electrons x Angstroem
 Tr[quadrupol]     -9359.646259

 energy correction for charged system         0.000000 eV
 dipol+quadrupol energy correction           -0.000856 eV
 added-field ion interaction          0.826244 eV  (added to PSCEN)


 Broyden mixing:
  rms(total) = 0.20673E+01    rms(broyden)= 0.20669E+01
  rms(prec ) = 0.21541E+01
  weight for this iteration     100.00

 eigenvalues of (default mixing * dielectric matrix)
  average eigenvalue GAMMA=   1.0834
  1.4788  0.6880

 Free energy of the ion-electron system (eV)
  ---------------------------------------------------
  alpha Z        PSCENC =       156.66645304
  Ewald energy   TEWEN  =     31603.61067379
  -Hartree energ DENC   =    -44169.98502361
  -exchange      EXHF   =         0.00000000
  -V(xc)+E(xc)   XCENC  =       958.65578102
  PAW double counting   =     21908.21577257   -21846.07892098
  entropy T*S    EENTRO =        -0.06711022
  eigenvalues    EBANDS =     -3849.71837268
  atomic energy  EATOM  =     14767.33628989
  Solvation  Ediel_sol  =         0.00000000
  ---------------------------------------------------
  free energy    TOTEN  =      -471.36445718 eV

  energy without entropy =     -471.29734696  energy(sigma->0) =     -471.33090207


--------------------------------------------------------------------------------------------------------




--------------------------------------- Iteration      1(   8)  ---------------------------------------


    POTLOK:  cpu time      0.0323: real time      0.0332
    SETDIJ:  cpu time      0.0046: real time      0.0048
     EDDAV:  cpu time      1.7438: real time      1.7446
       DOS:  cpu time      0.0007: real time      0.0007
    CHARGE:  cpu time      0.0464: real time      0.0464
    MIXING:  cpu time      0.0013: real time      0.0013
    --------------------------------------------
      LOOP:  cpu time      1.8290: real time      1.8310

 eigenvalue-minimisations  :  1600
 total energy-change (2. order) : 0.1405004E+01  (-0.9688010E+00)
 number of electron     287.9999882 magnetization 
 augmentation part       23.2038385 magnetization 

 DIPCOR: dipole corrections for dipol
 direction  3 min pos    99,
 dipolmoment           0.000000      0.000000     -0.032704 electrons x Angstroem
 Tr[quadrupol]     -9360.522350

 energy correction for charged system         0.000000 eV
 dipol+quadrupol energy correction           -0.000039 eV
 added-field ion interaction          0.302766 eV  (added to PSCEN)


 Broyden mixing:
  rms(total) = 0.12682E+01    rms(broyden)= 0.12679E+01
  rms(prec ) = 0.13892E+01
  weight for this iteration     100.00

 eigenvalues of (default mixing * dielectric matrix)
  average eigenvalue GAMMA=   1.0953
  1.9418  0.6720  0.6720

 Free energy of the ion-electron system (eV)
  ---------------------------------------------------
  alpha Z        PSCENC =       156.14379274
  Ewald energy   TEWEN  =     31603.61067379
  -Hartree energ DENC   =    -44263.73856239
  -exchange      EXHF   =         0.00000000
  -V(xc)+E(xc)   XCENC  =       962.68223645
  PAW double counting   =     26987.71619448   -26932.16510653
  entropy T*S    EENTRO =        -0.08648834
  eigenvalues    EBANDS =     -3751.45848290
  atomic energy  EATOM  =     14767.33628989
  Solvation  Ediel_sol  =         0.00000000
  ---------------------------------------------------
  free energy    TOTEN  =      -469.95945281 eV

  energy without entropy =     -469.87296448  energy(sigma->0) =     -469.91620865


--------------------------------------------------------------------------------------------------------




--------------------------------------- Iteration      1(   9)  ---------------------------------------


    POTLOK:  cpu time      0.0311: real time      0.0313
    SETDIJ:  cpu time      0.0034: real time      0.0034
     EDDAV:  cpu time      1.7373: real time      1.7382
       DOS:  cpu time      0.0007: real time      0.0007
    CHARGE:  cpu time      0.0466: real time      0.0466
    MIXING:  cpu time      0.0013: real time      0.0013
    --------------------------------------------
      LOOP:  cpu time      1.8204: real time      1.8215

 eigenvalue-minimisations  :  1608
 total energy-change (2. order) : 0.1009568E+01  (-0.5230000E+00)
 number of electron     287.9999884 magnetization 
 augmentation part       22.7636429 magnetization 

 DIPCOR: dipole corrections for dipol
 direction  3 min pos   104,
 dipolmoment           0.000000      0.000000      0.014845 electrons x Angstroem
 Tr[quadrupol]     -9360.982877

 energy correction for charged system         0.000000 eV
 dipol+quadrupol energy correction           -0.000008 eV
 added-field ion interaction          0.007132 eV  (added to PSCEN)


 Broyden mixing:
  rms(total) = 0.54840E+00    rms(broyden)= 0.54800E+00
  rms(prec ) = 0.60646E+00
  weight for this iteration     100.00

 eigenvalues of (default mixing * dielectric matrix)
  average eigenvalue GAMMA=   1.1500
  2.4540  0.8255  0.8255  0.4952

 Free energy of the ion-electron system (eV)
  ---------------------------------------------------
  alpha Z        PSCENC =       155.84818900
  Ewald energy   TEWEN  =     31603.61067379
  -Hartree energ DENC   =    -44324.87180327
  -exchange      EXHF   =         0.00000000
  -V(xc)+E(xc)   XCENC  =       964.81330193
  PAW double counting   =     29502.10914336   -29449.25633964
  entropy T*S    EENTRO =        -0.08287624
  eigenvalues    EBANDS =     -3688.45646365
  atomic energy  EATOM  =     14767.33628989
  Solvation  Ediel_sol  =         0.00000000
  ---------------------------------------------------
  free energy    TOTEN  =      -468.94988484 eV

  energy without entropy =     -468.86700859  energy(sigma->0) =     -468.90844671


--------------------------------------------------------------------------------------------------------




--------------------------------------- Iteration      1(  10)  ---------------------------------------


    POTLOK:  cpu time      0.0313: real time      0.0315
    SETDIJ:  cpu time      0.0034: real time      0.0034
     EDDAV:  cpu time      1.7034: real time      1.7043
       DOS:  cpu time      0.0009: real time      0.0009
    CHARGE:  cpu time      0.0467: real time      0.0467
    MIXING:  cpu time      0.0014: real time      0.0014
    --------------------------------------------
      LOOP:  cpu time      1.7871: real time      1.7882

 eigenvalue-minimisations  :  1568
 total energy-change (2. order) : 0.2093763E+00  (-0.9572412E-01)
 number of electron     287.9999883 magnetization 
 augmentation part       22.8441341 magnetization 

 DIPCOR: dipole corrections for dipol
 direction  3 min pos   106,
 dipolmoment           0.000000      0.000000      0.077447 electrons x Angstroem
 Tr[quadrupol]     -9361.739993

 energy correction for charged system         0.000000 eV
[...]
    147      -1.5829      0.00000
    148      -1.5536      0.00000
    149      -1.3393      0.00000
    150      -1.0462      0.00000
    151      -1.0109      0.00000
    152      -0.9583      0.00000
    153      -0.8404      0.00000
    154      -0.4409      0.00000
    155      -0.2533      0.00000
    156      -0.2309      0.00000
    157      -0.1919      0.00000
    158      -0.1828      0.00000
    159       1.0099      0.00000
    160       1.1671      0.00000
    161       1.3416      0.00000
    162       1.4019      0.00000
    163       1.4921      0.00000
    164       1.7207      0.00000
    165       1.7964      0.00000
    166       1.9112      0.00000
    167       1.9393      0.00000
    168       2.0036      0.00000
    169       2.0398      0.00000
    170       2.1194      0.00000
    171       2.2052      0.00000
    172       2.2422      0.00000
    173       2.2859      0.00000
    174       2.5003      0.00000
    175       2.5552      0.00000
    176       2.5563      0.00000


--------------------------------------------------------------------------------------------------------


 soft charge-density along one line, spin component           1
         0         1         2         3         4         5         6         7         8         9
 total charge-density along one line
 
 pseudopotential strength for first ion, spin component:           1
 10.349  13.765  -0.003   0.000   0.000   0.008  -0.001  -0.000
 13.765  18.309  -0.004   0.000   0.000   0.011  -0.001  -0.000
 -0.003  -0.004  -4.477   0.000  -0.000   8.761  -0.000   0.000
  0.000   0.000   0.000  -4.464   0.000  -0.000   8.739  -0.000
  0.000   0.000  -0.000   0.000  -4.475   0.000  -0.000   8.754
  0.008   0.011   8.761  -0.000   0.000 -19.288   0.001  -0.001
 -0.001  -0.001  -0.000   8.739  -0.000   0.001 -19.254   0.000
 -0.000  -0.000   0.000  -0.000   8.754  -0.001   0.000 -19.270
 total augmentation occupancy for first ion, spin component:           1
  9.025  -4.278   0.048  -0.018   0.024   0.005  -0.003   0.004
 -4.278   2.160   0.006   0.008  -0.012  -0.000   0.002  -0.002
  0.048   0.006   1.705  -0.011   0.008   0.182  -0.002   0.001
 -0.018   0.008  -0.011   1.190  -0.005  -0.002   0.075  -0.001
  0.024  -0.012   0.008  -0.005   1.960   0.001  -0.001   0.196
  0.005  -0.000   0.182  -0.002   0.001   0.021  -0.000   0.000
 -0.003   0.002  -0.002   0.075  -0.001  -0.000   0.005  -0.000
  0.004  -0.002   0.001  -0.001   0.196   0.000  -0.000   0.023


------------------------ aborting loop because EDIFF is reached ----------------------------------------


    CHARGE:  cpu time      0.0462: real time      0.0462
    FORLOC:  cpu time      0.0139: real time      0.0139
    FORNL :  cpu time      0.2661: real time      0.2661
    STRESS:  cpu time      0.7753: real time      0.7822
    FORCOR:  cpu time      0.0447: real time      0.0447
    FORHAR:  cpu time      0.0193: real time      0.0193
    MIXING:  cpu time      0.0014: real time      0.0014
    OFIELD:  cpu time      0.0000: real time      0.0000

  FORCE on cell =-STRESS in cart. coord.  units (eV):
  Direction    XX          YY          ZZ          XY          YZ          ZX
  --------------------------------------------------------------------------------------
  Alpha Z   157.03028   157.03028   157.03028
  Ewald   37312.43587 37610.79329-46090.85052   -84.00120   382.81605   164.15194
  Hartree 38380.44991 38621.35965-35182.53355   -50.86248   241.85974   103.48595
  E(xc)   -1202.67803 -1202.30161 -1235.87911    -0.16448     0.78652     0.38151
  Local  -79281.71423-79812.85996 77102.64918   131.84984  -614.84973  -263.18961
  n-local  -529.55958  -532.68296  -495.19381    -0.38591    -1.98937    -0.46852
  augment   254.41285   253.80478   260.74118     0.89745    -1.22708    -0.77831
  Kinetic  4909.71668  4903.36932  5465.04151     3.12150    -7.04696    -3.73265
  Fock        0.00000     0.00000     0.00000     0.00000     0.00000     0.00000
  -------------------------------------------------------------------------------------
  Total       0.09375    -1.48722   -18.99483     0.45472     0.34918    -0.14970
  in kB       0.05724    -0.90799   -11.59696     0.27762     0.21318    -0.09139
  external pressure =       -4.15 kB  Pullay stress =        0.00 kB


 VOLUME and BASIS-vectors are now :
 -----------------------------------------------------------------------------
  energy-cutoff  :      400.00
  volume of cell :     2624.23
      direct lattice vectors                 reciprocal lattice vectors
    14.215299563  0.000000000  0.000000000     0.070346741  0.000000000  0.000000000
     0.000000000 12.307067899  0.000000000     0.000000000  0.081254122  0.000000000
     0.000000000  0.000000000 15.000000000     0.000000000  0.000000000  0.066666667

  length of vectors
    14.215299563 12.307067899 15.000000000     0.070346741  0.081254122  0.066666667


 FORCES acting on ions
    electron-ion (+dipol)            ewald-force                    non-local-force                 convergence-correction
 -----------------------------------------------------------------------------------------------
   0.126E+01 -.616E+02 0.303E+01   -.135E+01 0.645E+02 -.324E+01   -.887E-01 -.281E+01 0.147E+00   -.266E-03 -.309E-02 -.149E-02
   0.515E+02 0.387E+02 0.221E+01   -.540E+02 -.397E+02 -.227E+01   0.247E+01 0.148E+01 0.355E-01   0.170E-02 -.362E-03 -.322E-03
   -.470E+01 -.148E+01 0.239E+02   0.176E+01 -.490E+00 -.238E+02   0.300E+01 0.175E+01 -.225E+00   -.502E-03 -.797E-03 -.307E-02
   -.732E+02 0.486E+02 0.750E+02   0.734E+02 -.453E+02 -.750E+02   -.169E+00 -.351E+01 0.263E-02   -.317E-02 -.753E-02 -.230E-02
   -.505E+02 0.391E+02 0.297E+01   0.529E+02 -.402E+02 -.314E+01   -.252E+01 0.136E+01 0.131E+00   -.141E-02 -.197E-02 -.129E-02
   0.859E+01 -.383E+01 0.200E+02   -.563E+01 0.196E+01 -.199E+02   -.310E+01 0.179E+01 -.124E+00   -.150E-02 -.863E-03 -.169E-02
   -.381E+01 0.191E+02 0.103E+03   0.424E+01 -.168E+02 -.102E+03   -.590E-02 -.267E+01 -.739E+00   -.782E-03 0.325E-02 0.855E-03
   0.720E+02 0.711E+02 0.167E+02   -.742E+02 -.732E+02 -.164E+02   0.234E+01 0.152E+01 -.409E+00   0.198E-02 0.677E-02 -.274E-02
   -.817E+02 0.346E+02 0.725E+02   0.791E+02 -.362E+02 -.728E+02   0.261E+01 0.185E+01 0.360E+00   -.144E-02 0.403E-03 -.535E-03
   0.807E+02 0.471E+02 0.673E+02   -.810E+02 -.437E+02 -.674E+02   0.303E+00 -.329E+01 0.157E+00   0.164E-02 -.308E-02 -.113E-02
   -.723E+02 0.666E+02 0.245E+02   0.747E+02 -.686E+02 -.242E+02   -.226E+01 0.170E+01 -.372E+00   -.162E-02 0.520E-02 -.429E-02
   0.833E+02 0.403E+02 0.622E+02   -.810E+02 -.419E+02 -.624E+02   -.242E+01 0.183E+01 0.398E+00   0.314E-02 -.240E-02 0.117E-02
   -.346E+02 -.979E+02 0.124E+02   0.346E+02 0.101E+03 -.126E+02   -.523E-01 -.293E+01 0.326E+00   -.413E-03 -.187E-02 -.141E-02
   -.829E+01 -.416E+01 0.122E+03   0.580E+01 0.279E+01 -.123E+03   0.258E+01 0.108E+01 0.190E+00   -.357E-02 0.231E-03 -.553E-02
   -.512E+02 -.341E+02 0.787E+01   0.486E+02 0.328E+02 -.808E+01   0.291E+01 0.162E+01 0.265E+00   -.236E-02 -.277E-02 0.821E-03
   0.754E-01 0.443E+02 0.710E+01   -.842E-01 -.414E+02 -.697E+01   -.245E-01 -.340E+01 -.125E+00   0.203E-02 0.101E-01 -.584E-03
   -.998E+02 0.231E+02 0.136E+02   0.102E+03 -.247E+02 -.136E+02   -.260E+01 0.127E+01 0.167E+00   0.101E-03 0.832E-03 -.107E-02
   0.115E+02 -.727E+02 0.715E+02   -.890E+01 0.711E+02 -.713E+02   -.284E+01 0.184E+01 -.281E+00   -.488E-02 0.528E-03 -.401E-02
   0.347E+02 -.972E+02 0.157E+02   -.350E+02 0.100E+03 -.158E+02   0.143E+00 -.286E+01 0.108E+00   0.172E-02 -.160E-02 -.257E-02
   0.102E+03 0.188E+02 0.909E+01   -.105E+03 -.201E+02 -.910E+01   0.254E+01 0.131E+01 -.121E-03   0.210E-02 -.144E-02 -.160E-02
   -.111E+02 -.748E+02 0.691E+02   0.826E+01 0.730E+02 -.690E+02   0.285E+01 0.167E+01 -.185E+00   0.314E-02 -.163E-04 -.379E-02
   -.145E+01 0.307E+02 0.223E+02   0.144E+01 -.275E+02 -.225E+02   -.579E-01 -.335E+01 0.159E+00   -.998E-04 0.264E-02 -.350E-02
   0.133E+02 -.113E+02 0.108E+03   -.109E+02 0.103E+02 -.108E+03   -.257E+01 0.110E+01 -.161E+00   0.547E-02 -.105E-02 -.471E-02
   0.523E+02 -.372E+02 0.119E+02   -.495E+02 0.358E+02 -.120E+02   -.309E+01 0.164E+01 0.148E+00   0.431E-02 -.171E-02 0.605E-04
   -.508E+02 -.175E+03 0.144E+02   0.511E+02 0.212E+03 -.147E+02   -.247E+00 -.375E+02 0.153E+00   -.245E-02 -.326E-02 -.326E-02
   0.122E+03 0.136E+03 0.148E+02   -.155E+03 -.155E+03 -.152E+02   0.327E+02 0.189E+02 0.312E+00   0.658E-03 0.353E-02 -.311E-02
   0.478E+02 -.175E+03 0.202E+02   -.476E+02 0.213E+03 -.207E+02   -.708E-01 -.375E+02 0.386E+00   0.162E-02 -.362E-02 -.582E-02
   -.167E+03 0.743E+02 0.761E+01   0.199E+03 -.936E+02 -.780E+01   -.324E+02 0.190E+02 0.128E+00   -.421E-02 0.852E-02 -.129E-02
   0.166E+03 0.747E+02 0.114E+02   -.198E+03 -.941E+02 -.119E+02   0.323E+02 0.192E+02 0.497E+00   0.467E-02 0.898E-02 -.129E-02
   -.124E+03 0.135E+03 0.230E+02   0.156E+03 -.154E+03 -.237E+02   -.327E+02 0.187E+02 0.594E+00   -.221E-02 -.870E-03 -.657E-02
   -.614E+00 0.115E+02 -.490E+01   0.723E+00 -.120E+02 0.548E+01   -.398E-01 0.331E+00 -.500E+00   0.708E-03 -.354E-03 0.137E-02
   -.722E+02 0.407E+02 0.757E+02   0.730E+02 -.409E+02 -.766E+02   -.471E+00 -.124E-01 0.105E+01   -.694E-02 -.566E-03 -.267E-02
   0.194E+02 -.649E+02 0.178E+03   -.206E+02 0.984E+02 -.183E+03   0.566E+00 -.334E+02 0.596E+01   0.120E-01 -.504E-02 0.723E-02
   0.183E+03 0.164E+03 -.198E+02   -.215E+03 -.183E+03 0.242E+02   0.319E+02 0.185E+02 -.446E+01   0.594E-02 0.672E-02 0.214E-02
   -.209E+02 -.832E+02 0.155E+03   0.212E+02 0.119E+03 -.157E+03   -.168E+00 -.357E+02 0.198E+01   -.270E-02 -.175E-02 0.654E-02
   -.187E+03 0.713E+02 -.608E-01   0.219E+03 -.901E+02 0.220E+01   -.325E+02 0.190E+02 -.224E+01   -.294E-02 0.330E-02 -.251E-02
   0.189E+03 0.678E+02 0.135E+02   -.222E+03 -.860E+02 -.128E+02   0.326E+02 0.186E+02 -.743E+00   0.463E-02 0.288E-03 -.314E-02
   -.180E+03 0.164E+03 0.201E+02   0.213E+03 -.184E+03 -.180E+02   -.322E+02 0.189E+02 -.219E+01   -.336E-02 0.825E-02 -.474E-02
   0.117E+00 0.655E+02 0.829E+02   -.307E+00 -.667E+02 -.845E+02   0.127E+00 0.138E+01 0.141E+01   0.260E-03 0.261E-02 -.833E-02
   0.730E+02 0.421E+02 0.911E+02   -.732E+02 -.421E+02 -.938E+02   0.177E+00 -.151E+00 0.279E+01   0.342E-02 0.930E-03 -.324E-02
   -.627E+02 -.226E+03 -.228E+02   0.623E+02 0.263E+03 0.289E+02   0.897E+00 -.370E+02 -.608E+01   -.865E-02 0.710E-03 0.177E-02
   0.993E+02 0.406E+02 0.240E+03   -.131E+03 -.588E+02 -.249E+03   0.322E+02 0.181E+02 0.856E+01   -.811E-02 0.684E-03 -.107E-01
   -.729E+00 -.204E+03 -.184E+01   0.861E+00 0.242E+03 0.293E+01   -.204E-01 -.380E+02 -.111E+01   -.628E-02 0.253E-02 0.233E-02
   -.235E+03 0.631E+02 -.590E+01   0.268E+03 -.813E+02 0.104E+02   -.325E+02 0.186E+02 -.443E+01   -.157E-02 -.866E-02 0.784E-03
   0.737E+02 0.523E+02 0.223E+03   -.105E+03 -.701E+02 -.230E+03   0.312E+02 0.183E+02 0.660E+01   -.231E-02 -.153E-01 -.513E-02
   -.173E+03 0.100E+03 -.678E+01   0.206E+03 -.118E+03 0.830E+01   -.331E+02 0.184E+02 -.154E+01   -.316E-02 -.525E-02 0.315E-02
   -.629E+02 -.351E+02 0.359E+02   0.629E+02 0.349E+02 -.347E+02   -.126E+00 0.748E-01 -.138E+01   0.221E-02 0.252E-02 -.527E-02
   0.856E+00 -.668E+02 0.717E+02   -.903E+00 0.674E+02 -.721E+02   0.396E-01 -.354E+00 0.440E+00   -.185E-02 -.664E-02 -.665E-02
   -.110E+01 -.205E+03 -.486E+01   0.136E+01 0.242E+03 0.653E+01   0.740E-01 -.376E+02 -.166E+01   -.113E-02 -.845E-03 0.234E-02
   0.170E+03 0.104E+03 0.141E+02   -.203E+03 -.123E+03 -.141E+02   0.323E+02 0.184E+02 0.147E-01   0.288E-02 0.237E-02 0.558E-03
   0.628E+02 -.228E+03 0.348E+01   -.626E+02 0.265E+03 0.973E-01   -.538E+00 -.371E+02 -.352E+01   0.743E-02 -.271E-02 -.289E-02
   -.530E+02 0.442E+02 0.216E+03   0.822E+02 -.620E+02 -.224E+03   -.293E+02 0.173E+02 0.824E+01   0.346E-02 0.384E-04 -.516E-02
   0.236E+03 0.665E+02 -.244E+02   -.268E+03 -.851E+02 0.293E+02   0.319E+02 0.183E+02 -.491E+01   0.414E-02 -.222E-02 0.205E-02
   -.989E+02 0.336E+02 0.193E+03   0.131E+03 -.518E+02 -.198E+03   -.321E+02 0.186E+02 0.506E+01   0.852E-03 -.536E-02 -.777E-02
   0.667E+02 -.388E+02 0.461E+02   -.675E+02 0.391E+02 -.456E+02   0.835E+00 -.200E+00 -.612E+00   0.304E-02 -.135E-02 -.653E-02
   -.164E-01 -.586E+01 0.210E+02   0.296E+00 0.562E+01 -.218E+02   -.465E+00 0.111E+00 0.102E+01   0.437E-02 0.610E-02 -.155E-02
   0.191E+02 -.326E+03 -.969E+03   -.188E+02 0.321E+03 0.969E+03   -.469E+00 0.588E+01 0.579E+00   0.461E-02 -.184E-02 -.848E-01
   -.274E+03 0.152E+03 -.909E+03   0.267E+03 -.148E+03 0.909E+03   0.712E+01 -.459E+01 -.853E+00   -.463E-03 -.938E-02 -.222E-01
   0.212E+03 0.997E+02 -.757E+03   -.209E+03 -.980E+02 0.756E+03   -.303E+01 -.149E+01 0.481E+00   -.270E-02 -.163E-01 -.708E-02
 -----------------------------------------------------------------------------------------------
   -.444E+01 -.417E+01 -.985E+01   0.284E-12 -.284E-13 0.102E-11   0.445E+01 0.415E+01 0.100E+02   0.112E-01 -.339E-01 -.226E+00
 
 
 POSITION                                       TOTAL-FORCE (eV/Angst)
 -----------------------------------------------------------------------------------
      0.93725      4.97065      2.00072        -0.181026      0.069134     -0.064958
     13.94374      2.88859      2.00658        -0.037838      0.431796     -0.020304
      3.21838      4.90278      1.95289         0.062997     -0.214862     -0.051619
     11.61109      7.10794      1.87888        -0.027691     -0.251477      0.005885
      2.14293      2.89031      2.00192        -0.106657      0.319293     -0.041640
     12.87036      4.90257      1.96740        -0.141767     -0.080232     -0.001806
      8.04183      4.96838      1.89607         0.430086     -0.347301      0.069067
      6.83842      2.89265      1.99947         0.101020     -0.569206     -0.063560
     10.33019      4.89945      1.91398         0.058022      0.307321      0.011705
      4.46788      7.09511      1.92097         0.049304      0.103697      0.102015
      9.24291      2.88694      1.97132         0.072975     -0.274046     -0.072371
      5.74750      4.90044      1.95290        -0.125081      0.254957      0.161527
     11.58635     11.12567      2.00773        -0.002676      0.146878      0.182480
     10.40546      9.05242      1.75722         0.091858     -0.285595     -0.208175
     13.86992     11.06581      2.01511         0.234093      0.368298      0.058299
      0.93537      0.96347      1.99699        -0.031594     -0.523536      0.009024
     12.80421      9.05204      2.00453        -0.158267     -0.368938      0.145105
      9.31143     11.03713      1.86127        -0.284824      0.228212     -0.028792
      4.49645     11.12501      1.99528        -0.124223     -0.015388      0.034866
      3.27915      9.04479      2.01641         0.082308      0.048907     -0.018350
      6.77866     11.03666      1.88195         0.048002     -0.143760     -0.083869
      8.04293      0.93948      1.97278        -0.068629     -0.179670      0.023484
      5.68116      9.04532      1.83164        -0.220202      0.158745     -0.054394
      2.21481     11.06236      2.00014        -0.273563      0.272525      0.078203
     13.98781      5.61563      1.98616         0.114755      0.188174     -0.121375
     12.80051      3.57381      1.98611         0.105005     -0.112758     -0.074148
      2.09296      5.61308      1.97294         0.103656      0.266247     -0.119518
      2.11068      1.57119      2.00041         0.350868     -0.244025     -0.060680
     13.97188      1.57094      1.99521        -0.334541     -0.200476     -0.050515
      3.28337      3.56833      1.96819         0.010972      0.096803     -0.127578
      0.93313      3.58794      2.01896         0.069118     -0.185594      0.086123
     11.59339      5.64159      1.90330         0.282562     -0.247080      0.122870
      6.89137      5.62706      1.89683        -0.605340      0.120478      0.311084
      5.71854      3.58284      2.07390        -0.400218     -0.169351      0.000536
      9.20171      5.62416      1.90198         0.184769     -0.041602      0.305985
      9.22744      1.55830      2.01929         0.100011      0.273108     -0.100247
      6.86616      1.55266      1.99954        -0.127385      0.367696     -0.016182
     10.37308      3.58275      1.98564         0.300104     -0.359791     -0.083355
      8.04215      3.58445      1.90405        -0.063023      0.211676     -0.176676
      4.47835      5.63248      1.88695        -0.063691     -0.162794      0.144639
     10.41000     11.74791      2.05756         0.436175      0.049176      0.083330
      9.27183      9.72239      1.62561         0.007237     -0.032937     -0.164921
     12.74089     11.78547      2.03415         0.105345     -0.209810     -0.014069
     12.77556      7.71560      2.03040         0.274048      0.335927      0.026689
     10.43554      7.71268      1.70590        -0.162218      0.441952     -0.165903
     13.93486      9.73378      2.04359         0.078565      0.075368     -0.004805
     11.59923      9.73990      1.95182        -0.200831     -0.065368     -0.179913
      8.04536     11.76431      1.89297        -0.009291      0.284377      0.047808
      3.33858     11.77780      2.03257         0.338906      0.095997      0.019181
      2.14856      9.74499      2.00447        -0.076143     -0.455439      0.022427
      5.66951     11.74768      2.01069        -0.250960      0.293673      0.051087
      5.65718      7.71148      1.78510        -0.048366     -0.428973     -0.020899
      3.30903      7.72470      2.07626        -0.238407     -0.217058      0.016444
      6.82034      9.70596      1.75240         0.417270      0.392381     -0.071831
      4.48861      9.73292      1.95027         0.043027      0.095610     -0.081519
      0.93423     11.80270      1.98269        -0.181758     -0.125387      0.129656
      8.04763      9.15990      4.52201        -0.186169      0.112478      0.605526
      9.38375      6.97081      4.11199         0.083148     -0.111719     -0.060316
      6.74997      6.96996      3.71410         0.096173      0.213291     -0.450757
 -----------------------------------------------------------------------------------
    total drift:                                0.019554     -0.051804     -0.034403


--------------------------------------------------------------------------------------------------------



  FREE ENERGIE OF THE ION-ELECTRON SYSTEM (eV)
  ---------------------------------------------------
  free  energy   TOTEN  =      -477.99716967 eV

  energy  without entropy=     -477.99716231  energy(sigma->0) =     -477.99716599
 
 d Force = 0.2274814E-01[ 0.841E-03, 0.447E-01]  d Energy = 0.2284859E-01-0.100E-03
 d Force = 0.5943920E+02[ 0.594E+02, 0.594E+02]  d Ewald  = 0.9121418E+02-0.318E+02


--------------------------------------------------------------------------------------------------------


    POTLOK:  cpu time      0.0450: real time      0.0453


--------------------------------------------------------------------------------------------------------


 stress matrix after NEB project (eV)
      0.09375      0.45472     -0.14970
      0.45472     -1.48722      0.34918
     -0.14970      0.34918    -18.99483
  FORCES: max atom, RMS     0.691176    0.361121
  FORCE total and by dimension    2.773823    0.605526
  Stress total and by dimension   19.071616   18.994834


--------------------------------------------------------------------------------------------------------


    WAVPRE:  cpu time      0.0253: real time      0.0282
    FEWALD:  cpu time      0.0007: real time      0.0007
    GENKIN:  cpu time      0.0065: real time      0.0065

 real space projection operators:
  total allocation   :       7143.39 KBytes
  max/ min on nodes  :        617.89        526.16

    ORTHCH:  cpu time      0.1323: real time      0.1323
     LOOP+:  cpu time     13.8457: real time     13.8730

