<?xml version="1.0" encoding="ISO-8859-1"?>
<modeling>
 <generator>
  <i name="program" type="string">vasp </i>
  <i name="version" type="string">6.3.2  </i>
  <i name="subversion" type="string">27Jun22 (build May 04 2024 18:40:40) complex                          parallel </i>
  <i name="platform" type="string">LinuxIFC </i>
  <i name="date" type="string">2024 09 02 </i>
  <i name="time" type="string">21:16:53 </i>
 </generator>
 <incar>
  <i type="string" name="SYSTEM">slab_Cel1-OPT</i>
  <i type="int" name="ISTART">     0</i>
  <i type="string" name="PREC">N</i>
  <i type="string" name="ALGO">N</i>
  <i type="int" name="ICHARG">     2</i>
  <i type="int" name="NELM">   200</i>
  <i type="int" name="IBRION">     2</i>
  <i name="EDIFF">      0.00001000</i>
  <i name="EDIFFG">     -0.05000000</i>
  <i type="int" name="NSW">  1000</i>
  <i type="int" name="ISIF">     3</i>
  <i name="ENCUT">    400.00000000</i>
  <i name="POTIM">      0.10000000</i>
  <i type="string" name="LREAL">AUTO</i>
  <i type="int" name="ISMEAR">     0</i>
  <i name="SIGMA">      0.10000000</i>
  <i type="logical" name="LWAVE"> F  </i>
  <i type="logical" name="LCHARG"> F  </i>
  <i type="logical" name="LELF"> F  </i>
  <i type="logical" name="LAECHG"> F  </i>
  <i type="logical" name="LDIPOL"> T  </i>
  <i type="int" name="IDIPOL">     3</i>
 </incar>
 <primitive_cell>
  <structure name="primitive_cell" >
   <crystal>
    <varray name="basis" >
     <v>      14.26590000       0.00000000       0.00000000 </v>
     <v>       0.00000000      12.35699650       0.00000000 </v>
     <v>       0.00000000       0.00000000      15.00000000 </v>
    </varray>
    <i name="volume">   2644.25514646 </i>
    <varray name="rec_basis" >
     <v>       0.07009722       0.00000000       0.00000000 </v>
     <v>       0.00000000       0.08092581       0.00000000 </v>
     <v>       0.00000000       0.00000000       0.06666667 </v>
    </varray>
   </crystal>
   <varray name="positions" >
    <v>       0.06537593       0.40364000       0.13333000 </v>
    <v>       0.98097748       0.23494000       0.13333000 </v>
    <v>       0.22593437       0.39820000       0.13333000 </v>
    <v>       0.81543575       0.57710000       0.13333000 </v>
    <v>       0.14973747       0.23490000       0.13333000 </v>
    <v>       0.90517930       0.39797000       0.13333000 </v>
    <v>       0.56537593       0.40364000       0.13333000 </v>
    <v>       0.48097748       0.23494000       0.13333000 </v>
    <v>       0.72593437       0.39820000       0.13333000 </v>
    <v>       0.31543575       0.57710000       0.13333000 </v>
    <v>       0.64973747       0.23490000       0.13333000 </v>
    <v>       0.40517930       0.39797000       0.13333000 </v>
    <v>       0.81551954       0.90364000       0.13333000 </v>
    <v>       0.73112108       0.73494000       0.13333000 </v>
    <v>       0.97607797       0.89820000       0.13333000 </v>
    <v>       0.06529214       0.07710000       0.13333000 </v>
    <v>       0.89988107       0.73490000       0.13333000 </v>
    <v>       0.65532291       0.89797000       0.13333000 </v>
    <v>       0.31551954       0.90364000       0.13333000 </v>
    <v>       0.23112108       0.73494000       0.13333000 </v>
    <v>       0.47607797       0.89820000       0.13333000 </v>
    <v>       0.56529214       0.07710000       0.13333000 </v>
    <v>       0.39988107       0.73490000       0.13333000 </v>
    <v>       0.15532291       0.89797000       0.13333000 </v>
    <v>       0.98400093       0.45588000       0.13333000 </v>
    <v>       0.90111835       0.29021000       0.13333000 </v>
    <v>       0.14710595       0.45595000       0.13333000 </v>
    <v>       0.14840652       0.12714000       0.13333000 </v>
    <v>       0.98256150       0.12707000       0.13333000 </v>
    <v>       0.22992331       0.29008000       0.13333000 </v>
    <v>       0.06536362       0.29116000       0.13333000 </v>
    <v>       0.81553147       0.45774000       0.13333000 </v>
    <v>       0.48400093       0.45588000       0.13333000 </v>
    <v>       0.40111835       0.29021000       0.13333000 </v>
    <v>       0.64710595       0.45595000       0.13333000 </v>
    <v>       0.64840652       0.12714000       0.13333000 </v>
    <v>       0.48256150       0.12707000       0.13333000 </v>
    <v>       0.72992331       0.29008000       0.13333000 </v>
    <v>       0.56536362       0.29116000       0.13333000 </v>
    <v>       0.31553147       0.45774000       0.13333000 </v>
    <v>       0.73414454       0.95588000       0.13333000 </v>
    <v>       0.65126196       0.79021000       0.13333000 </v>
    <v>       0.89724956       0.95595000       0.13333000 </v>
    <v>       0.89855012       0.62714000       0.13333000 </v>
    <v>       0.73270510       0.62707000       0.13333000 </v>
    <v>       0.98006692       0.79008000       0.13333000 </v>
    <v>       0.81550723       0.79116000       0.13333000 </v>
    <v>       0.56567507       0.95774000       0.13333000 </v>
    <v>       0.23414454       0.95588000       0.13333000 </v>
    <v>       0.15126196       0.79021000       0.13333000 </v>
    <v>       0.39724956       0.95595000       0.13333000 </v>
    <v>       0.39855012       0.62714000       0.13333000 </v>
    <v>       0.23270510       0.62707000       0.13333000 </v>
    <v>       0.48006692       0.79008000       0.13333000 </v>
    <v>       0.31550723       0.79116000       0.13333000 </v>
    <v>       0.06567507       0.95774000       0.13333000 </v>
    <v>       0.57212639       0.73516025       0.21645333 </v>
    <v>       0.65206172       0.57443857       0.21306333 </v>
    <v>       0.48966112       0.57467425       0.20988333 </v>
   </varray>
  </structure>
  <varray name="primitive_index" >
   <v type="int" >        1 </v>
   <v type="int" >        2 </v>
   <v type="int" >        3 </v>
   <v type="int" >        4 </v>
   <v type="int" >        5 </v>
   <v type="int" >        6 </v>
   <v type="int" >        7 </v>
   <v type="int" >        8 </v>
   <v type="int" >        9 </v>
   <v type="int" >       10 </v>
   <v type="int" >       11 </v>
   <v type="int" >       12 </v>
   <v type="int" >       13 </v>
   <v type="int" >       14 </v>
   <v type="int" >       15 </v>
   <v type="int" >       16 </v>
   <v type="int" >       17 </v>
   <v type="int" >       18 </v>
   <v type="int" >       19 </v>
   <v type="int" >       20 </v>
   <v type="int" >       21 </v>
   <v type="int" >       22 </v>
   <v type="int" >       23 </v>
   <v type="int" >       24 </v>
   <v type="int" >       25 </v>
   <v type="int" >       26 </v>
   <v type="int" >       27 </v>
   <v type="int" >       28 </v>
   <v type="int" >       29 </v>
   <v type="int" >       30 </v>
   <v type="int" >       31 </v>
   <v type="int" >       32 </v>
   <v type="int" >       33 </v>
   <v type="int" >       34 </v>
   <v type="int" >       35 </v>
   <v type="int" >       36 </v>
   <v type="int" >       37 </v>
   <v type="int" >       38 </v>
   <v type="int" >       39 </v>
   <v type="int" >       40 </v>
   <v type="int" >       41 </v>
   <v type="int" >       42 </v>
   <v type="int" >       43 </v>
   <v type="int" >       44 </v>
   <v type="int" >       45 </v>
   <v type="int" >       46 </v>
   <v type="int" >       47 </v>
   <v type="int" >       48 </v>
   <v type="int" >       49 </v>
   <v type="int" >       50 </v>
   <v type="int" >       51 </v>
   <v type="int" >       52 </v>
   <v type="int" >       53 </v>
   <v type="int" >       54 </v>
   <v type="int" >       55 </v>
   <v type="int" >       56 </v>
   <v type="int" >       57 </v>
   <v type="int" >       58 </v>
   <v type="int" >       59 </v>
  </varray>
 </primitive_cell>
 <kpoints>
  <generation param="Gamma">
   <v type="int" name="divisions">       2        2        1 </v>
   <v name="usershift">      0.00000000       0.00000000       0.00000000 </v>
   <v name="genvec1">      0.50000000       0.00000000       0.00000000 </v>
   <v name="genvec2">      0.00000000       0.50000000       0.00000000 </v>
   <v name="genvec3">      0.00000000       0.00000000       1.00000000 </v>
   <v name="shift">      0.00000000       0.00000000       0.00000000 </v>
  </generation>
  <varray name="kpointlist" >
   <v>       0.00000000       0.00000000       0.00000000 </v>
   <v>       0.50000000       0.00000000       0.00000000 </v>
   <v>       0.00000000       0.50000000       0.00000000 </v>
   <v>       0.50000000       0.50000000       0.00000000 </v>
  </varray>
  <varray name="weights" >
   <v>       0.25000000 </v>
   <v>       0.25000000 </v>
   <v>       0.25000000 </v>
   <v>       0.25000000 </v>
  </varray>
 </kpoints>
 <parameters>
  <separator name="general" >
   <i type="string" name="SYSTEM">slab_Cel1-OPT</i>
   <i type="logical" name="LCOMPAT"> F  </i>
  </separator>
  <separator name="electronic" >
   <i type="string" name="PREC">n</i>
   <i name="ENMAX">    400.00000000</i>
   <i name="ENAUG">    644.87300000</i>
   <i name="EDIFF">      0.00001000</i>
   <i type="int" name="IALGO">    38</i>
   <i type="int" name="IWAVPR">    11</i>
   <i type="int" name="NBANDS">   176</i>
   <i type="int" name="NBANDSLOW">    -1</i>
   <i type="int" name="NBANDSHIGH">    -1</i>
   <i name="NELECT">    288.00000000</i>
   <i type="int" name="TURBO">     0</i>
   <i type="int" name="IRESTART">     0</i>
   <i type="int" name="NREBOOT">     0</i>
   <i type="int" name="NMIN">     0</i>
   <i name="EREF">      0.00000000</i>
   <separator name="electronic smearing" >
    <i type="int" name="ISMEAR">     0</i>
    <i name="SIGMA">      0.10000000</i>
    <i name="KSPACING">      0.50000000</i>
    <i type="logical" name="KGAMMA"> T  </i>
    <i type="logical" name="KBLOWUP"> T  </i>
   </separator>
   <separator name="electronic projectors" >
    <i type="logical" name="LREAL"> T  </i>
    <v name="ROPT">     -0.00050000     -0.00050000     -0.00050000     -0.00050000     -0.00050000</v>
    <i type="int" name="LMAXPAW">  -100</i>
    <i type="int" name="LMAXMIX">     2</i>
    <i type="logical" name="NLSPLINE"> F  </i>
   </separator>
   <separator name="electronic startup" >
    <i type="int" name="ISTART">     0</i>
    <i type="int" name="ICHARG">     2</i>
    <i type="int" name="INIWAV">     1</i>
   </separator>
   <separator name="electronic spin" >
    <i type="int" name="ISPIN">     1</i>
    <i type="logical" name="LNONCOLLINEAR"> F  </i>
    <v name="MAGMOM">      1.00000000      1.00000000      1.00000000      1.00000000      1.00000000      1.00000000      1.00000000      1.00000000      1.00000000      1.00000000      1.00000000      1.00000000      1.00000000      1.00000000      1.00000000      1.00000000      1.00000000      1.00000000      1.00000000      1.00000000
      1.00000000      1.00000000      1.00000000      1.00000000      1.00000000      1.00000000      1.00000000      1.00000000      1.00000000      1.00000000      1.00000000      1.00000000      1.00000000      1.00000000      1.00000000      1.00000000      1.00000000      1.00000000      1.00000000      1.00000000
      1.00000000      1.00000000      1.00000000      1.00000000      1.00000000      1.00000000      1.00000000      1.00000000      1.00000000      1.00000000      1.00000000      1.00000000      1.00000000      1.00000000      1.00000000      1.00000000      1.00000000      1.00000000      1.00000000</v>
    <i name="NUPDOWN">     -1.00000000</i>
    <i type="logical" name="LSORBIT"> F  </i>
    <v name="SAXIS">      0.00000000      0.00000000      1.00000000</v>
    <i type="logical" name="LSPIRAL"> F  </i>
    <v name="QSPIRAL">      0.00000000      0.00000000      0.00000000</v>
    <i type="logical" name="LZEROZ"> F  </i>
   </separator>
   <separator name="electronic exchange-correlation" >
    <i type="logical" name="LASPH"> F  </i>
    <i type="logical" name="LMETAGGA"> F  </i>
   </separator>
   <separator name="electronic convergence" >
    <i type="int" name="NELM">   200</i>
    <i type="int" name="NELMDL">    -5</i>
    <i type="int" name="NELMIN">     2</i>
    <i name="ENINI">    400.00000000</i>
    <separator name="electronic convergence detail" >
     <i type="logical" name="LDIAG"> T  </i>
     <i type="logical" name="LSUBROT"> F  </i>
     <i name="WEIMIN">      0.00100000</i>
     <i name="EBREAK">      0.00000001</i>
     <i name="DEPER">      0.30000000</i>
     <i type="int" name="NRMM">     4</i>
     <i name="TIME">      0.40000000</i>
    </separator>
   </separator>
   <separator name="electronic mixer" >
    <i name="AMIX">      0.40000000</i>
    <i name="BMIX">      1.00000000</i>
    <i name="AMIN">      0.10000000</i>
    <i name="AMIX_MAG">      1.60000000</i>
    <i name="BMIX_MAG">      1.00000000</i>
    <separator name="electronic mixer details" >
     <i type="int" name="IMIX">     4</i>
     <i type="logical" name="MIXFIRST"> F  </i>
     <i type="int" name="MAXMIX">   -45</i>
     <i name="WC">    100.00000000</i>
     <i type="int" name="INIMIX">     1</i>
     <i type="int" name="MIXPRE">     1</i>
     <i type="int" name="MREMOVE">     5</i>
    </separator>
   </separator>
   <separator name="electronic dipolcorrection" >
    <i type="logical" name="LDIPOL"> T  </i>
    <i type="logical" name="LMONO"> F  </i>
    <i type="int" name="IDIPOL">     3</i>
    <i name="EPSILON">      1.00000000</i>
    <v name="DIPOL">   -100.00000000   -100.00000000   -100.00000000</v>
    <i name="EFIELD">      0.00000000</i>
   </separator>
  </separator>
  <separator name="grids" >
   <i type="int" name="NGX">    70</i>
   <i type="int" name="NGY">    60</i>
   <i type="int" name="NGZ">    80</i>
   <i type="int" name="NGXF">   140</i>
   <i type="int" name="NGYF">   120</i>
   <i type="int" name="NGZF">   160</i>
   <i type="logical" name="ADDGRID"> F  </i>
  </separator>
  <separator name="ionic" >
   <i type="int" name="NSW">  1000</i>
   <i type="int" name="IBRION">     2</i>
   <i type="int" name="MDALGO">     0</i>
   <i type="int" name="ISIF">     3</i>
   <i name="PSTRESS">      0.00000000</i>
   <i name="EDIFFG">     -0.05000000</i>
   <i type="int" name="NFREE">     1</i>
   <i name="POTIM">      0.10000000</i>
   <i name="SMASS">     -3.00000000</i>
   <i name="SCALEE">      1.00000000</i>
  </separator>
  <separator name="ionic md" >
   <i name="TEBEG">      0.00010000</i>
   <i name="TEEND">      0.00010000</i>
   <i type="int" name="NBLOCK">     1</i>
   <i type="int" name="KBLOCK">  1000</i>
   <i type="int" name="NPACO">   256</i>
   <i name="APACO">     10.00000000</i>
  </separator>
  <separator name="symmetry" >
   <i type="int" name="ISYM">     2</i>
   <i name="SYMPREC">      0.00001000</i>
  </separator>
  <separator name="dos" >
   <i type="int" name="LORBIT">     0</i>
   <v name="RWIGS">     -1.00000000     -1.00000000     -1.00000000     -1.00000000     -1.00000000</v>
   <i type="int" name="NEDOS">   301</i>
   <i name="EMIN">     10.00000000</i>
   <i name="EMAX">    -10.00000000</i>
   <i name="EFERMI">      0.00000000</i>
  </separator>
  <separator name="writing" >
   <i type="int" name="NWRITE">     2</i>
   <i type="logical" name="LWAVE"> F  </i>
   <i type="logical" name="LDOWNSAMPLE"> F  </i>
   <i type="logical" name="LCHARG"> F  </i>
   <i type="logical" name="LPARD"> F  </i>
   <i type="logical" name="LVTOT"> F  </i>
   <i type="logical" name="LVHAR"> F  </i>
   <i type="logical" name="LELF"> F  </i>
   <i type="logical" name="LOPTICS"> F  </i>
   <v name="STM">      0.00000000      0.00000000      0.00000000      0.00000000      0.00000000      0.00000000      0.00000000</v>
  </separator>
  <separator name="performance" >
   <i type="int" name="NPAR">     4</i>
   <i type="int" name="NSIM">     4</i>
   <i type="int" name="NBLK">    -1</i>
   <i type="logical" name="LPLANE"> T  </i>
   <i type="logical" name="LSCALAPACK"> T  </i>
   <i type="logical" name="LSCAAWARE"> F  </i>
   <i type="logical" name="LSCALU"> F  </i>
   <i type="logical" name="LASYNC"> F  </i>
   <i type="logical" name="LORBITALREAL"> F  </i>
  </separator>
  <separator name="miscellaneous" >
   <i type="int" name="IDIOT">     3</i>
   <i type="int" name="PHON_NSTRUCT">    -1</i>
   <i type="logical" name="LMUSIC"> F  </i>
   <v name="POMASS">     12.01100000     14.00100000    196.96600000    107.86800000    106.42000000</v>
   <v name="DARWINR">      0.00000000      0.00000000      0.00000000      0.00000000      0.00000000</v>
   <v name="DARWINV">      1.00000000      1.00000000      1.00000000      1.00000000      1.00000000</v>
   <i type="logical" name="LCORR"> T  </i>
  </separator>
  <i type="logical" name="GGA_COMPAT"> T  </i>
  <i type="logical" name="LBERRY"> F  </i>
  <i type="int" name="ICORELEVEL">     0</i>
  <i type="logical" name="LDAU"> F  </i>
  <i type="int" name="I_CONSTRAINED_M">     0</i>
  <separator name="electronic exchange-correlation" >
   <i type="string" name="GGA">--</i>
   <i type="int" name="VOSKOWN">     0</i>
   <i type="logical" name="LHFCALC"> F  </i>
   <i type="string" name="PRECFOCK"></i>
   <i type="logical" name="LSYMGRAD"> F  </i>
   <i type="logical" name="LHFONE"> F  </i>
   <i type="logical" name="LRHFCALC"> F  </i>
   <i type="logical" name="LTHOMAS"> F  </i>
   <i type="logical" name="LMODELHF"> F  </i>
   <i type="logical" name="LFOCKACE"> F  </i>
   <i name="ENCUT4O">     -1.00000000</i>
   <i type="int" name="EXXOEP">     0</i>
   <i type="int" name="FOURORBIT">     0</i>
   <i name="AEXX">      0.00000000</i>
   <i name="HFALPHA">      0.00000000</i>
   <i name="MCALPHA">      0.00000000</i>
   <i name="ALDAX">      1.00000000</i>
   <i name="AGGAX">      1.00000000</i>
   <i name="ALDAC">      1.00000000</i>
   <i name="AGGAC">      1.00000000</i>
   <i type="int" name="NKREDX">     1</i>
   <i type="int" name="NKREDY">     1</i>
   <i type="int" name="NKREDZ">     1</i>
   <i type="logical" name="SHIFTRED"> F  </i>
   <i type="logical" name="ODDONLY"> F  </i>
   <i type="logical" name="EVENONLY"> F  </i>
   <i type="int" name="LMAXFOCK">     0</i>
   <i type="int" name="NMAXFOCKAE">     0</i>
   <i type="logical" name="LFOCKAEDFT"> F  </i>
   <i name="HFSCREEN">      0.00000000</i>
   <i name="HFSCREENC">      0.00000000</i>
   <i type="int" name="NBANDSGWLOW">     0</i>
  </separator>
  <separator name="vdW DFT" >
   <i type="logical" name="LUSE_VDW"> F  </i>
   <i name="Zab_VDW">     -0.84910000</i>
   <i name="PARAM1">      0.12340000</i>
   <i name="PARAM2">      1.00000000</i>
   <i name="PARAM3">      0.00000000</i>
  </separator>
  <separator name="model GW" >
   <i type="int" name="MODEL_GW">     0</i>
   <i name="MODEL_EPS0">     26.89073030</i>
   <i name="MODEL_ALPHA">      1.00000000</i>
  </separator>
  <separator name="linear response parameters" >
   <i type="logical" name="LEPSILON"> F  </i>
   <i type="logical" name="LRPA"> F  </i>
   <i type="logical" name="LNABLA"> F  </i>
   <i type="logical" name="LVEL"> F  </i>
   <i name="CSHIFT">      0.10000000</i>
   <i name="OMEGAMAX">     -1.00000000</i>
   <i name="DEG_THRESHOLD">      0.00200000</i>
   <i name="RTIME">     -0.10000000</i>
   <i name="WPLASMAI">      0.00000000</i>
   <v name="DFIELD">      0.00000000      0.00000000      0.00000000</v>
   <v name="WPLASMA">      0.00000000      0.00000000      0.00000000      0.00000000      0.00000000      0.00000000      0.00000000      0.00000000      0.00000000</v>
  </separator>
  <separator name="orbital magnetization" >
   <i type="logical" name="NUCIND"> F  </i>
   <v name="MAGPOS">      0.00000000      0.00000000      0.00000000</v>
   <i type="logical" name="LNICSALL"> T  </i>
   <i type="logical" name="ORBITALMAG"> F  </i>
   <i type="logical" name="LMAGBLOCH"> F  </i>
   <i type="logical" name="LCHIMAG"> F  </i>
   <i type="logical" name="LGAUGE"> T  </i>
   <i type="int" name="MAGATOM">     0</i>
   <v name="MAGDIPOL">      0.00000000      0.00000000      0.00000000</v>
   <v name="AVECCONST">      0.00000000      0.00000000      0.00000000</v>
  </separator>
  <separator name="response functions" >
   <i type="logical" name="LFINITE_TEMPERATURE"> F  </i>
   <i type="logical" name="LADDER"> F  </i>
   <i type="logical" name="LRPAFORCE"> F  </i>
   <i type="logical" name="LFXC"> F  </i>
   <i type="logical" name="LHARTREE"> T  </i>
   <i type="int" name="IBSE">     0</i>
   <v type="int" name="KPOINT">    -1     0     0     0</v>
   <i type="logical" name="LTCTC"> F  </i>
   <i type="logical" name="LTCTE"> F  </i>
   <i type="logical" name="LTETE"> F  </i>
   <i type="logical" name="LTRIPLET"> F  </i>
   <i type="logical" name="LFXCEPS"> F  </i>
   <i type="logical" name="LFXHEG"> F  </i>
   <i type="int" name="NATURALO">     2</i>
   <i type="logical" name="LHOLEGF"> F  </i>
   <i type="logical" name="L2ORDER"> F  </i>
   <i type="logical" name="LDMP1"> F  </i>
   <i type="logical" name="LMP2LT"> F  </i>
   <i type="logical" name="LSMP2LT"> F  </i>
   <i type="logical" name="LGWLF"> F  </i>
   <i name="ENCUTGW">     -2.00000000</i>
   <i name="ENCUTGWSOFT">     -2.00000000</i>
   <i name="ENCUTLF">     -1.00000000</i>
   <i type="logical" name="LESF_SPLINES"> F  </i>
   <i type="int" name="LMAXMP2">    -1</i>
   <i name="SCISSOR">      0.00000000</i>
   <i type="int" name="NOMEGA">     0</i>
   <i type="int" name="NOMEGAR">     0</i>
   <i type="int" name="NBANDSGW">    -1</i>
   <i type="int" name="NBANDSO">    -1</i>
   <i type="int" name="NBANDSV">    -1</i>
   <i type="int" name="NELMGW">     1</i>
   <i type="int" name="NELMHF">     1</i>
   <i type="int" name="DIM">     3</i>
   <i type="int" name="IESPILON">     4</i>
   <i type="int" name="ANTIRES">     0</i>
   <i name="OMEGAMAX">    -30.00000000</i>
   <i name="OMEGAMIN">    -30.00000000</i>
   <i name="OMEGATL">   -200.00000000</i>
   <i type="int" name="OMEGAGRID">     0</i>
   <i name="CSHIFT">     -0.10000000</i>
   <i type="logical" name="LSELFENERGY"> F  </i>
   <i type="logical" name="LSPECTRAL"> F  </i>
   <i type="logical" name="LSPECTRALGW"> F  </i>
   <i type="logical" name="LSINGLES"> F  </i>
   <i type="logical" name="LFERMIGW"> F  </i>
   <i type="logical" name="ODDONLYGW"> F  </i>
   <i type="logical" name="EVENONLYGW"> F  </i>
   <i type="int" name="NKREDLFX">     1</i>
   <i type="int" name="NKREDLFY">     1</i>
   <i type="int" name="NKREDLFZ">     1</i>
   <i type="int" name="MAXMEM">  2800</i>
   <i type="int" name="TELESCOPE">     0</i>
   <i type="int" name="NTAUPAR">    -1</i>
   <i type="int" name="NOMEGAPAR">    -1</i>
   <i name="DAMP_NEWTON">      0.80000001</i>
   <i name="LAMBDA">      1.00000000</i>
  </separator>
  <separator name="External order field" >
   <i name="OFIELD_KAPPA">      0.00000000</i>
   <v name="OFIELD_K">      0.00000000      0.00000000      0.00000000</v>
   <i name="OFIELD_Q6_NEAR">      0.00000000</i>
   <i name="OFIELD_Q6_FAR">      0.00000000</i>
   <i name="OFIELD_A">      0.00000000</i>
  </separator>
  <separator name="optional k-points parameters" >
   <i type="int" name="KPOINTS_OPT_MODE">     1</i>
   <i type="logical" name="LKPOINTS_OPT"> F  </i>
  </separator>
  <separator name="solvation model" >
   <i type="logical" name="LSOL"> F  </i>
  </separator>
 </parameters>
 <atominfo>
  <atoms>      59 </atoms>
  <types>       5 </types>
  <array name="atoms" >
   <dimension dim="1">ion</dimension>
   <field type="string">element</field>
   <field type="int">atomtype</field>
   <set>
    <rc><c>C </c><c>   1</c></rc>
    <rc><c>C </c><c>   1</c></rc>
    <rc><c>C </c><c>   1</c></rc>
    <rc><c>C </c><c>   1</c></rc>
    <rc><c>C </c><c>   1</c></rc>
    <rc><c>C </c><c>   1</c></rc>
    <rc><c>C </c><c>   1</c></rc>
    <rc><c>C </c><c>   1</c></rc>
    <rc><c>C </c><c>   1</c></rc>
    <rc><c>C </c><c>   1</c></rc>
    <rc><c>C </c><c>   1</c></rc>
    <rc><c>C </c><c>   1</c></rc>
    <rc><c>C </c><c>   1</c></rc>
    <rc><c>C </c><c>   1</c></rc>
    <rc><c>C </c><c>   1</c></rc>
    <rc><c>C </c><c>   1</c></rc>
    <rc><c>C </c><c>   1</c></rc>
    <rc><c>C </c><c>   1</c></rc>
    <rc><c>C </c><c>   1</c></rc>
    <rc><c>C </c><c>   1</c></rc>
    <rc><c>C </c><c>   1</c></rc>
    <rc><c>C </c><c>   1</c></rc>
    <rc><c>C </c><c>   1</c></rc>
    <rc><c>C </c><c>   1</c></rc>
    <rc><c>N </c><c>   2</c></rc>
    <rc><c>N </c><c>   2</c></rc>
    <rc><c>N </c><c>   2</c></rc>
    <rc><c>N </c><c>   2</c></rc>
    <rc><c>N </c><c>   2</c></rc>
    <rc><c>N </c><c>   2</c></rc>
    <rc><c>N </c><c>   2</c></rc>
    <rc><c>N </c><c>   2</c></rc>
    <rc><c>N </c><c>   2</c></rc>
    <rc><c>N </c><c>   2</c></rc>
    <rc><c>N </c><c>   2</c></rc>
    <rc><c>N </c><c>   2</c></rc>
    <rc><c>N </c><c>   2</c></rc>
    <rc><c>N </c><c>   2</c></rc>
    <rc><c>N </c><c>   2</c></rc>
    <rc><c>N </c><c>   2</c></rc>
    <rc><c>N </c><c>   2</c></rc>
    <rc><c>N </c><c>   2</c></rc>
    <rc><c>N </c><c>   2</c></rc>
    <rc><c>N </c><c>   2</c></rc>
    <rc><c>N </c><c>   2</c></rc>
    <rc><c>N </c><c>   2</c></rc>
    <rc><c>N </c><c>   2</c></rc>
    <rc><c>N </c><c>   2</c></rc>
    <rc><c>N </c><c>   2</c></rc>
    <rc><c>N </c><c>   2</c></rc>
    <rc><c>N </c><c>   2</c></rc>
    <rc><c>N </c><c>   2</c></rc>
    <rc><c>N </c><c>   2</c></rc>
    <rc><c>N </c><c>   2</c></rc>
    <rc><c>N </c><c>   2</c></rc>
    <rc><c>N </c><c>   2</c></rc>
    <rc><c>Au</c><c>   3</c></rc>
    <rc><c>Ag</c><c>   4</c></rc>
    <rc><c>Pd</c><c>   5</c></rc>
   </set>
  </array>
  <array name="atomtypes" >
   <dimension dim="1">type</dimension>
   <field type="int">atomspertype</field>
   <field type="string">element</field>
   <field>mass</field>
   <field>valence</field>
   <field type="string">pseudopotential</field>
   <set>
    <rc><c>  24</c><c>C </c><c>     12.01100000</c><c>      4.00000000</c><c>  PAW_PBE C 08Apr2002                   </c></rc>
    <rc><c>  32</c><c>N </c><c>     14.00100000</c><c>      5.00000000</c><c>  PAW_PBE N 08Apr2002                   </c></rc>
    <rc><c>   1</c><c>Au</c><c>    196.96600000</c><c>     11.00000000</c><c>  PAW_PBE Au 04Oct2007                  </c></rc>
    <rc><c>   1</c><c>Ag</c><c>    107.86800000</c><c>     11.00000000</c><c>  PAW_PBE Ag 02Apr2005                  </c></rc>
    <rc><c>   1</c><c>Pd</c><c>    106.42000000</c><c>     10.00000000</c><c>  PAW_PBE Pd 04Jan2005                  </c></rc>
   </set>
  </array>
 </atominfo>
 <structure name="initialpos" >
  <crystal>
   <varray name="basis" >
    <v>      14.26590000       0.00000000       0.00000000 </v>
    <v>       0.00000000      12.35699650       0.00000000 </v>
    <v>       0.00000000       0.00000000      15.00000000 </v>
   </varray>
   <i name="volume">   2644.25514646 </i>
   <varray name="rec_basis" >
    <v>       0.07009722       0.00000000       0.00000000 </v>
    <v>       0.00000000       0.08092581       0.00000000 </v>
    <v>       0.00000000       0.00000000       0.06666667 </v>
   </varray>
  </crystal>
  <varray name="positions" >
   <v>       0.06537593       0.40364000       0.13333000 </v>
   <v>       0.98097748       0.23494000       0.13333000 </v>
   <v>       0.22593437       0.39820000       0.13333000 </v>
   <v>       0.81543575       0.57710000       0.13333000 </v>
   <v>       0.14973747       0.23490000       0.13333000 </v>
   <v>       0.90517930       0.39797000       0.13333000 </v>
   <v>       0.56537593       0.40364000       0.13333000 </v>
   <v>       0.48097748       0.23494000       0.13333000 </v>
   <v>       0.72593437       0.39820000       0.13333000 </v>
   <v>       0.31543575       0.57710000       0.13333000 </v>
   <v>       0.64973747       0.23490000       0.13333000 </v>
   <v>       0.40517930       0.39797000       0.13333000 </v>
   <v>       0.81551954       0.90364000       0.13333000 </v>
   <v>       0.73112108       0.73494000       0.13333000 </v>
   <v>       0.97607797       0.89820000       0.13333000 </v>
   <v>       0.06529214       0.07710000       0.13333000 </v>
   <v>       0.89988107       0.73490000       0.13333000 </v>
   <v>       0.65532291       0.89797000       0.13333000 </v>
   <v>       0.31551954       0.90364000       0.13333000 </v>
   <v>       0.23112108       0.73494000       0.13333000 </v>
   <v>       0.47607797       0.89820000       0.13333000 </v>
   <v>       0.56529214       0.07710000       0.13333000 </v>
   <v>       0.39988107       0.73490000       0.13333000 </v>
   <v>       0.15532291       0.89797000       0.13333000 </v>
   <v>       0.98400093       0.45588000       0.13333000 </v>
   <v>       0.90111835       0.29021000       0.13333000 </v>
   <v>       0.14710595       0.45595000       0.13333000 </v>
   <v>       0.14840652       0.12714000       0.13333000 </v>
   <v>       0.98256150       0.12707000       0.13333000 </v>
   <v>       0.22992331       0.29008000       0.13333000 </v>
   <v>       0.06536362       0.29116000       0.13333000 </v>
   <v>       0.81553147       0.45774000       0.13333000 </v>
   <v>       0.48400093       0.45588000       0.13333000 </v>
   <v>       0.40111835       0.29021000       0.13333000 </v>
   <v>       0.64710595       0.45595000       0.13333000 </v>
   <v>       0.64840652       0.12714000       0.13333000 </v>
   <v>       0.48256150       0.12707000       0.13333000 </v>
   <v>       0.72992331       0.29008000       0.13333000 </v>
   <v>       0.56536362       0.29116000       0.13333000 </v>
   <v>       0.31553147       0.45774000       0.13333000 </v>
   <v>       0.73414454       0.95588000       0.13333000 </v>
   <v>       0.65126196       0.79021000       0.13333000 </v>
   <v>       0.89724956       0.95595000       0.13333000 </v>
   <v>       0.89855012       0.62714000       0.13333000 </v>
   <v>       0.73270510       0.62707000       0.13333000 </v>
   <v>       0.98006692       0.79008000       0.13333000 </v>
   <v>       0.81550723       0.79116000       0.13333000 </v>
   <v>       0.56567507       0.95774000       0.13333000 </v>
   <v>       0.23414454       0.95588000       0.13333000 </v>
   <v>       0.15126196       0.79021000       0.13333000 </v>
   <v>       0.39724956       0.95595000       0.13333000 </v>
   <v>       0.39855012       0.62714000       0.13333000 </v>
   <v>       0.23270510       0.62707000       0.13333000 </v>
   <v>       0.48006692       0.79008000       0.13333000 </v>
   <v>       0.31550723       0.79116000       0.13333000 </v>
   <v>       0.06567507       0.95774000       0.13333000 </v>
   <v>       0.57212639       0.73516025       0.21645333 </v>
   <v>       0.65206172       0.57443857       0.21306333 </v>
   <v>       0.48966112       0.57467425       0.20988333 </v>
  </varray>
 </structure>
 <calculation>
  <scstep>
   <time name="dav">    1.82    1.83</time>
   <time name="total">    1.87    1.88</time>
   <dipole>
    <v name="dipole">      0.00000000       0.00000000       0.00048637 </v>
    <i name="Tr[quadrupol]">  -9357.35736303 </i>
    <i name="Echarged">      0.00000000 </i>
    <i name="Edipol_quadrupol">      0.00000000 </i>
    <i name="Eion">      0.00000000 </i>
   </dipole>
   <energy>
    <i name="alphaZ">    155.84792990 </i>
    <i name="ewald">  31603.61067379 </i>
    <i name="hartreedc"> -43735.34844371 </i>
    <i name="XCdc">    935.37287468 </i>
    <i name="pawpsdc">  11846.67449192 </i>
    <i name="pawaedc"> -11767.02918859 </i>
    <i name="eentropy">     -0.11181844 </i>
    <i name="bandstr">  -1185.11481826 </i>
    <i name="atom">  14767.33628989 </i>
    <i name="e_fr_energy">   2621.23799119 </i>
    <i name="e_wo_entrp">   2621.34980963 </i>
    <i name="e_0_energy">   2621.29390041 </i>
   </energy>
  </scstep>
  <scstep>
   <time name="dav">    2.11    2.11</time>
   <time name="total">    2.11    2.11</time>
   <dipole>
    <v name="dipole">      0.00000000       0.00000000       0.00048637 </v>
    <i name="Tr[quadrupol]">  -9357.35736303 </i>
    <i name="Echarged">      0.00000000 </i>
    <i name="Edipol_quadrupol">      0.00000000 </i>
    <i name="Eion">      0.00000000 </i>
   </dipole>
   <energy>
    <i name="e_fr_energy">     14.64527637 </i>
    <i name="e_wo_entrp">     14.67827987 </i>
    <i name="e_0_energy">     14.66177812 </i>
   </energy>
  </scstep>
  <scstep>
   <time name="dav">    1.90    1.90</time>
   <time name="total">    1.90    1.91</time>
   <dipole>
    <v name="dipole">      0.00000000       0.00000000       0.00048637 </v>
    <i name="Tr[quadrupol]">  -9357.35736303 </i>
    <i name="Echarged">      0.00000000 </i>
    <i name="Edipol_quadrupol">      0.00000000 </i>
    <i name="Eion">      0.00000000 </i>
   </dipole>
   <energy>
    <i name="e_fr_energy">   -488.88418690 </i>
    <i name="e_wo_entrp">   -488.77403225 </i>
    <i name="e_0_energy">   -488.82910958 </i>
   </energy>
  </scstep>
  <scstep>
   <time name="dav">    1.75    1.76</time>
   <time name="total">    1.75    1.76</time>
   <dipole>
    <v name="dipole">      0.00000000       0.00000000       0.00048637 </v>
    <i name="Tr[quadrupol]">  -9357.35736303 </i>
    <i name="Echarged">      0.00000000 </i>
    <i name="Edipol_quadrupol">      0.00000000 </i>
    <i name="Eion">      0.00000000 </i>
   </dipole>
   <energy>
    <i name="e_fr_energy">   -506.88502383 </i>
    <i name="e_wo_entrp">   -506.75177054 </i>
    <i name="e_0_energy">   -506.81839718 </i>
   </energy>
  </scstep>
  <scstep>
   <time name="dav">    2.02    2.03</time>
   <time name="total">    2.07    2.08</time>
   <dipole>
    <v name="dipole">      0.00000000       0.00000000       0.00048637 </v>
    <i name="Tr[quadrupol]">  -9357.35736303 </i>
    <i name="Echarged">      0.00000000 </i>
    <i name="Edipol_quadrupol">      0.00000000 </i>
    <i name="Eion">      0.00000000 </i>
   </dipole>
   <energy>
    <i name="e_fr_energy">   -507.61567502 </i>
    <i name="e_wo_entrp">   -507.48209684 </i>
    <i name="e_0_energy">   -507.54888593 </i>
   </energy>
  </scstep>
  <scstep>
   <time name="dav">    1.73    1.73</time>
   <time name="total">    1.82    1.83</time>
   <dipole>
    <v name="dipole">      0.00000000       0.00000000      -0.39277399 </v>
    <i name="Tr[quadrupol]">  -9359.04462979 </i>
    <i name="Echarged">      0.00000000 </i>
    <i name="Edipol_quadrupol">      0.00000000 </i>
    <i name="Eion">      0.00000000 </i>
   </dipole>
   <energy>
    <i name="e_fr_energy">   -475.92705117 </i>
    <i name="e_wo_entrp">   -475.92705086 </i>
    <i name="e_0_energy">   -475.92705101 </i>
   </energy>
  </scstep>
  <scstep>
   <time name="dav">    1.75    1.75</time>
   <time name="total">    1.85    1.85</time>
   <dipole>
    <v name="dipole">      0.00000000       0.00000000      -0.15407914 </v>
    <i name="Tr[quadrupol]">  -9359.64625864 </i>
    <i name="Echarged">      0.00000000 </i>
    <i name="Edipol_quadrupol">      0.00000000 </i>
    <i name="Eion">      0.00000000 </i>
   </dipole>
   <energy>
    <i name="e_fr_energy">   -471.36445718 </i>
    <i name="e_wo_entrp">   -471.29734696 </i>
    <i name="e_0_energy">   -471.33090207 </i>
   </energy>
  </scstep>
  <scstep>
   <time name="dav">    1.74    1.74</time>
   <time name="total">    1.83    1.83</time>
   <dipole>
    <v name="dipole">      0.00000000       0.00000000      -0.03270416 </v>
    <i name="Tr[quadrupol]">  -9360.52234986 </i>
    <i name="Echarged">      0.00000000 </i>
    <i name="Edipol_quadrupol">      0.00000000 </i>
    <i name="Eion">      0.00000000 </i>
   </dipole>
   <energy>
    <i name="e_fr_energy">   -469.95945281 </i>
    <i name="e_wo_entrp">   -469.87296448 </i>
    <i name="e_0_energy">   -469.91620865 </i>
   </energy>
  </scstep>
  <scstep>
   <time name="dav">    1.74    1.74</time>
   <time name="total">    1.82    1.82</time>
   <dipole>
    <v name="dipole">      0.00000000       0.00000000       0.01484452 </v>
    <i name="Tr[quadrupol]">  -9360.98287700 </i>
    <i name="Echarged">      0.00000000 </i>
    <i name="Edipol_quadrupol">      0.00000000 </i>
    <i name="Eion">      0.00000000 </i>
   </dipole>
   <energy>
    <i name="e_fr_energy">   -468.94988484 </i>
    <i name="e_wo_entrp">   -468.86700859 </i>
    <i name="e_0_energy">   -468.90844671 </i>
   </energy>
  </scstep>
  <scstep>
   <time name="dav">    1.70    1.70</time>
   <time name="total">    1.79    1.79</time>
   <dipole>
    <v name="dipole">      0.00000000       0.00000000       0.07744693 </v>
    <i name="Tr[quadrupol]">  -9361.73999288 </i>
    <i name="Echarged">      0.00000000 </i>
    <i name="Edipol_quadrupol">      0.00000000 </i>
    <i name="Eion">      0.00000000 </i>
   </dipole>
   <energy>
    <i name="e_fr_energy">   -468.74050854 </i>
    <i name="e_wo_entrp">   -468.63584342 </i>
    <i name="e_0_energy">   -468.68817598 </i>
   </energy>
  </scstep>
  <scstep>
   <time name="dav">    1.75    1.75</time>
   <time name="total">    1.84    1.85</time>
   <dipole>
    <v name="dipole">      0.00000000       0.00000000       0.10920944 </v>
    <i name="Tr[quadrupol]">  -9362.12024811 </i>
    <i name="Echarged">      0.00000000 </i>
    <i name="Edipol_quadrupol">      0.00000000 </i>
    <i name="Eion">      0.00000000 </i>
   </dipole>
   <energy>
    <i name="e_fr_energy">   -468.73486146 </i>
    <i name="e_wo_entrp">   -468.63195550 </i>
    <i name="e_0_energy">   -468.68340848 </i>
   </energy>
  </scstep>
  <scstep>
   <time name="dav">    1.74    1.75</time>
   <time name="total">    1.83    1.83</time>
   <dipole>
    <v name="dipole">      0.00000000       0.00000000       0.16748811 </v>
    <i name="Tr[quadrupol]">  -9362.62859266 </i>
    <i name="Echarged">      0.00000000 </i>
    <i name="Edipol_quadrupol">      0.00000000 </i>
    <i name="Eion">      0.00000000 </i>
   </dipole>
   <energy>
    <i name="e_fr_energy">   -468.71799064 </i>
    <i name="e_wo_entrp">   -468.61247174 </i>
    <i name="e_0_energy">   -468.66523119 </i>
   </energy>
  </scstep>
  <scstep>
   <time name="dav">    1.73    1.73</time>
   <time name="total">    1.82    1.83</time>
   <dipole>
    <v name="dipole">      0.00000000       0.00000000       0.21873385 </v>
    <i name="Tr[quadrupol]">  -9363.12621740 </i>
    <i name="Echarged">      0.00000000 </i>
    <i name="Edipol_quadrupol">      0.00000000 </i>
    <i name="Eion">      0.00000000 </i>
   </dipole>
   <energy>
    <i name="e_fr_energy">   -468.71300048 </i>
    <i name="e_wo_entrp">   -468.60377088 </i>
    <i name="e_0_energy">   -468.65838568 </i>
   </energy>
  </scstep>
  <scstep>
   <time name="dav">    1.68    1.68</time>
   <time name="total">    1.76    1.76</time>
   <dipole>
    <v name="dipole">      0.00000000       0.00000000       0.25446188 </v>
    <i name="Tr[quadrupol]">  -9363.46091887 </i>
    <i name="Echarged">      0.00000000 </i>
    <i name="Edipol_quadrupol">      0.00000000 </i>
    <i name="Eion">      0.00000000 </i>
   </dipole>
   <energy>
    <i name="e_fr_energy">   -468.71422110 </i>
    <i name="e_wo_entrp">   -468.60646670 </i>
    <i name="e_0_energy">   -468.66034390 </i>
   </energy>
  </scstep>
  <scstep>
   <time name="dav">    1.70    1.70</time>
   <time name="total">    1.79    1.79</time>
   <dipole>
    <v name="dipole">      0.00000000       0.00000000       0.29205413 </v>
    <i name="Tr[quadrupol]">  -9363.86616140 </i>
    <i name="Echarged">      0.00000000 </i>
    <i name="Edipol_quadrupol">      0.00000000 </i>
    <i name="Eion">      0.00000000 </i>
   </dipole>
   <energy>
    <i name="e_fr_energy">   -468.71618413 </i>
    <i name="e_wo_entrp">   -468.60888895 </i>
    <i name="e_0_energy">   -468.66253654 </i>
   </energy>
  </scstep>
  <scstep>
   <time name="dav">    1.65    1.65</time>
   <time name="total">    1.73    1.74</time>
   <dipole>
    <v name="dipole">      0.00000000       0.00000000       0.33841410 </v>
    <i name="Tr[quadrupol]">  -9364.39691672 </i>
    <i name="Echarged">      0.00000000 </i>
    <i name="Edipol_quadrupol">      0.00000000 </i>
    <i name="Eion">      0.00000000 </i>
   </dipole>
   <energy>
    <i name="e_fr_energy">   -468.71955885 </i>
    <i name="e_wo_entrp">   -468.61154052 </i>
    <i name="e_0_energy">   -468.66554969 </i>
   </energy>
  </scstep>
  <scstep>
   <time name="dav">    1.66    1.67</time>
   <time name="total">    1.74    1.75</time>
   <dipole>
    <v name="dipole">      0.00000000       0.00000000       0.38825247 </v>
    <i name="Tr[quadrupol]">  -9365.00649247 </i>
    <i name="Echarged">      0.00000000 </i>
    <i name="Edipol_quadrupol">      0.00000000 </i>
    <i name="Eion">      0.00000000 </i>
   </dipole>
   <energy>
    <i name="e_fr_energy">   -468.72441633 </i>
    <i name="e_wo_entrp">   -468.61676034 </i>
    <i name="e_0_energy">   -468.67058833 </i>
   </energy>
  </scstep>
  <scstep>
   <time name="dav">    1.67    1.67</time>
   <time name="total">    1.75    1.75</time>
   <dipole>
    <v name="dipole">      0.00000000       0.00000000       0.53860051 </v>
    <i name="Tr[quadrupol]">  -9366.44374312 </i>
    <i name="Echarged">      0.00000000 </i>
    <i name="Edipol_quadrupol">      0.00000000 </i>
    <i name="Eion">      0.00000000 </i>
   </dipole>
   <energy>
    <i name="e_fr_energy">   -468.72733993 </i>
    <i name="e_wo_entrp">   -468.62055596 </i>
    <i name="e_0_energy">   -468.67394794 </i>
   </energy>
  </scstep>
  <scstep>
   <time name="dav">    1.73    1.73</time>
   <time name="total">    1.81    1.81</time>
   <dipole>
    <v name="dipole">      0.00000000       0.00000000       0.59784773 </v>
    <i name="Tr[quadrupol]">  -9367.19814192 </i>
    <i name="Echarged">      0.00000000 </i>
    <i name="Edipol_quadrupol">      0.00000000 </i>
    <i name="Eion">      0.00000000 </i>
   </dipole>
   <energy>
    <i name="e_fr_energy">   -468.72932952 </i>
    <i name="e_wo_entrp">   -468.62220420 </i>
    <i name="e_0_energy">   -468.67576686 </i>
   </energy>
  </scstep>
  <scstep>
   <time name="dav">    1.66    1.66</time>
   <time name="total">    1.75    1.75</time>
   <dipole>
    <v name="dipole">      0.00000000       0.00000000       0.58958916 </v>
    <i name="Tr[quadrupol]">  -9367.51219079 </i>
    <i name="Echarged">      0.00000000 </i>
    <i name="Edipol_quadrupol">      0.00000000 </i>
    <i name="Eion">      0.00000000 </i>
   </dipole>
   <energy>
    <i name="e_fr_energy">   -468.73109549 </i>
    <i name="e_wo_entrp">   -468.62386265 </i>
    <i name="e_0_energy">   -468.67747907 </i>
   </energy>
  </scstep>
  <scstep>
   <time name="dav">    1.64    1.64</time>
   <time name="total">    1.72    1.73</time>
   <dipole>
    <v name="dipole">      0.00000000       0.00000000       0.55624403 </v>
    <i name="Tr[quadrupol]">  -9367.63512549 </i>
    <i name="Echarged">      0.00000000 </i>
    <i name="Edipol_quadrupol">      0.00000000 </i>
    <i name="Eion">      0.00000000 </i>
   </dipole>
   <energy>
    <i name="e_fr_energy">   -468.73322145 </i>
    <i name="e_wo_entrp">   -468.62551283 </i>
    <i name="e_0_energy">   -468.67936714 </i>
   </energy>
  </scstep>
  <scstep>
   <time name="dav">    1.62    1.62</time>
   <time name="total">    1.71    1.71</time>
   <dipole>
    <v name="dipole">      0.00000000       0.00000000       0.54256732 </v>
    <i name="Tr[quadrupol]">  -9367.61576499 </i>
    <i name="Echarged">      0.00000000 </i>
    <i name="Edipol_quadrupol">      0.00000000 </i>
    <i name="Eion">      0.00000000 </i>
   </dipole>
   <energy>
    <i name="e_fr_energy">   -468.73395051 </i>
    <i name="e_wo_entrp">   -468.62636053 </i>
    <i name="e_0_energy">   -468.68015552 </i>
   </energy>
  </scstep>
  <scstep>
   <time name="dav">    1.50    1.50</time>
   <time name="total">    1.58    1.59</time>
   <dipole>
    <v name="dipole">      0.00000000       0.00000000       0.51701910 </v>
    <i name="Tr[quadrupol]">  -9367.62599595 </i>
    <i name="Echarged">      0.00000000 </i>
    <i name="Edipol_quadrupol">      0.00000000 </i>
    <i name="Eion">      0.00000000 </i>
   </dipole>
   <energy>
    <i name="e_fr_energy">   -468.73537978 </i>
    <i name="e_wo_entrp">   -468.62794464 </i>
    <i name="e_0_energy">   -468.68166221 </i>
   </energy>
  </scstep>
  <scstep>
   <time name="dav">    1.47    1.47</time>
   <time name="total">    1.56    1.56</time>
   <dipole>
    <v name="dipole">      0.00000000       0.00000000       0.50405758 </v>
    <i name="Tr[quadrupol]">  -9367.57435204 </i>
    <i name="Echarged">      0.00000000 </i>
    <i name="Edipol_quadrupol">      0.00000000 </i>
    <i name="Eion">      0.00000000 </i>
   </dipole>
   <energy>
    <i name="e_fr_energy">   -468.73590875 </i>
    <i name="e_wo_entrp">   -468.62841110 </i>
    <i name="e_0_energy">   -468.68215993 </i>
   </energy>
  </scstep>
  <scstep>
   <time name="dav">    1.47    1.47</time>
   <time name="total">    1.56    1.56</time>
   <dipole>
    <v name="dipole">      0.00000000       0.00000000       0.48602640 </v>
    <i name="Tr[quadrupol]">  -9367.54083945 </i>
    <i name="Echarged">      0.00000000 </i>
    <i name="Edipol_quadrupol">      0.00000000 </i>
    <i name="Eion">      0.00000000 </i>
   </dipole>
   <energy>
    <i name="e_fr_energy">   -468.73657691 </i>
    <i name="e_wo_entrp">   -468.62902328 </i>
    <i name="e_0_energy">   -468.68280009 </i>
   </energy>
  </scstep>
  <scstep>
   <time name="dav">    1.22    1.22</time>
   <time name="total">    1.30    1.30</time>
   <dipole>
    <v name="dipole">      0.00000000       0.00000000       0.47760604 </v>
    <i name="Tr[quadrupol]">  -9367.47346582 </i>
    <i name="Echarged">      0.00000000 </i>
    <i name="Edipol_quadrupol">      0.00000000 </i>
    <i name="Eion">      0.00000000 </i>
   </dipole>
   <energy>
    <i name="e_fr_energy">   -468.73680332 </i>
    <i name="e_wo_entrp">   -468.62925220 </i>
    <i name="e_0_energy">   -468.68302776 </i>
   </energy>
  </scstep>
  <scstep>
   <time name="dav">    1.21    1.21</time>
   <time name="total">    1.29    1.30</time>
   <dipole>
    <v name="dipole">      0.00000000       0.00000000       0.47460406 </v>
    <i name="Tr[quadrupol]">  -9367.48186192 </i>
    <i name="Echarged">      0.00000000 </i>
    <i name="Edipol_quadrupol">      0.00000000 </i>
    <i name="Eion">      0.00000000 </i>
   </dipole>
   <energy>
    <i name="e_fr_energy">   -468.73686922 </i>
    <i name="e_wo_entrp">   -468.62934212 </i>
    <i name="e_0_energy">   -468.68310567 </i>
   </energy>
  </scstep>
  <scstep>
   <time name="dav">    1.18    1.18</time>
   <time name="total">    1.26    1.26</time>
   <dipole>
    <v name="dipole">      0.00000000       0.00000000       0.47273136 </v>
    <i name="Tr[quadrupol]">  -9367.48640534 </i>
    <i name="Echarged">      0.00000000 </i>
    <i name="Edipol_quadrupol">      0.00000000 </i>
    <i name="Eion">      0.00000000 </i>
   </dipole>
   <energy>
    <i name="e_fr_energy">   -468.73690551 </i>
    <i name="e_wo_entrp">   -468.62938615 </i>
    <i name="e_0_energy">   -468.68314583 </i>
   </energy>
  </scstep>
  <scstep>
   <time name="dav">    1.18    1.18</time>
   <time name="total">    1.27    1.27</time>
   <dipole>
    <v name="dipole">      0.00000000       0.00000000       0.47172381 </v>
    <i name="Tr[quadrupol]">  -9367.48896157 </i>
    <i name="Echarged">      0.00000000 </i>
    <i name="Edipol_quadrupol">      0.00000000 </i>
    <i name="Eion">      0.00000000 </i>
   </dipole>
   <energy>
    <i name="e_fr_energy">   -468.73691946 </i>
    <i name="e_wo_entrp">   -468.62939648 </i>
    <i name="e_0_energy">   -468.68315797 </i>
   </energy>
  </scstep>
  <scstep>
   <time name="dav">    1.20    1.20</time>
   <time name="total">    1.23    1.24</time>
   <dipole>
    <v name="dipole">      0.00000000       0.00000000       0.47162762 </v>
    <i name="Tr[quadrupol]">  -9367.49053476 </i>
    <i name="Echarged">      0.00000000 </i>
    <i name="Edipol_quadrupol">      0.00000000 </i>
    <i name="Eion">      0.00000000 </i>
   </dipole>
   <energy>
    <i name="alphaZ">    165.24517137 </i>
    <i name="ewald">  31603.61067379 </i>
    <i name="hartreedc"> -44457.54850728 </i>
    <i name="XCdc">    966.75581063 </i>
    <i name="pawpsdc">  31819.25136621 </i>
    <i name="pawaedc"> -31768.19595719 </i>
    <i name="eentropy">     -0.10751217 </i>
    <i name="bandstr">  -3565.08425776 </i>
    <i name="atom">  14767.33628989 </i>
    <i name="e_fr_energy">   -468.73692252 </i>
    <i name="e_wo_entrp">   -468.62941035 </i>
    <i name="e_0_energy">   -468.68316644 </i>
   </energy>
  </scstep>
  <structure>
   <crystal>
    <varray name="basis" >
     <v>      14.26590000       0.00000000       0.00000000 </v>
     <v>       0.00000000      12.35699650       0.00000000 </v>
     <v>       0.00000000       0.00000000      15.00000000 </v>
    </varray>
    <i name="volume">   2644.25514646 </i>
    <varray name="rec_basis" >
     <v>       0.07009722       0.00000000       0.00000000 </v>
     <v>       0.00000000       0.08092581       0.00000000 </v>
     <v>       0.00000000       0.00000000       0.06666667 </v>
    </varray>
   </crystal>
   <varray name="positions" >
    <v>       0.06537593       0.40364000       0.13333000 </v>
    <v>       0.98097748       0.23494000       0.13333000 </v>
    <v>       0.22593437       0.39820000       0.13333000 </v>
    <v>       0.81543575       0.57710000       0.13333000 </v>
    <v>       0.14973747       0.23490000       0.13333000 </v>
    <v>       0.90517930       0.39797000       0.13333000 </v>
    <v>       0.56537593       0.40364000       0.13333000 </v>
    <v>       0.48097748       0.23494000       0.13333000 </v>
    <v>       0.72593437       0.39820000       0.13333000 </v>
    <v>       0.31543575       0.57710000       0.13333000 </v>
    <v>       0.64973747       0.23490000       0.13333000 </v>
    <v>       0.40517930       0.39797000       0.13333000 </v>
    <v>       0.81551954       0.90364000       0.13333000 </v>
    <v>       0.73112108       0.73494000       0.13333000 </v>
    <v>       0.97607797       0.89820000       0.13333000 </v>
    <v>       0.06529214       0.07710000       0.13333000 </v>
    <v>       0.89988107       0.73490000       0.13333000 </v>
    <v>       0.65532291       0.89797000       0.13333000 </v>
    <v>       0.31551954       0.90364000       0.13333000 </v>
    <v>       0.23112108       0.73494000       0.13333000 </v>
    <v>       0.47607797       0.89820000       0.13333000 </v>
    <v>       0.56529214       0.07710000       0.13333000 </v>
    <v>       0.39988107       0.73490000       0.13333000 </v>
    <v>       0.15532291       0.89797000       0.13333000 </v>
    <v>       0.98400093       0.45588000       0.13333000 </v>
    <v>       0.90111835       0.29021000       0.13333000 </v>
    <v>       0.14710595       0.45595000       0.13333000 </v>
    <v>       0.14840652       0.12714000       0.13333000 </v>
    <v>       0.98256150       0.12707000       0.13333000 </v>
    <v>       0.22992331       0.29008000       0.13333000 </v>
    <v>       0.06536362       0.29116000       0.13333000 </v>
    <v>       0.81553147       0.45774000       0.13333000 </v>
    <v>       0.48400093       0.45588000       0.13333000 </v>
    <v>       0.40111835       0.29021000       0.13333000 </v>
    <v>       0.64710595       0.45595000       0.13333000 </v>
    <v>       0.64840652       0.12714000       0.13333000 </v>
    <v>       0.48256150       0.12707000       0.13333000 </v>
    <v>       0.72992331       0.29008000       0.13333000 </v>
    <v>       0.56536362       0.29116000       0.13333000 </v>
    <v>       0.31553147       0.45774000       0.13333000 </v>
    <v>       0.73414454       0.95588000       0.13333000 </v>
    <v>       0.65126196       0.79021000       0.13333000 </v>
    <v>       0.89724956       0.95595000       0.13333000 </v>
    <v>       0.89855012       0.62714000       0.13333000 </v>
    <v>       0.73270510       0.62707000       0.13333000 </v>
    <v>       0.98006692       0.79008000       0.13333000 </v>
    <v>       0.81550723       0.79116000       0.13333000 </v>
    <v>       0.56567507       0.95774000       0.13333000 </v>
    <v>       0.23414454       0.95588000       0.13333000 </v>
    <v>       0.15126196       0.79021000       0.13333000 </v>
    <v>       0.39724956       0.95595000       0.13333000 </v>
    <v>       0.39855012       0.62714000       0.13333000 </v>
    <v>       0.23270510       0.62707000       0.13333000 </v>
    <v>       0.48006692       0.79008000       0.13333000 </v>
    <v>       0.31550723       0.79116000       0.13333000 </v>
    <v>       0.06567507       0.95774000       0.13333000 </v>
    <v>       0.57212639       0.73516025       0.21645333 </v>
    <v>       0.65206172       0.57443857       0.21306333 </v>
    <v>       0.48966112       0.57467425       0.20988333 </v>
   </varray>
  </structure>
  <varray name="forces" >
   <v>       0.17735024       0.14243815       0.00816492 </v>
   <v>      -0.00891610      -0.36245315       0.00977886 </v>
   <v>      -0.06762599      -0.30068863       0.00399005 </v>
   <v>       2.51913331      -1.15308112      -0.35520741 </v>
   <v>       0.17468885      -0.24580838       0.01055642 </v>
   <v>       0.07219640      -0.11203678       0.01401324 </v>
   <v>       0.24606615      -1.58223804      -0.40644457 </v>
   <v>      -0.50707282      -0.97630360       0.04383157 </v>
   <v>       2.39723421      -1.65483872      -0.30578208 </v>
   <v>      -2.08251807      -1.54591073      -0.10015669 </v>
   <v>       0.64444748      -0.91103457       0.05011634 </v>
   <v>      -2.60542641      -1.26114879      -0.18693592 </v>
   <v>       0.53891272       0.77865342       0.04789756 </v>
   <v>       2.18216787       0.70631722      -1.02280411 </v>
   <v>       0.39625864       0.08945835       0.01870512 </v>
   <v>       0.19751330      -0.10213835       0.01120470 </v>
   <v>       0.91341839      -0.18039778       0.04357565 </v>
   <v>       0.02582654       2.98853617      -0.34883369 </v>
   <v>      -0.26213688       0.78404373       0.06799463 </v>
   <v>      -0.80997658      -0.27347942       0.05207196 </v>
   <v>      -0.00858490       2.63496132      -0.31242457 </v>
   <v>       0.13243037      -0.26352578       0.03714281 </v>
   <v>      -1.29810352       0.74038019      -0.47848355 </v>
   <v>      -0.52983843       0.31212414       0.04954879 </v>
   <v>      -0.08013375       0.15418306      -0.00212152 </v>
   <v>      -0.18496152       0.08593331      -0.00406757 </v>
   <v>      -0.09939924       0.10699814      -0.00126020 </v>
   <v>      -0.01277951       0.08446847      -0.00635536 </v>
   <v>      -0.16001053       0.19438100      -0.00576179 </v>
   <v>       0.07433371       0.17914746      -0.00200957 </v>
   <v>       0.02548759       0.04533659       0.00223938 </v>
   <v>      -0.39069255       0.15426661      -0.12709438 </v>
   <v>       0.52353996      -2.44400988      -1.75741840 </v>
   <v>       0.31923295       0.50270275      -0.09742090 </v>
   <v>      -0.93652012      -3.06372409      -2.36922733 </v>
   <v>       0.16457609       0.60556623      -0.03314462 </v>
   <v>      -0.28310492       0.61517291      -0.02335562 </v>
   <v>      -0.33167754       0.59567307      -0.08069455 </v>
   <v>      -0.01851831       0.96440501      -0.15151519 </v>
   <v>       0.38689331       0.21275313      -0.11520407 </v>
   <v>      -0.24441941      -0.39447696      -0.02327292 </v>
   <v>       4.77137115       2.27566390      -5.04105215 </v>
   <v>      -0.66996279      -0.07949799      -0.05046323 </v>
   <v>      -0.54935497       0.10144721      -0.01922254 </v>
   <v>       4.68027482       3.53531613      -5.23676140 </v>
   <v>      -0.39551547      -0.34968051      -0.04530106 </v>
   <v>      -0.67593213      -0.37246083      -0.00795926 </v>
   <v>      -0.12466004      -0.24688978      -0.17132547 </v>
   <v>       0.59290177      -0.02500425      -0.06871122 </v>
   <v>       0.29494107      -0.44008410      -0.04780488 </v>
   <v>       0.17344196      -0.49074810      -0.07376151 </v>
   <v>      -2.07077589       1.87080026      -1.99895255 </v>
   <v>       0.52412706       0.25775626      -0.13387794 </v>
   <v>      -2.75073877       1.04158806      -2.35823755 </v>
   <v>       0.76713389      -0.41245716      -0.05721092 </v>
   <v>      -0.04346810      -0.05019629       0.01297256 </v>
   <v>      -3.16424620       1.66284798       9.16086023 </v>
   <v>      -0.74068872      -3.43395381       9.03880334 </v>
   <v>      -1.80813961      -1.69505267       4.94417011 </v>
  </varray>
  <varray name="stress" >
   <v>      22.87628026       1.64706392      -4.18733175 </v>
   <v>       1.64706389      21.22350960      -2.40884334 </v>
   <v>      -4.18733178      -2.40884336       4.46262634 </v>
  </varray>
  <energy>
   <i name="e_fr_energy">   -468.73692252 </i>
   <i name="e_wo_entrp">   -468.62941035 </i>
   <i name="e_0_energy">   -468.68316644 </i>
  </energy>
  <time name="totalsc">   52.52   52.61</time>
 </calculation>
 <calculation>
  <scstep>
   <time name="dav">    1.57    1.57</time>
   <time name="total">    1.65    1.65</time>
   <dipole>
    <v name="dipole">      0.00000000       0.00000000       0.47191671 </v>
    <i name="Tr[quadrupol]">  -9470.25111236 </i>
    <i name="Echarged">      0.00000000 </i>
    <i name="Edipol_quadrupol">      0.00000000 </i>
    <i name="Eion">      0.00000000 </i>
   </dipole>
   <energy>
    <i name="alphaZ">    163.27471413 </i>
    <i name="ewald">  30861.30619363 </i>
    <i name="hartreedc"> -43710.08857075 </i>
    <i name="XCdc">    962.04645444 </i>
    <i name="pawpsdc">  31819.33651843 </i>
    <i name="pawaedc"> -31768.28117995 </i>
    <i name="eentropy">     -0.06993150 </i>
    <i name="bandstr">  -3567.13432371 </i>
    <i name="atom">  14767.33628989 </i>
    <i name="e_fr_energy">   -472.27383540 </i>
    <i name="e_wo_entrp">   -472.20390390 </i>
    <i name="e_0_energy">   -472.23886965 </i>
   </energy>
  </scstep>
  <scstep>
   <time name="dav">    1.69    1.70</time>
   <time name="total">    1.78    1.78</time>
   <dipole>
    <v name="dipole">      0.00000000       0.00000000       0.51609798 </v>
    <i name="Tr[quadrupol]">  -9469.81894501 </i>
    <i name="Echarged">      0.00000000 </i>
    <i name="Edipol_quadrupol">      0.00000000 </i>
    <i name="Eion">      0.00000000 </i>
   </dipole>
   <energy>
    <i name="e_fr_energy">   -472.77781201 </i>
    <i name="e_wo_entrp">   -472.70821163 </i>
    <i name="e_0_energy">   -472.74301182 </i>
   </energy>
  </scstep>
  <scstep>
   <time name="dav">    1.68    1.68</time>
   <time name="total">    1.76    1.76</time>
   <dipole>
    <v name="dipole">      0.00000000       0.00000000       0.49061200 </v>
    <i name="Tr[quadrupol]">  -9469.63701275 </i>
    <i name="Echarged">      0.00000000 </i>
    <i name="Edipol_quadrupol">      0.00000000 </i>
    <i name="Eion">      0.00000000 </i>
   </dipole>
   <energy>
    <i name="e_fr_energy">   -472.36014459 </i>
    <i name="e_wo_entrp">   -472.28475665 </i>
    <i name="e_0_energy">   -472.32245062 </i>
   </energy>
  </scstep>
  <scstep>
   <time name="dav">    1.72    1.72</time>
   <time name="total">    1.80    1.81</time>
   <dipole>
    <v name="dipole">      0.00000000       0.00000000       0.48859161 </v>
    <i name="Tr[quadrupol]">  -9469.52607792 </i>
    <i name="Echarged">      0.00000000 </i>
    <i name="Edipol_quadrupol">      0.00000000 </i>
    <i name="Eion">      0.00000000 </i>
   </dipole>
   <energy>
    <i name="e_fr_energy">   -472.35126941 </i>
    <i name="e_wo_entrp">   -472.27523084 </i>
    <i name="e_0_energy">   -472.31325012 </i>
   </energy>
  </scstep>
  <scstep>
   <time name="dav">    1.79    1.80</time>
   <time name="total">    1.88    1.88</time>
   <dipole>
    <v name="dipole">      0.00000000       0.00000000       0.46493297 </v>
    <i name="Tr[quadrupol]">  -9469.81078498 </i>
    <i name="Echarged">      0.00000000 </i>
    <i name="Edipol_quadrupol">      0.00000000 </i>
    <i name="Eion">      0.00000000 </i>
   </dipole>
   <energy>
    <i name="e_fr_energy">   -472.22349521 </i>
    <i name="e_wo_entrp">   -472.11092297 </i>
    <i name="e_0_energy">   -472.16720909 </i>
   </energy>
  </scstep>
  <scstep>
   <time name="dav">    1.68    1.68</time>
   <time name="total">    1.76    1.76</time>
   <dipole>
    <v name="dipole">      0.00000000       0.00000000       0.46289142 </v>
    <i name="Tr[quadrupol]">  -9469.78020833 </i>
    <i name="Echarged">      0.00000000 </i>
    <i name="Edipol_quadrupol">      0.00000000 </i>
    <i name="Eion">      0.00000000 </i>
   </dipole>
   <energy>
    <i name="e_fr_energy">   -472.18036897 </i>
    <i name="e_wo_entrp">   -472.05912104 </i>
    <i name="e_0_energy">   -472.11974501 </i>
   </energy>
  </scstep>
  <scstep>
   <time name="dav">    1.80    1.80</time>
   <time name="total">    1.88    1.88</time>
   <dipole>
    <v name="dipole">      0.00000000       0.00000000       0.46295751 </v>
    <i name="Tr[quadrupol]">  -9469.76916392 </i>
    <i name="Echarged">      0.00000000 </i>
    <i name="Edipol_quadrupol">      0.00000000 </i>
    <i name="Eion">      0.00000000 </i>
   </dipole>
   <energy>
    <i name="e_fr_energy">   -472.16485730 </i>
    <i name="e_wo_entrp">   -472.04502076 </i>
    <i name="e_0_energy">   -472.10493903 </i>
   </energy>
  </scstep>
  <scstep>
   <time name="dav">    1.78    1.78</time>
   <time name="total">    1.87    1.87</time>
   <dipole>
    <v name="dipole">      0.00000000       0.00000000       0.46451982 </v>
    <i name="Tr[quadrupol]">  -9469.76352673 </i>
    <i name="Echarged">      0.00000000 </i>
    <i name="Edipol_quadrupol">      0.00000000 </i>
    <i name="Eion">      0.00000000 </i>
   </dipole>
   <energy>
    <i name="e_fr_energy">   -472.15812218 </i>
    <i name="e_wo_entrp">   -472.03804599 </i>
    <i name="e_0_energy">   -472.09808408 </i>
   </energy>
  </scstep>
  <scstep>
   <time name="dav">    1.72    1.72</time>
   <time name="total">    1.81    1.82</time>
   <dipole>
    <v name="dipole">      0.00000000       0.00000000       0.46458135 </v>
    <i name="Tr[quadrupol]">  -9469.75883099 </i>
    <i name="Echarged">      0.00000000 </i>
    <i name="Edipol_quadrupol">      0.00000000 </i>
    <i name="Eion">      0.00000000 </i>
   </dipole>
   <energy>
    <i name="e_fr_energy">   -472.15705395 </i>
    <i name="e_wo_entrp">   -472.03887257 </i>
    <i name="e_0_energy">   -472.09796326 </i>
   </energy>
  </scstep>
  <scstep>
   <time name="dav">    1.84    1.85</time>
   <time name="total">    1.92    1.93</time>
   <dipole>
    <v name="dipole">      0.00000000       0.00000000       0.46329491 </v>
    <i name="Tr[quadrupol]">  -9469.75370898 </i>
    <i name="Echarged">      0.00000000 </i>
    <i name="Edipol_quadrupol">      0.00000000 </i>
    <i name="Eion">      0.00000000 </i>
   </dipole>
   <energy>
    <i name="e_fr_energy">   -472.15681966 </i>
    <i name="e_wo_entrp">   -472.03907299 </i>
    <i name="e_0_energy">   -472.09794632 </i>
   </energy>
  </scstep>
  <scstep>
   <time name="dav">    1.74    1.75</time>
   <time name="total">    1.83    1.83</time>
   <dipole>
    <v name="dipole">      0.00000000       0.00000000       0.46232066 </v>
    <i name="Tr[quadrupol]">  -9469.75097558 </i>
    <i name="Echarged">      0.00000000 </i>
    <i name="Edipol_quadrupol">      0.00000000 </i>
    <i name="Eion">      0.00000000 </i>
   </dipole>
   <energy>
    <i name="e_fr_energy">   -472.15733349 </i>
    <i name="e_wo_entrp">   -472.04003507 </i>
    <i name="e_0_energy">   -472.09868428 </i>
   </energy>
  </scstep>
  <scstep>
   <time name="dav">    1.77    1.77</time>
   <time name="total">    1.85    1.85</time>
   <dipole>
    <v name="dipole">      0.00000000       0.00000000       0.46149885 </v>
    <i name="Tr[quadrupol]">  -9469.74776622 </i>
    <i name="Echarged">      0.00000000 </i>
    <i name="Edipol_quadrupol">      0.00000000 </i>
    <i name="Eion">      0.00000000 </i>
   </dipole>
   <energy>
    <i name="e_fr_energy">   -472.15754123 </i>
    <i name="e_wo_entrp">   -472.04037324 </i>
    <i name="e_0_energy">   -472.09895723 </i>
   </energy>
  </scstep>
  <scstep>
   <time name="dav">    1.51    1.51</time>
   <time name="total">    1.60    1.60</time>
   <dipole>
    <v name="dipole">      0.00000000       0.00000000       0.45993481 </v>
    <i name="Tr[quadrupol]">  -9469.73961103 </i>
    <i name="Echarged">      0.00000000 </i>
    <i name="Edipol_quadrupol">      0.00000000 </i>
    <i name="Eion">      0.00000000 </i>
   </dipole>
   <energy>
    <i name="e_fr_energy">   -472.15775981 </i>
    <i name="e_wo_entrp">   -472.04078331 </i>
    <i name="e_0_energy">   -472.09927156 </i>
   </energy>
  </scstep>
  <scstep>
   <time name="dav">    1.48    1.48</time>
   <time name="total">    1.56    1.56</time>
   <dipole>
    <v name="dipole">      0.00000000       0.00000000       0.45904270 </v>
    <i name="Tr[quadrupol]">  -9469.73466079 </i>
    <i name="Echarged">      0.00000000 </i>
    <i name="Edipol_quadrupol">      0.00000000 </i>
    <i name="Eion">      0.00000000 </i>
   </dipole>
   <energy>
    <i name="e_fr_energy">   -472.15786098 </i>
    <i name="e_wo_entrp">   -472.04107141 </i>
    <i name="e_0_energy">   -472.09946620 </i>
   </energy>
  </scstep>
  <scstep>
   <time name="dav">    1.18    1.19</time>
   <time name="total">    1.27    1.27</time>
   <dipole>
    <v name="dipole">      0.00000000       0.00000000       0.45879946 </v>
    <i name="Tr[quadrupol]">  -9469.81960098 </i>
    <i name="Echarged">      0.00000000 </i>
    <i name="Edipol_quadrupol">      0.00000000 </i>
    <i name="Eion">      0.00000000 </i>
   </dipole>
   <energy>
    <i name="e_fr_energy">   -472.15787748 </i>
    <i name="e_wo_entrp">   -472.04105700 </i>
    <i name="e_0_energy">   -472.09946724 </i>
   </energy>
  </scstep>
  <scstep>
   <time name="dav">    1.20    1.20</time>
   <time name="total">    1.28    1.28</time>
   <dipole>
    <v name="dipole">      0.00000000       0.00000000       0.45778493 </v>
    <i name="Tr[quadrupol]">  -9469.81411350 </i>
    <i name="Echarged">      0.00000000 </i>
    <i name="Edipol_quadrupol">      0.00000000 </i>
    <i name="Eion">      0.00000000 </i>
   </dipole>
   <energy>
    <i name="e_fr_energy">   -472.15794525 </i>
    <i name="e_wo_entrp">   -472.04112986 </i>
    <i name="e_0_energy">   -472.09953756 </i>
   </energy>
  </scstep>
  <scstep>
   <time name="dav">    1.25    1.26</time>
   <time name="total">    1.34    1.34</time>
   <dipole>
    <v name="dipole">      0.00000000       0.00000000       0.45640596 </v>
    <i name="Tr[quadrupol]">  -9469.89289053 </i>
    <i name="Echarged">      0.00000000 </i>
    <i name="Edipol_quadrupol">      0.00000000 </i>
    <i name="Eion">      0.00000000 </i>
   </dipole>
   <energy>
    <i name="e_fr_energy">   -472.15801171 </i>
    <i name="e_wo_entrp">   -472.04118485 </i>
    <i name="e_0_energy">   -472.09959828 </i>
   </energy>
  </scstep>
  <scstep>
   <time name="dav">    1.22    1.22</time>
   <time name="total">    1.30    1.30</time>
   <dipole>
    <v name="dipole">      0.00000000       0.00000000       0.45558473 </v>
    <i name="Tr[quadrupol]">  -9469.97352678 </i>
    <i name="Echarged">      0.00000000 </i>
    <i name="Edipol_quadrupol">      0.00000000 </i>
    <i name="Eion">      0.00000000 </i>
   </dipole>
   <energy>
    <i name="e_fr_energy">   -472.15804209 </i>
    <i name="e_wo_entrp">   -472.04121699 </i>
    <i name="e_0_energy">   -472.09962954 </i>
   </energy>
  </scstep>
  <scstep>
   <time name="dav">    1.20    1.20</time>
   <time name="total">    1.30    1.30</time>
   <dipole>
    <v name="dipole">      0.00000000       0.00000000       0.45463345 </v>
    <i name="Tr[quadrupol]">  -9470.05184515 </i>
    <i name="Echarged">      0.00000000 </i>
    <i name="Edipol_quadrupol">      0.00000000 </i>
    <i name="Eion">      0.00000000 </i>
   </dipole>
   <energy>
    <i name="e_fr_energy">   -472.15806940 </i>
    <i name="e_wo_entrp">   -472.04123306 </i>
    <i name="e_0_energy">   -472.09965123 </i>
   </energy>
  </scstep>
  <scstep>
   <time name="dav">    1.18    1.18</time>
   <time name="total">    1.21    1.21</time>
   <dipole>
    <v name="dipole">      0.00000000       0.00000000       0.45432211 </v>
    <i name="Tr[quadrupol]">  -9470.13449603 </i>
    <i name="Echarged">      0.00000000 </i>
    <i name="Edipol_quadrupol">      0.00000000 </i>
    <i name="Eion">      0.00000000 </i>
   </dipole>
   <energy>
    <i name="alphaZ">    162.92930488 </i>
    <i name="ewald">  30861.30619363 </i>
    <i name="hartreedc"> -43737.59775378 </i>
    <i name="XCdc">    963.34531039 </i>
    <i name="pawpsdc">  30950.85581455 </i>
    <i name="pawaedc"> -30895.89218513 </i>
    <i name="eentropy">     -0.11683855 </i>
    <i name="bandstr">  -3544.32420955 </i>
    <i name="atom">  14767.33628989 </i>
    <i name="e_fr_energy">   -472.15807366 </i>
    <i name="e_wo_entrp">   -472.04123512 </i>
    <i name="e_0_energy">   -472.09965439 </i>
   </energy>
  </scstep>
  <structure>
   <crystal>
    <varray name="basis" >
     <v>      14.35398187       0.00000000       0.00000000 </v>
     <v>       0.00000000      12.42778001       0.00000000 </v>
     <v>       0.00000000       0.00000000      15.00000000 </v>
    </varray>
    <i name="volume">   2675.82193498 </i>
    <varray name="rec_basis" >
     <v>       0.06966708       0.00000000       0.00000000 </v>
     <v>       0.00000000       0.08046489       0.00000000 </v>
     <v>       0.00000000       0.00000000       0.06666667 </v>
    </varray>
   </crystal>
   <varray name="positions" >
    <v>       0.06549588       0.40375122       0.13333525 </v>
    <v>       0.98097145       0.23465699       0.13333629 </v>
    <v>       0.22588863       0.39796522       0.13333257 </v>
    <v>       0.81713953       0.57619966       0.13310152 </v>
    <v>       0.14985561       0.23470807       0.13333679 </v>
    <v>       0.90522813       0.39788252       0.13333901 </v>
    <v>       0.56554235       0.40240456       0.13306856 </v>
    <v>       0.48063453       0.23417769       0.13335819 </v>
    <v>       0.72755570       0.39690788       0.13313331 </v>
    <v>       0.31402727       0.57589293       0.13326558 </v>
    <v>       0.65017333       0.23418865       0.13336224 </v>
    <v>       0.40341716       0.39698528       0.13320976 </v>
    <v>       0.81588402       0.90424798       0.13336081 </v>
    <v>       0.73259696       0.73549150       0.13267210 </v>
    <v>       0.97634598       0.89826985       0.13334203 </v>
    <v>       0.06542573       0.07702025       0.13333721 </v>
    <v>       0.90049885       0.73475914       0.13335803 </v>
    <v>       0.65534038       0.90030349       0.13310562 </v>
    <v>       0.31534224       0.90425219       0.13337374 </v>
    <v>       0.23057327       0.73472646       0.13336349 </v>
    <v>       0.47607217       0.90025742       0.13312904 </v>
    <v>       0.56538171       0.07689424       0.13335389 </v>
    <v>       0.39900312       0.73547810       0.13302222 </v>
    <v>       0.15496456       0.89821371       0.13336187 </v>
    <v>       0.98394674       0.45600039       0.13332864 </v>
    <v>       0.90099326       0.29027710       0.13332738 </v>
    <v>       0.14703873       0.45603355       0.13332919 </v>
    <v>       0.14839787       0.12720595       0.13332591 </v>
    <v>       0.98245328       0.12722178       0.13332629 </v>
    <v>       0.22997359       0.29021988       0.13332871 </v>
    <v>       0.06538086       0.29119540       0.13333144 </v>
    <v>       0.81526723       0.45786045       0.13324825 </v>
    <v>       0.48435502       0.45397168       0.13219957 </v>
    <v>       0.40133426       0.29060252       0.13326734 </v>
    <v>       0.64647255       0.45355780       0.13180603 </v>
    <v>       0.64851782       0.12761284       0.13330868 </v>
    <v>       0.48237002       0.12755034       0.13331498 </v>
    <v>       0.72969899       0.29054511       0.13327809 </v>
    <v>       0.56535110       0.29191302       0.13323254 </v>
    <v>       0.31579314       0.45790612       0.13325590 </v>
    <v>       0.73397923       0.95557199       0.13331503 </v>
    <v>       0.65448900       0.79198687       0.13008742 </v>
    <v>       0.89679644       0.95588793       0.13329754 </v>
    <v>       0.89817857       0.62721921       0.13331764 </v>
    <v>       0.73587054       0.62983043       0.12996153 </v>
    <v>       0.97979942       0.78980696       0.13330086 </v>
    <v>       0.81505007       0.79086918       0.13332488 </v>
    <v>       0.56559076       0.95754722       0.13321980 </v>
    <v>       0.23454554       0.95586048       0.13328580 </v>
    <v>       0.15146144       0.78986638       0.13329925 </v>
    <v>       0.39736687       0.95556682       0.13328255 </v>
    <v>       0.39714958       0.62860075       0.13204420 </v>
    <v>       0.23305959       0.62727126       0.13324388 </v>
    <v>       0.47820650       0.79089329       0.13181310 </v>
    <v>       0.31602607       0.79083795       0.13329320 </v>
    <v>       0.06564568       0.95770081       0.13333834 </v>
    <v>       0.56998630       0.73645863       0.22234592 </v>
    <v>       0.65156076       0.57175729       0.21887741 </v>
    <v>       0.48843821       0.57335073       0.21306360 </v>
   </varray>
  </structure>
  <varray name="forces" >
   <v>       0.02305832       0.05450620       0.00789613 </v>
   <v>      -0.00425780      -0.03937433       0.00721020 </v>
   <v>      -0.30569831      -0.21262837      -0.01262788 </v>
   <v>       1.22416588      -0.01885811      -0.44630300 </v>
   <v>       0.07030112      -0.03283290       0.00747360 </v>
   <v>       0.35918604      -0.21223022       0.00607474 </v>
   <v>       0.00257998      -1.66306069      -0.52990510 </v>
   <v>      -0.22051130       0.06466960       0.01792962 </v>
   <v>       0.51707795      -0.72881875      -0.33509988 </v>
   <v>      -0.86481661      -0.33543342      -0.13193193 </v>
   <v>       0.16657283      -0.02693517       0.00525650 </v>
   <v>      -0.76245697      -0.59238232      -0.17532723 </v>
   <v>      -0.04429438       0.10413761       0.03222139 </v>
   <v>       1.91342303       1.24014651      -1.07711605 </v>
   <v>      -0.14720708      -0.08146931      -0.00843256 </v>
   <v>       0.03587484       0.19837779       0.00934843 </v>
   <v>       0.13217244      -0.12183429       0.02370966 </v>
   <v>       0.53819638       1.03672439      -0.40245596 </v>
   <v>       0.03499778       0.06034184       0.01822591 </v>
   <v>      -0.04027994      -0.21974082       0.02324817 </v>
   <v>      -0.34476960       0.79803865      -0.31383884 </v>
   <v>      -0.08246340       0.26648880       0.00004936 </v>
   <v>      -1.26983583       0.91214346      -0.57924025 </v>
   <v>       0.02465191      -0.14223153       0.01544617 </v>
   <v>      -0.05768008      -0.21890747      -0.00075754 </v>
   <v>       0.17621364       0.16275314      -0.00149983 </v>
   <v>       0.03433733      -0.23569871       0.00223704 </v>
   <v>      -0.26856961       0.11019715      -0.00363863 </v>
   <v>       0.25728551       0.08740832      -0.00647921 </v>
   <v>      -0.22334479       0.18196280       0.00088266 </v>
   <v>       0.03923384      -0.00981894       0.00503081 </v>
   <v>       0.18506641      -0.13714372      -0.12224987 </v>
   <v>      -0.42418656      -1.20284046      -1.01931200 </v>
   <v>       0.11740883      -0.08165993      -0.01514854 </v>
   <v>       0.43599321      -1.31104229      -1.39114935 </v>
   <v>      -0.23516210       0.12135810      -0.00573514 </v>
   <v>       0.33189947      -0.05502055      -0.00856211 </v>
   <v>      -0.03205215      -0.09701679      -0.01829547 </v>
   <v>       0.02470300      -0.34403274      -0.11093995 </v>
   <v>      -0.28347895      -0.16795617      -0.16903140 </v>
   <v>       0.20344662       0.29500782       0.09204062 </v>
   <v>       0.76734591       0.84970453      -2.16261921 </v>
   <v>       0.06296116      -0.24689285      -0.04244319 </v>
   <v>       0.29101703       0.08212632       0.08860273 </v>
   <v>       1.18043865       0.17263193      -2.18293616 </v>
   <v>      -0.22685617       0.18232773      -0.03110420 </v>
   <v>       0.68941435       0.37868256       0.12296199 </v>
   <v>      -0.08679247       0.48854253      -0.17642064 </v>
   <v>       0.01318039      -0.19425922      -0.03797226 </v>
   <v>       0.11278427       0.29703437      -0.03413891 </v>
   <v>      -0.06488900       0.04986517      -0.01534863 </v>
   <v>      -1.17903645       0.24607496      -1.12235848 </v>
   <v>       0.05000420       0.13543912      -0.02708352 </v>
   <v>      -0.89950118       0.99150820      -1.45310060 </v>
   <v>      -0.21919739       0.17354192      -0.00284973 </v>
   <v>      -0.03398632      -0.01730442       0.02007024 </v>
   <v>      -0.89022749       2.12935689       5.38988574 </v>
   <v>       1.27343166      -1.72967405       5.19251903 </v>
   <v>      -2.07687206      -1.39399989       3.08513254 </v>
  </varray>
  <varray name="stress" >
   <v>       3.56162503       1.28831554      -1.27271213 </v>
   <v>       1.28831557       3.76057240      -0.64188301 </v>
   <v>      -1.27271213      -0.64188302      -2.00613845 </v>
  </varray>
  <energy>
   <i name="e_fr_energy">   -472.15807366 </i>
   <i name="e_wo_entrp">   -472.04123512 </i>
   <i name="e_0_energy">   -472.09965439 </i>
  </energy>
  <time name="totalsc">   34.04   34.09</time>
 </calculation>
 <calculation>
  <scstep>
   <time name="dav">    1.60    1.61</time>
   <time name="total">    1.69    1.69</time>
   <dipole>
    <v name="dipole">      0.00000000       0.00000000       0.45410776 </v>
    <i name="Tr[quadrupol]">  -9608.97774285 </i>
    <i name="Echarged">      0.00000000 </i>
    <i name="Edipol_quadrupol">      0.00000000 </i>
    <i name="Eion">      0.00000000 </i>
   </dipole>
   <energy>
    <i name="alphaZ">    161.20346643 </i>
    <i name="ewald">  29906.94691348 </i>
    <i name="hartreedc"> -42767.37494348 </i>
    <i name="XCdc">    957.38291751 </i>
    <i name="pawpsdc">  30950.85033075 </i>
    <i name="pawaedc"> -30895.88660563 </i>
    <i name="eentropy">     -0.01991382 </i>
    <i name="bandstr">  -3553.84500985 </i>
    <i name="atom">  14767.33628989 </i>
    <i name="e_fr_energy">   -473.40655472 </i>
    <i name="e_wo_entrp">   -473.38664090 </i>
    <i name="e_0_energy">   -473.39659781 </i>
   </energy>
  </scstep>
  <scstep>
   <time name="dav">    1.73    1.73</time>
   <time name="total">    1.81    1.81</time>
   <dipole>
    <v name="dipole">      0.00000000       0.00000000       0.50787125 </v>
    <i name="Tr[quadrupol]">  -9609.23905073 </i>
    <i name="Echarged">      0.00000000 </i>
    <i name="Edipol_quadrupol">      0.00000000 </i>
    <i name="Eion">      0.00000000 </i>
   </dipole>
   <energy>
    <i name="e_fr_energy">   -474.91465773 </i>
    <i name="e_wo_entrp">   -474.82021479 </i>
    <i name="e_0_energy">   -474.86743626 </i>
   </energy>
  </scstep>
  <scstep>
   <time name="dav">    1.68    1.69</time>
   <time name="total">    1.76    1.77</time>
   <dipole>
    <v name="dipole">      0.00000000       0.00000000       0.43675599 </v>
    <i name="Tr[quadrupol]">  -9608.60830500 </i>
    <i name="Echarged">      0.00000000 </i>
[...]
       <r>    1.9650    0.0000 </r>
       <r>    2.0344    0.0000 </r>
       <r>    2.0799    0.0000 </r>
       <r>    2.2607    0.0000 </r>
       <r>    2.2974    0.0000 </r>
       <r>    2.4271    0.0000 </r>
       <r>    2.4513    0.0000 </r>
       <r>    2.5481    0.0000 </r>
       <r>    2.6341    0.0000 </r>
      </set>
     </set>
    </set>
   </array>
  </eigenvalues>
  <separator name="orbital magnetization" >
   <v name="MAGDIPOLOUT">      0.00000000      0.00000000      0.00000000</v>
  </separator>
  <dos>
   <i name="efermi">     -2.57709872 </i>
   <total>
    <array>
     <dimension dim="1">gridpoints</dimension>
     <dimension dim="2">spin</dimension>
     <field>energy</field>
     <field>total</field>
     <field>integrated</field>
     <set>
      <set comment="spin 1">
       <r>   -27.9644     0.0000     0.0000 </r>
       <r>   -27.8573     0.0000     0.0000 </r>
       <r>   -27.7501     0.0000     0.0000 </r>
       <r>   -27.6430     0.0000     0.0000 </r>
       <r>   -27.5359     0.0000     0.0000 </r>
       <r>   -27.4288     0.0000     0.0000 </r>
       <r>   -27.3216     0.0000     0.0000 </r>
       <r>   -27.2145     0.0000     0.0000 </r>
       <r>   -27.1074     0.0000     0.0000 </r>
       <r>   -27.0002     0.0000     0.0000 </r>
       <r>   -26.8931     0.0000     0.0000 </r>
       <r>   -26.7860     0.0004     0.0000 </r>
       <r>   -26.6789     0.0995     0.0107 </r>
       <r>   -26.5717     2.6880     0.2987 </r>
       <r>   -26.4646     9.9470     1.3643 </r>
       <r>   -26.3575     5.5482     1.9587 </r>
       <r>   -26.2503     2.4864     2.2250 </r>
       <r>   -26.1432    13.1886     3.6379 </r>
       <r>   -26.0361    16.9979     5.4589 </r>
       <r>   -25.9290     4.7933     5.9724 </r>
       <r>   -25.8218     0.6387     6.0408 </r>
       <r>   -25.7147     5.0025     6.5767 </r>
       <r>   -25.6076     9.9845     7.6463 </r>
       <r>   -25.5004     3.1547     7.9843 </r>
       <r>   -25.3933     0.1504     8.0004 </r>
       <r>   -25.2862     0.3921     8.0424 </r>
       <r>   -25.1790     4.8403     8.5609 </r>
       <r>   -25.0719    12.7327     9.9250 </r>
       <r>   -24.9648    13.4261    11.3633 </r>
       <r>   -24.8577    10.0701    12.4421 </r>
       <r>   -24.7505     7.8648    13.2847 </r>
       <r>   -24.6434     9.0486    14.2540 </r>
       <r>   -24.5363     8.8045    15.1972 </r>
       <r>   -24.4291     2.6782    15.4841 </r>
       <r>   -24.3220     0.1559    15.5008 </r>
       <r>   -24.2149     0.5243    15.5570 </r>
       <r>   -24.1078     5.4740    16.1434 </r>
       <r>   -24.0006    15.8909    17.8458 </r>
       <r>   -23.8935    17.3444    19.7039 </r>
       <r>   -23.7864    12.9515    21.0914 </r>
       <r>   -23.6792    13.1581    22.5010 </r>
       <r>   -23.5721    12.8326    23.8757 </r>
       <r>   -23.4650     5.2893    24.4424 </r>
       <r>   -23.3579     1.0344    24.5532 </r>
       <r>   -23.2507     4.6250    25.0487 </r>
       <r>   -23.1436     9.0576    26.0190 </r>
       <r>   -23.0365     8.1043    26.8872 </r>
       <r>   -22.9293     8.2174    27.7675 </r>
       <r>   -22.8222    12.6555    29.1233 </r>
       <r>   -22.7151    13.5719    30.5772 </r>
       <r>   -22.6080     9.2752    31.5709 </r>
       <r>   -22.5008     3.4623    31.9418 </r>
       <r>   -22.3937     0.5291    31.9985 </r>
       <r>   -22.2866     0.0990    32.0091 </r>
       <r>   -22.1794     2.7562    32.3043 </r>
       <r>   -22.0723    15.5667    33.9720 </r>
       <r>   -21.9652    24.6292    36.6105 </r>
       <r>   -21.8580    20.5447    38.8114 </r>
       <r>   -21.7509    21.6051    41.1260 </r>
       <r>   -21.6438    22.9706    43.5868 </r>
       <r>   -21.5367    18.9031    45.6119 </r>
       <r>   -21.4295    15.5068    47.2731 </r>
       <r>   -21.3224     6.2581    47.9435 </r>
       <r>   -21.2153     0.8880    48.0386 </r>
       <r>   -21.1081     5.0541    48.5801 </r>
       <r>   -21.0010    17.2739    50.4306 </r>
       <r>   -20.8939    20.4855    52.6252 </r>
       <r>   -20.7868    19.8196    54.7485 </r>
       <r>   -20.6796    19.5134    56.8389 </r>
       <r>   -20.5725     9.7632    57.8849 </r>
       <r>   -20.4654     2.7253    58.1768 </r>
       <r>   -20.3582    11.8415    59.4454 </r>
       <r>   -20.2511    17.7711    61.3492 </r>
       <r>   -20.1440     5.8513    61.9760 </r>
       <r>   -20.0369     3.2154    62.3205 </r>
       <r>   -19.9297     9.9961    63.3914 </r>
       <r>   -19.8226     5.2733    63.9563 </r>
       <r>   -19.7155     0.4040    63.9996 </r>
       <r>   -19.6083     0.0040    64.0000 </r>
       <r>   -19.5012     0.0000    64.0000 </r>
       <r>   -19.3941     0.0000    64.0000 </r>
       <r>   -19.2870     0.0000    64.0000 </r>
       <r>   -19.1798     0.0000    64.0000 </r>
       <r>   -19.0727     0.0000    64.0000 </r>
       <r>   -18.9656     0.0000    64.0000 </r>
       <r>   -18.8584     0.0000    64.0000 </r>
       <r>   -18.7513     0.0000    64.0000 </r>
       <r>   -18.6442     0.0000    64.0000 </r>
       <r>   -18.5370     0.0000    64.0000 </r>
       <r>   -18.4299     0.0000    64.0000 </r>
       <r>   -18.3228     0.0000    64.0000 </r>
       <r>   -18.2157     0.0000    64.0000 </r>
       <r>   -18.1085     0.0000    64.0000 </r>
       <r>   -18.0014     0.0000    64.0000 </r>
       <r>   -17.8943     0.0000    64.0000 </r>
       <r>   -17.7871     0.0005    64.0001 </r>
       <r>   -17.6800     0.0906    64.0098 </r>
       <r>   -17.5729     2.4670    64.2740 </r>
       <r>   -17.4658    12.0521    65.5652 </r>
       <r>   -17.3586    16.4719    67.3298 </r>
       <r>   -17.2515    14.4359    68.8763 </r>
       <r>   -17.1444    14.1462    70.3918 </r>
       <r>   -17.0372    16.5252    72.1621 </r>
       <r>   -16.9301    18.2056    74.1124 </r>
       <r>   -16.8230    17.4364    75.9804 </r>
       <r>   -16.7159    11.6382    77.2272 </r>
       <r>   -16.6087    10.3042    78.3310 </r>
       <r>   -16.5016     7.1908    79.1014 </r>
       <r>   -16.3945     4.5812    79.5922 </r>
       <r>   -16.2873     3.1307    79.9275 </r>
       <r>   -16.1802     0.6542    79.9976 </r>
       <r>   -16.0731     0.0220    80.0000 </r>
       <r>   -15.9660     0.0022    80.0002 </r>
       <r>   -15.8588     0.2566    80.0277 </r>
       <r>   -15.7517     4.1939    80.4770 </r>
       <r>   -15.6446    13.2602    81.8976 </r>
       <r>   -15.5374    19.0125    83.9344 </r>
       <r>   -15.4303    20.0571    86.0831 </r>
       <r>   -15.3232    11.2142    87.2844 </r>
       <r>   -15.2160     3.7697    87.6883 </r>
       <r>   -15.1089     2.6908    87.9765 </r>
       <r>   -15.0018     3.2542    88.3251 </r>
       <r>   -14.8947     4.7723    88.8364 </r>
       <r>   -14.7875     1.5807    89.0057 </r>
       <r>   -14.6804     1.6122    89.1785 </r>
       <r>   -14.5733     4.5732    89.6684 </r>
       <r>   -14.4661     9.2509    90.6594 </r>
       <r>   -14.3590    11.8081    91.9244 </r>
       <r>   -14.2519    15.6059    93.5962 </r>
       <r>   -14.1448    15.2339    95.2282 </r>
       <r>   -14.0376    15.5623    96.8954 </r>
       <r>   -13.9305    20.5062    99.0922 </r>
       <r>   -13.8234    24.9568   101.7658 </r>
       <r>   -13.7162    22.0542   104.1285 </r>
       <r>   -13.6091    20.3275   106.3061 </r>
       <r>   -13.5020    16.8145   108.1074 </r>
       <r>   -13.3949    16.1700   109.8397 </r>
       <r>   -13.2877    15.9198   111.5452 </r>
       <r>   -13.1806    17.1839   113.3861 </r>
       <r>   -13.0735    12.7889   114.7562 </r>
       <r>   -12.9663     8.7475   115.6933 </r>
       <r>   -12.8592    10.3360   116.8006 </r>
       <r>   -12.7521     8.8166   117.7451 </r>
       <r>   -12.6450     5.6419   118.3495 </r>
       <r>   -12.5378     1.3555   118.4947 </r>
       <r>   -12.4307     0.3674   118.5340 </r>
       <r>   -12.3236     4.3843   119.0037 </r>
       <r>   -12.2164    14.9524   120.6056 </r>
       <r>   -12.1093    17.8215   122.5148 </r>
       <r>   -12.0022    15.3803   124.1624 </r>
       <r>   -11.8950    20.4739   126.3558 </r>
       <r>   -11.7879    17.6344   128.2449 </r>
       <r>   -11.6808    13.2885   129.6685 </r>
       <r>   -11.5737    17.5974   131.5537 </r>
       <r>   -11.4665    17.2194   133.3984 </r>
       <r>   -11.3594    16.4006   135.1554 </r>
       <r>   -11.2523    16.5703   136.9306 </r>
       <r>   -11.1451    15.4634   138.5871 </r>
       <r>   -11.0380    11.3607   139.8042 </r>
       <r>   -10.9309    11.5333   141.0398 </r>
       <r>   -10.8238    12.6576   142.3958 </r>
       <r>   -10.7166     9.4015   143.4029 </r>
       <r>   -10.6095     8.3573   144.2982 </r>
       <r>   -10.5024    11.7341   145.5553 </r>
       <r>   -10.3952    15.8495   147.2532 </r>
       <r>   -10.2881    11.6630   148.5027 </r>
       <r>   -10.1810     9.6361   149.5350 </r>
       <r>   -10.0739    12.0991   150.8312 </r>
       <r>    -9.9667    12.6663   152.1881 </r>
       <r>    -9.8596    14.4337   153.7344 </r>
       <r>    -9.7525    14.8164   155.3216 </r>
       <r>    -9.6453    16.2978   157.0676 </r>
       <r>    -9.5382    15.0710   158.6821 </r>
       <r>    -9.4311    11.6510   159.9303 </r>
       <r>    -9.3240    15.1810   161.5566 </r>
       <r>    -9.2168    17.2349   163.4030 </r>
       <r>    -9.1097    16.5420   165.1751 </r>
       <r>    -9.0026    11.4375   166.4004 </r>
       <r>    -8.8954    10.7854   167.5558 </r>
       <r>    -8.7883     6.3171   168.2326 </r>
       <r>    -8.6812    11.3331   169.4467 </r>
       <r>    -8.5740    11.4432   170.6726 </r>
       <r>    -8.4669     8.8519   171.6209 </r>
       <r>    -8.3598    11.7085   172.8752 </r>
       <r>    -8.2527    12.8478   174.2516 </r>
       <r>    -8.1455    16.4350   176.0122 </r>
       <r>    -8.0384    19.6767   178.1202 </r>
       <r>    -7.9313    13.7433   179.5925 </r>
       <r>    -7.8241     5.0203   180.1303 </r>
       <r>    -7.7170     8.6987   181.0622 </r>
       <r>    -7.6099    18.9861   183.0961 </r>
       <r>    -7.5028    29.3339   186.2387 </r>
       <r>    -7.3956    35.3319   190.0237 </r>
       <r>    -7.2885    30.3498   193.2751 </r>
       <r>    -7.1814    29.3976   196.4244 </r>
       <r>    -7.0742    26.3377   199.2459 </r>
       <r>    -6.9671    21.0636   201.5025 </r>
       <r>    -6.8600    19.0506   203.5433 </r>
       <r>    -6.7529    14.6596   205.1138 </r>
       <r>    -6.6457    26.5803   207.9613 </r>
       <r>    -6.5386    26.8016   210.8326 </r>
       <r>    -6.4315    17.7623   212.7354 </r>
       <r>    -6.3243    23.8373   215.2891 </r>
       <r>    -6.2172    28.2021   218.3103 </r>
       <r>    -6.1101    29.7395   221.4963 </r>
       <r>    -6.0030    25.3800   224.2152 </r>
       <r>    -5.8958    17.4041   226.0797 </r>
       <r>    -5.7887    14.5963   227.6434 </r>
       <r>    -5.6816    17.1278   229.4783 </r>
       <r>    -5.5744    26.9751   232.3681 </r>
       <r>    -5.4673    29.8379   235.5646 </r>
       <r>    -5.3602    32.9037   239.0896 </r>
       <r>    -5.2530    29.6058   242.2612 </r>
       <r>    -5.1459    28.8334   245.3501 </r>
       <r>    -5.0388    30.1078   248.5755 </r>
       <r>    -4.9317    26.1542   251.3774 </r>
       <r>    -4.8245    23.5179   253.8968 </r>
       <r>    -4.7174    24.9146   256.5659 </r>
       <r>    -4.6103    28.3293   259.6008 </r>
       <r>    -4.5031    27.5340   262.5505 </r>
       <r>    -4.3960    32.3542   266.0166 </r>
       <r>    -4.2889    35.7351   269.8448 </r>
       <r>    -4.1818    31.2088   273.1882 </r>
       <r>    -4.0746    24.8896   275.8546 </r>
       <r>    -3.9675    21.7604   278.1858 </r>
       <r>    -3.8604    20.5828   280.3908 </r>
       <r>    -3.7532    12.3463   281.7134 </r>
       <r>    -3.6461     2.7646   282.0096 </r>
       <r>    -3.5390     3.8006   282.4168 </r>
       <r>    -3.4319    12.5908   283.7656 </r>
       <r>    -3.3247    14.0231   285.2679 </r>
       <r>    -3.2176     6.2875   285.9415 </r>
       <r>    -3.1105     0.6396   286.0100 </r>
       <r>    -3.0033     2.6876   286.2979 </r>
       <r>    -2.8962     9.9472   287.3635 </r>
       <r>    -2.7891     5.5024   287.9530 </r>
       <r>    -2.6820     0.4344   287.9995 </r>
       <r>    -2.5748     0.0043   288.0000 </r>
       <r>    -2.4677     0.0038   288.0004 </r>
       <r>    -2.3606     0.2624   288.0285 </r>
       <r>    -2.2534     2.6695   288.3145 </r>
       <r>    -2.1463     5.5969   288.9141 </r>
       <r>    -2.0392     6.7327   289.6354 </r>
       <r>    -1.9320     9.9211   290.6982 </r>
       <r>    -1.8249    10.0345   291.7732 </r>
       <r>    -1.7178     6.5409   292.4739 </r>
       <r>    -1.6107     8.7789   293.4144 </r>
       <r>    -1.5035    11.5284   294.6494 </r>
       <r>    -1.3964    14.9370   296.2496 </r>
       <r>    -1.2893    15.9899   297.9626 </r>
       <r>    -1.1821    15.0285   299.5725 </r>
       <r>    -1.0750    11.2323   300.7759 </r>
       <r>    -0.9679     7.9196   301.6243 </r>
       <r>    -0.8608    13.5218   303.0729 </r>
       <r>    -0.7536    16.1956   304.8079 </r>
       <r>    -0.6465    15.9339   306.5149 </r>
       <r>    -0.5394    18.0942   308.4533 </r>
       <r>    -0.4322    20.4379   310.6428 </r>
       <r>    -0.3251    15.9949   312.3563 </r>
       <r>    -0.2180    12.0439   313.6465 </r>
       <r>    -0.1109     3.1430   313.9832 </r>
       <r>    -0.0037     0.2596   314.0111 </r>
       <r>     0.1034     2.4586   314.2744 </r>
       <r>     0.2105     9.2515   315.2655 </r>
       <r>     0.3177     6.1481   315.9242 </r>
       <r>     0.4248     0.6971   315.9989 </r>
       <r>     0.5319     0.1543   316.0154 </r>
       <r>     0.6390     2.8637   316.3222 </r>
       <r>     0.7462     9.4876   317.3386 </r>
       <r>     0.8533     5.9674   317.9779 </r>
       <r>     0.9604     5.3673   318.5528 </r>
       <r>     1.0676    10.9092   319.7215 </r>
       <r>     1.1747    10.1251   320.8062 </r>
       <r>     1.2818    15.7662   322.4952 </r>
       <r>     1.3890    16.8985   324.3056 </r>
       <r>     1.4961    14.3850   325.8466 </r>
       <r>     1.6032    18.9985   327.8819 </r>
       <r>     1.7103    21.1009   330.1424 </r>
       <r>     1.8175    16.2033   331.8783 </r>
       <r>     1.9246    14.7879   333.4625 </r>
       <r>     2.0317    22.6997   335.8943 </r>
       <r>     2.1389    25.0482   338.5777 </r>
       <r>     2.2460    23.1502   341.0577 </r>
       <r>     2.3531    22.6661   343.4859 </r>
       <r>     2.4602    22.9545   345.9450 </r>
       <r>     2.5674    21.1953   348.2157 </r>
       <r>     2.6745    20.8761   350.4521 </r>
       <r>     2.7816    12.2074   351.7599 </r>
       <r>     2.8888     2.1691   351.9922 </r>
       <r>     2.9959     0.0722   352.0000 </r>
       <r>     3.1030     0.0003   352.0000 </r>
       <r>     3.2101     0.0000   352.0000 </r>
       <r>     3.3173     0.0000   352.0000 </r>
       <r>     3.4244     0.0000   352.0000 </r>
       <r>     3.5315     0.0000   352.0000 </r>
       <r>     3.6387     0.0000   352.0000 </r>
       <r>     3.7458     0.0000   352.0000 </r>
       <r>     3.8529     0.0000   352.0000 </r>
       <r>     3.9600     0.0000   352.0000 </r>
       <r>     4.0672     0.0000   352.0000 </r>
       <r>     4.1743     0.0000   352.0000 </r>
      </set>
     </set>
    </array>
   </total>
  </dos>
 </calculation>
 <structure name="finalpos" >
  <crystal>
   <varray name="basis" >
    <v>      13.23231055       0.00000000       0.00000000 </v>
    <v>       0.00000000      11.72901503       0.00000000 </v>
    <v>       0.00000000       0.00000000      15.00000000 </v>
   </varray>
   <i name="volume">   2328.02954048 </i>
   <varray name="rec_basis" >
    <v>       0.07557259       0.00000000       0.00000000 </v>
    <v>       0.00000000       0.08525865       0.00000000 </v>
    <v>       0.00000000       0.00000000       0.06666667 </v>
   </varray>
  </crystal>
  <varray name="positions" >
   <v>       0.05382709       0.39367858       0.11353893 </v>
   <v>       0.99745220       0.24260224       0.21601623 </v>
   <v>       0.21815638       0.38945250       0.07731118 </v>
   <v>       0.80965198       0.57284922       0.18763698 </v>
   <v>       0.15515495       0.22690044       0.13620498 </v>
   <v>       0.90331896       0.39623166       0.18319602 </v>
   <v>       0.55445431       0.38440763       0.13698469 </v>
   <v>       0.48951044       0.23707418       0.04025149 </v>
   <v>       0.72465551       0.38957201       0.15908494 </v>
   <v>       0.30532950       0.57735033       0.07090324 </v>
   <v>       0.66623011       0.23794718       0.08053836 </v>
   <v>       0.39917210       0.39514171       0.07053896 </v>
   <v>       0.82263222       0.91130803       0.16303530 </v>
   <v>       0.73690994       0.73410107       0.13509789 </v>
   <v>       0.98312586       0.90189760       0.21544279 </v>
   <v>       0.08222152       0.07689852       0.20517521 </v>
   <v>       0.89621104       0.73531607       0.21849658 </v>
   <v>       0.66638074       0.90409298       0.10093369 </v>
   <v>       0.33218762       0.89956628       0.15140686 </v>
   <v>       0.22609598       0.73602662       0.12074011 </v>
   <v>       0.48235567       0.90539493       0.07768140 </v>
   <v>       0.58304388       0.07755248       0.04593473 </v>
   <v>       0.39721186       0.74196341       0.06328354 </v>
   <v>       0.16678389       0.89285375       0.18929715 </v>
   <v>       0.96395437       0.44362670       0.12298604 </v>
   <v>       0.91496790       0.30469294       0.23444143 </v>
   <v>       0.12813868       0.43938022       0.06585335 </v>
   <v>       0.15338690       0.11515358       0.15025555 </v>
   <v>       0.01232660       0.13836741       0.24888571 </v>
   <v>       0.23436726       0.28225529       0.10397402 </v>
   <v>       0.06864453       0.28898221       0.15687181 </v>
   <v>       0.80759975       0.45239439       0.19061282 </v>
   <v>       0.46404840       0.43523658       0.13380394 </v>
   <v>       0.40986689       0.30339734       0.02072059 </v>
   <v>       0.63183970       0.42483492       0.18584272 </v>
   <v>       0.67242820       0.13312281       0.05058433 </v>
   <v>       0.49553712       0.12735942       0.02126365 </v>
   <v>       0.74549878       0.30201598       0.10614070 </v>
   <v>       0.56942426       0.28705619       0.08801520 </v>
   <v>       0.30584316       0.45533036       0.06253907 </v>
   <v>       0.74043814       0.96676860       0.13550467 </v>
   <v>       0.66229315       0.79065907       0.09563037 </v>
   <v>       0.90904882       0.96444708       0.17983654 </v>
   <v>       0.88588298       0.62280335       0.23156949 </v>
   <v>       0.73620348       0.62075297       0.13945377 </v>
   <v>       0.97660328       0.79462055       0.24602935 </v>
   <v>       0.81907088       0.79286605       0.17155005 </v>
   <v>       0.58004492       0.96343331       0.06702359 </v>
   <v>       0.25747237       0.94197593       0.20144811 </v>
   <v>       0.14635606       0.79327882       0.15203609 </v>
   <v>       0.42267001       0.95025243       0.14169087 </v>
   <v>       0.38501606       0.63224005       0.03105448 </v>
   <v>       0.22324537       0.62445364       0.10671312 </v>
   <v>       0.47179105       0.81203335       0.03069810 </v>
   <v>       0.31489206       0.79592424       0.10679572 </v>
   <v>       0.07947926       0.95651622       0.21692032 </v>
   <v>       0.49464235       0.75118499       0.30480244 </v>
   <v>       0.59250207       0.56071830       0.28601652 </v>
   <v>       0.45630506       0.62387836       0.15958422 </v>
  </varray>
 </structure>
</modeling>
