<?xml version="1.0" encoding="ISO-8859-1"?>
<modeling>
 <generator>
  <i name="program" type="string">vasp </i>
  <i name="version" type="string">6.3.2  </i>
  <i name="subversion" type="string">27Jun22 (build May 04 2024 18:40:40) complex                          parallel </i>
  <i name="platform" type="string">LinuxIFC </i>
  <i name="date" type="string">2024 09 02 </i>
  <i name="time" type="string">21:16:53 </i>
 </generator>
 <incar>
  <i type="string" name="SYSTEM">slab_Cel1-OPT</i>
  <i type="int" name="ISTART">     0</i>
  <i type="string" name="PREC">N</i>
  <i type="string" name="ALGO">N</i>
  <i type="int" name="ICHARG">     2</i>
  <i type="int" name="NELM">   200</i>
  <i type="int" name="IBRION">     2</i>
  <i name="EDIFF">      0.00001000</i>
  <i name="EDIFFG">     -0.05000000</i>
  <i type="int" name="NSW">  1000</i>
  <i type="int" name="ISIF">     3</i>
  <i name="ENCUT">    400.00000000</i>
  <i name="POTIM">      0.10000000</i>
  <i type="string" name="LREAL">AUTO</i>
  <i type="int" name="ISMEAR">     0</i>
  <i name="SIGMA">      0.10000000</i>
  <i type="logical" name="LWAVE"> F  </i>
  <i type="logical" name="LCHARG"> F  </i>
  <i type="logical" name="LELF"> F  </i>
  <i type="logical" name="LAECHG"> F  </i>
  <i type="logical" name="LDIPOL"> T  </i>
  <i type="int" name="IDIPOL">     3</i>
 </incar>
 <primitive_cell>
  <structure name="primitive_cell" >
   <crystal>
    <varray name="basis" >
     <v>      14.26590000       0.00000000       0.00000000 </v>
     <v>       0.00000000      12.35699650       0.00000000 </v>
     <v>       0.00000000       0.00000000      15.00000000 </v>
    </varray>
    <i name="volume">   2644.25514646 </i>
    <varray name="rec_basis" >
     <v>       0.07009722       0.00000000       0.00000000 </v>
     <v>       0.00000000       0.08092581       0.00000000 </v>
     <v>       0.00000000       0.00000000       0.06666667 </v>
    </varray>
   </crystal>
   <varray name="positions" >
    <v>       0.06537593       0.40364000       0.13333000 </v>
    <v>       0.98097748       0.23494000       0.13333000 </v>
    <v>       0.22593437       0.39820000       0.13333000 </v>
    <v>       0.81543575       0.57710000       0.13333000 </v>
    <v>       0.14973747       0.23490000       0.13333000 </v>
    <v>       0.90517930       0.39797000       0.13333000 </v>
    <v>       0.56537593       0.40364000       0.13333000 </v>
    <v>       0.48097748       0.23494000       0.13333000 </v>
    <v>       0.72593437       0.39820000       0.13333000 </v>
    <v>       0.31543575       0.57710000       0.13333000 </v>
    <v>       0.64973747       0.23490000       0.13333000 </v>
    <v>       0.40517930       0.39797000       0.13333000 </v>
    <v>       0.81551954       0.90364000       0.13333000 </v>
    <v>       0.73112108       0.73494000       0.13333000 </v>
    <v>       0.97607797       0.89820000       0.13333000 </v>
    <v>       0.06529214       0.07710000       0.13333000 </v>
    <v>       0.89988107       0.73490000       0.13333000 </v>
    <v>       0.65532291       0.89797000       0.13333000 </v>
    <v>       0.31551954       0.90364000       0.13333000 </v>
    <v>       0.23112108       0.73494000       0.13333000 </v>
    <v>       0.47607797       0.89820000       0.13333000 </v>
    <v>       0.56529214       0.07710000       0.13333000 </v>
    <v>       0.39988107       0.73490000       0.13333000 </v>
    <v>       0.15532291       0.89797000       0.13333000 </v>
    <v>       0.98400093       0.45588000       0.13333000 </v>
    <v>       0.90111835       0.29021000       0.13333000 </v>
    <v>       0.14710595       0.45595000       0.13333000 </v>
    <v>       0.14840652       0.12714000       0.13333000 </v>
    <v>       0.98256150       0.12707000       0.13333000 </v>
    <v>       0.22992331       0.29008000       0.13333000 </v>
    <v>       0.06536362       0.29116000       0.13333000 </v>
    <v>       0.81553147       0.45774000       0.13333000 </v>
    <v>       0.48400093       0.45588000       0.13333000 </v>
    <v>       0.40111835       0.29021000       0.13333000 </v>
    <v>       0.64710595       0.45595000       0.13333000 </v>
    <v>       0.64840652       0.12714000       0.13333000 </v>
    <v>       0.48256150       0.12707000       0.13333000 </v>
    <v>       0.72992331       0.29008000       0.13333000 </v>
    <v>       0.56536362       0.29116000       0.13333000 </v>
    <v>       0.31553147       0.45774000       0.13333000 </v>
    <v>       0.73414454       0.95588000       0.13333000 </v>
    <v>       0.65126196       0.79021000       0.13333000 </v>
    <v>       0.89724956       0.95595000       0.13333000 </v>
    <v>       0.89855012       0.62714000       0.13333000 </v>
    <v>       0.73270510       0.62707000       0.13333000 </v>
    <v>       0.98006692       0.79008000       0.13333000 </v>
    <v>       0.81550723       0.79116000       0.13333000 </v>
    <v>       0.56567507       0.95774000       0.13333000 </v>
    <v>       0.23414454       0.95588000       0.13333000 </v>
    <v>       0.15126196       0.79021000       0.13333000 </v>
    <v>       0.39724956       0.95595000       0.13333000 </v>
    <v>       0.39855012       0.62714000       0.13333000 </v>
    <v>       0.23270510       0.62707000       0.13333000 </v>
    <v>       0.48006692       0.79008000       0.13333000 </v>
    <v>       0.31550723       0.79116000       0.13333000 </v>
    <v>       0.06567507       0.95774000       0.13333000 </v>
    <v>       0.57212639       0.73516025       0.21645333 </v>
    <v>       0.65206172       0.57443857       0.21306333 </v>
    <v>       0.48966112       0.57467425       0.20988333 </v>
   </varray>
  </structure>
  <varray name="primitive_index" >
   <v type="int" >        1 </v>
   <v type="int" >        2 </v>
   <v type="int" >        3 </v>
   <v type="int" >        4 </v>
   <v type="int" >        5 </v>
   <v type="int" >        6 </v>
   <v type="int" >        7 </v>
   <v type="int" >        8 </v>
   <v type="int" >        9 </v>
   <v type="int" >       10 </v>
   <v type="int" >       11 </v>
   <v type="int" >       12 </v>
   <v type="int" >       13 </v>
   <v type="int" >       14 </v>
   <v type="int" >       15 </v>
   <v type="int" >       16 </v>
   <v type="int" >       17 </v>
   <v type="int" >       18 </v>
   <v type="int" >       19 </v>
   <v type="int" >       20 </v>
   <v type="int" >       21 </v>
   <v type="int" >       22 </v>
   <v type="int" >       23 </v>
   <v type="int" >       24 </v>
   <v type="int" >       25 </v>
   <v type="int" >       26 </v>
   <v type="int" >       27 </v>
   <v type="int" >       28 </v>
   <v type="int" >       29 </v>
   <v type="int" >       30 </v>
   <v type="int" >       31 </v>
   <v type="int" >       32 </v>
   <v type="int" >       33 </v>
   <v type="int" >       34 </v>
   <v type="int" >       35 </v>
   <v type="int" >       36 </v>
   <v type="int" >       37 </v>
   <v type="int" >       38 </v>
   <v type="int" >       39 </v>
   <v type="int" >       40 </v>
   <v type="int" >       41 </v>
   <v type="int" >       42 </v>
   <v type="int" >       43 </v>
   <v type="int" >       44 </v>
   <v type="int" >       45 </v>
   <v type="int" >       46 </v>
   <v type="int" >       47 </v>
   <v type="int" >       48 </v>
   <v type="int" >       49 </v>
   <v type="int" >       50 </v>
   <v type="int" >       51 </v>
   <v type="int" >       52 </v>
   <v type="int" >       53 </v>
   <v type="int" >       54 </v>
   <v type="int" >       55 </v>
   <v type="int" >       56 </v>
   <v type="int" >       57 </v>
   <v type="int" >       58 </v>
   <v type="int" >       59 </v>
  </varray>
 </primitive_cell>
 <kpoints>
  <generation param="Gamma">
   <v type="int" name="divisions">       2        2        1 </v>
   <v name="usershift">      0.00000000       0.00000000       0.00000000 </v>
   <v name="genvec1">      0.50000000       0.00000000       0.00000000 </v>
   <v name="genvec2">      0.00000000       0.50000000       0.00000000 </v>
   <v name="genvec3">      0.00000000       0.00000000       1.00000000 </v>
   <v name="shift">      0.00000000       0.00000000       0.00000000 </v>
  </generation>
  <varray name="kpointlist" >
   <v>       0.00000000       0.00000000       0.00000000 </v>
   <v>       0.50000000       0.00000000       0.00000000 </v>
   <v>       0.00000000       0.50000000       0.00000000 </v>
   <v>       0.50000000       0.50000000       0.00000000 </v>
  </varray>
  <varray name="weights" >
   <v>       0.25000000 </v>
   <v>       0.25000000 </v>
   <v>       0.25000000 </v>
   <v>       0.25000000 </v>
  </varray>
 </kpoints>
 <parameters>
  <separator name="general" >
   <i type="string" name="SYSTEM">slab_Cel1-OPT</i>
   <i type="logical" name="LCOMPAT"> F  </i>
  </separator>
  <separator name="electronic" >
   <i type="string" name="PREC">n</i>
   <i name="ENMAX">    400.00000000</i>
   <i name="ENAUG">    644.87300000</i>
   <i name="EDIFF">      0.00001000</i>
   <i type="int" name="IALGO">    38</i>
   <i type="int" name="IWAVPR">    11</i>
   <i type="int" name="NBANDS">   176</i>
   <i type="int" name="NBANDSLOW">    -1</i>
   <i type="int" name="NBANDSHIGH">    -1</i>
   <i name="NELECT">    288.00000000</i>
   <i type="int" name="TURBO">     0</i>
   <i type="int" name="IRESTART">     0</i>
   <i type="int" name="NREBOOT">     0</i>
   <i type="int" name="NMIN">     0</i>
   <i name="EREF">      0.00000000</i>
   <separator name="electronic smearing" >
    <i type="int" name="ISMEAR">     0</i>
    <i name="SIGMA">      0.10000000</i>
    <i name="KSPACING">      0.50000000</i>
    <i type="logical" name="KGAMMA"> T  </i>
    <i type="logical" name="KBLOWUP"> T  </i>
   </separator>
   <separator name="electronic projectors" >
    <i type="logical" name="LREAL"> T  </i>
    <v name="ROPT">     -0.00050000     -0.00050000     -0.00050000     -0.00050000     -0.00050000</v>
    <i type="int" name="LMAXPAW">  -100</i>
    <i type="int" name="LMAXMIX">     2</i>
    <i type="logical" name="NLSPLINE"> F  </i>
   </separator>
   <separator name="electronic startup" >
    <i type="int" name="ISTART">     0</i>
    <i type="int" name="ICHARG">     2</i>
    <i type="int" name="INIWAV">     1</i>
   </separator>
   <separator name="electronic spin" >
    <i type="int" name="ISPIN">     1</i>
    <i type="logical" name="LNONCOLLINEAR"> F  </i>
    <v name="MAGMOM">      1.00000000      1.00000000      1.00000000      1.00000000      1.00000000      1.00000000      1.00000000      1.00000000      1.00000000      1.00000000      1.00000000      1.00000000      1.00000000      1.00000000      1.00000000      1.00000000      1.00000000      1.00000000      1.00000000      1.00000000
      1.00000000      1.00000000      1.00000000      1.00000000      1.00000000      1.00000000      1.00000000      1.00000000      1.00000000      1.00000000      1.00000000      1.00000000      1.00000000      1.00000000      1.00000000      1.00000000      1.00000000      1.00000000      1.00000000      1.00000000
      1.00000000      1.00000000      1.00000000      1.00000000      1.00000000      1.00000000      1.00000000      1.00000000      1.00000000      1.00000000      1.00000000      1.00000000      1.00000000      1.00000000      1.00000000      1.00000000      1.00000000      1.00000000      1.00000000</v>
    <i name="NUPDOWN">     -1.00000000</i>
    <i type="logical" name="LSORBIT"> F  </i>
    <v name="SAXIS">      0.00000000      0.00000000      1.00000000</v>
    <i type="logical" name="LSPIRAL"> F  </i>
    <v name="QSPIRAL">      0.00000000      0.00000000      0.00000000</v>
    <i type="logical" name="LZEROZ"> F  </i>
   </separator>
   <separator name="electronic exchange-correlation" >
    <i type="logical" name="LASPH"> F  </i>
    <i type="logical" name="LMETAGGA"> F  </i>
   </separator>
   <separator name="electronic convergence" >
    <i type="int" name="NELM">   200</i>
    <i type="int" name="NELMDL">    -5</i>
    <i type="int" name="NELMIN">     2</i>
    <i name="ENINI">    400.00000000</i>
    <separator name="electronic convergence detail" >
     <i type="logical" name="LDIAG"> T  </i>
     <i type="logical" name="LSUBROT"> F  </i>
     <i name="WEIMIN">      0.00100000</i>
     <i name="EBREAK">      0.00000001</i>
     <i name="DEPER">      0.30000000</i>
     <i type="int" name="NRMM">     4</i>
     <i name="TIME">      0.40000000</i>
    </separator>
   </separator>
   <separator name="electronic mixer" >
    <i name="AMIX">      0.40000000</i>
    <i name="BMIX">      1.00000000</i>
    <i name="AMIN">      0.10000000</i>
    <i name="AMIX_MAG">      1.60000000</i>
    <i name="BMIX_MAG">      1.00000000</i>
    <separator name="electronic mixer details" >
     <i type="int" name="IMIX">     4</i>
     <i type="logical" name="MIXFIRST"> F  </i>
     <i type="int" name="MAXMIX">   -45</i>
     <i name="WC">    100.00000000</i>
     <i type="int" name="INIMIX">     1</i>
     <i type="int" name="MIXPRE">     1</i>
     <i type="int" name="MREMOVE">     5</i>
    </separator>
   </separator>
   <separator name="electronic dipolcorrection" >
    <i type="logical" name="LDIPOL"> T  </i>
    <i type="logical" name="LMONO"> F  </i>
    <i type="int" name="IDIPOL">     3</i>
    <i name="EPSILON">      1.00000000</i>
    <v name="DIPOL">   -100.00000000   -100.00000000   -100.00000000</v>
    <i name="EFIELD">      0.00000000</i>
   </separator>
  </separator>
  <separator name="grids" >
   <i type="int" name="NGX">    70</i>
   <i type="int" name="NGY">    60</i>
   <i type="int" name="NGZ">    80</i>
   <i type="int" name="NGXF">   140</i>
   <i type="int" name="NGYF">   120</i>
   <i type="int" name="NGZF">   160</i>
   <i type="logical" name="ADDGRID"> F  </i>
  </separator>
  <separator name="ionic" >
   <i type="int" name="NSW">  1000</i>
   <i type="int" name="IBRION">     2</i>
   <i type="int" name="MDALGO">     0</i>
   <i type="int" name="ISIF">     3</i>
   <i name="PSTRESS">      0.00000000</i>
   <i name="EDIFFG">     -0.05000000</i>
   <i type="int" name="NFREE">     1</i>
   <i name="POTIM">      0.10000000</i>
   <i name="SMASS">     -3.00000000</i>
   <i name="SCALEE">      1.00000000</i>
  </separator>
  <separator name="ionic md" >
   <i name="TEBEG">      0.00010000</i>
   <i name="TEEND">      0.00010000</i>
   <i type="int" name="NBLOCK">     1</i>
   <i type="int" name="KBLOCK">  1000</i>
   <i type="int" name="NPACO">   256</i>
   <i name="APACO">     10.00000000</i>
  </separator>
  <separator name="symmetry" >
   <i type="int" name="ISYM">     2</i>
   <i name="SYMPREC">      0.00001000</i>
  </separator>
  <separator name="dos" >
   <i type="int" name="LORBIT">     0</i>
   <v name="RWIGS">     -1.00000000     -1.00000000     -1.00000000     -1.00000000     -1.00000000</v>
   <i type="int" name="NEDOS">   301</i>
   <i name="EMIN">     10.00000000</i>
   <i name="EMAX">    -10.00000000</i>
   <i name="EFERMI">      0.00000000</i>
  </separator>
  <separator name="writing" >
   <i type="int" name="NWRITE">     2</i>
   <i type="logical" name="LWAVE"> F  </i>
   <i type="logical" name="LDOWNSAMPLE"> F  </i>
   <i type="logical" name="LCHARG"> F  </i>
   <i type="logical" name="LPARD"> F  </i>
   <i type="logical" name="LVTOT"> F  </i>
   <i type="logical" name="LVHAR"> F  </i>
   <i type="logical" name="LELF"> F  </i>
   <i type="logical" name="LOPTICS"> F  </i>
   <v name="STM">      0.00000000      0.00000000      0.00000000      0.00000000      0.00000000      0.00000000      0.00000000</v>
  </separator>
  <separator name="performance" >
   <i type="int" name="NPAR">     4</i>
   <i type="int" name="NSIM">     4</i>
   <i type="int" name="NBLK">    -1</i>
   <i type="logical" name="LPLANE"> T  </i>
   <i type="logical" name="LSCALAPACK"> T  </i>
   <i type="logical" name="LSCAAWARE"> F  </i>
   <i type="logical" name="LSCALU"> F  </i>
   <i type="logical" name="LASYNC"> F  </i>
   <i type="logical" name="LORBITALREAL"> F  </i>
  </separator>
  <separator name="miscellaneous" >
   <i type="int" name="IDIOT">     3</i>
   <i type="int" name="PHON_NSTRUCT">    -1</i>
   <i type="logical" name="LMUSIC"> F  </i>
   <v name="POMASS">     12.01100000     14.00100000    196.96600000    107.86800000    106.42000000</v>
   <v name="DARWINR">      0.00000000      0.00000000      0.00000000      0.00000000      0.00000000</v>
   <v name="DARWINV">      1.00000000      1.00000000      1.00000000      1.00000000      1.00000000</v>
   <i type="logical" name="LCORR"> T  </i>
  </separator>
  <i type="logical" name="GGA_COMPAT"> T  </i>
  <i type="logical" name="LBERRY"> F  </i>
  <i type="int" name="ICORELEVEL">     0</i>
  <i type="logical" name="LDAU"> F  </i>
  <i type="int" name="I_CONSTRAINED_M">     0</i>
  <separator name="electronic exchange-correlation" >
   <i type="string" name="GGA">--</i>
   <i type="int" name="VOSKOWN">     0</i>
   <i type="logical" name="LHFCALC"> F  </i>
   <i type="string" name="PRECFOCK"></i>
   <i type="logical" name="LSYMGRAD"> F  </i>
   <i type="logical" name="LHFONE"> F  </i>
   <i type="logical" name="LRHFCALC"> F  </i>
   <i type="logical" name="LTHOMAS"> F  </i>
   <i type="logical" name="LMODELHF"> F  </i>
   <i type="logical" name="LFOCKACE"> F  </i>
   <i name="ENCUT4O">     -1.00000000</i>
   <i type="int" name="EXXOEP">     0</i>
   <i type="int" name="FOURORBIT">     0</i>
   <i name="AEXX">      0.00000000</i>
   <i name="HFALPHA">      0.00000000</i>
   <i name="MCALPHA">      0.00000000</i>
   <i name="ALDAX">      1.00000000</i>
   <i name="AGGAX">      1.00000000</i>
   <i name="ALDAC">      1.00000000</i>
   <i name="AGGAC">      1.00000000</i>
   <i type="int" name="NKREDX">     1</i>
   <i type="int" name="NKREDY">     1</i>
   <i type="int" name="NKREDZ">     1</i>
   <i type="logical" name="SHIFTRED"> F  </i>
   <i type="logical" name="ODDONLY"> F  </i>
   <i type="logical" name="EVENONLY"> F  </i>
   <i type="int" name="LMAXFOCK">     0</i>
   <i type="int" name="NMAXFOCKAE">     0</i>
   <i type="logical" name="LFOCKAEDFT"> F  </i>
   <i name="HFSCREEN">      0.00000000</i>
   <i name="HFSCREENC">      0.00000000</i>
   <i type="int" name="NBANDSGWLOW">     0</i>
  </separator>
  <separator name="vdW DFT" >
   <i type="logical" name="LUSE_VDW"> F  </i>
   <i name="Zab_VDW">     -0.84910000</i>
   <i name="PARAM1">      0.12340000</i>
   <i name="PARAM2">      1.00000000</i>
   <i name="PARAM3">      0.00000000</i>
  </separator>
  <separator name="model GW" >
   <i type="int" name="MODEL_GW">     0</i>
   <i name="MODEL_EPS0">     26.89073030</i>
   <i name="MODEL_ALPHA">      1.00000000</i>
  </separator>
  <separator name="linear response parameters" >
   <i type="logical" name="LEPSILON"> F  </i>
   <i type="logical" name="LRPA"> F  </i>
   <i type="logical" name="LNABLA"> F  </i>
   <i type="logical" name="LVEL"> F  </i>
   <i name="CSHIFT">      0.10000000</i>
   <i name="OMEGAMAX">     -1.00000000</i>
   <i name="DEG_THRESHOLD">      0.00200000</i>
   <i name="RTIME">     -0.10000000</i>
   <i name="WPLASMAI">      0.00000000</i>
   <v name="DFIELD">      0.00000000      0.00000000      0.00000000</v>
   <v name="WPLASMA">      0.00000000      0.00000000      0.00000000      0.00000000      0.00000000      0.00000000      0.00000000      0.00000000      0.00000000</v>
  </separator>
  <separator name="orbital magnetization" >
   <i type="logical" name="NUCIND"> F  </i>
   <v name="MAGPOS">      0.00000000      0.00000000      0.00000000</v>
   <i type="logical" name="LNICSALL"> T  </i>
   <i type="logical" name="ORBITALMAG"> F  </i>
   <i type="logical" name="LMAGBLOCH"> F  </i>
   <i type="logical" name="LCHIMAG"> F  </i>
   <i type="logical" name="LGAUGE"> T  </i>
   <i type="int" name="MAGATOM">     0</i>
   <v name="MAGDIPOL">      0.00000000      0.00000000      0.00000000</v>
   <v name="AVECCONST">      0.00000000      0.00000000      0.00000000</v>
  </separator>
  <separator name="response functions" >
   <i type="logical" name="LFINITE_TEMPERATURE"> F  </i>
   <i type="logical" name="LADDER"> F  </i>
   <i type="logical" name="LRPAFORCE"> F  </i>
   <i type="logical" name="LFXC"> F  </i>
   <i type="logical" name="LHARTREE"> T  </i>
   <i type="int" name="IBSE">     0</i>
   <v type="int" name="KPOINT">    -1     0     0     0</v>
   <i type="logical" name="LTCTC"> F  </i>
   <i type="logical" name="LTCTE"> F  </i>
   <i type="logical" name="LTETE"> F  </i>
   <i type="logical" name="LTRIPLET"> F  </i>
   <i type="logical" name="LFXCEPS"> F  </i>
   <i type="logical" name="LFXHEG"> F  </i>
   <i type="int" name="NATURALO">     2</i>
   <i type="logical" name="LHOLEGF"> F  </i>
   <i type="logical" name="L2ORDER"> F  </i>
   <i type="logical" name="LDMP1"> F  </i>
   <i type="logical" name="LMP2LT"> F  </i>
   <i type="logical" name="LSMP2LT"> F  </i>
   <i type="logical" name="LGWLF"> F  </i>
   <i name="ENCUTGW">     -2.00000000</i>
   <i name="ENCUTGWSOFT">     -2.00000000</i>
   <i name="ENCUTLF">     -1.00000000</i>
   <i type="logical" name="LESF_SPLINES"> F  </i>
   <i type="int" name="LMAXMP2">    -1</i>
   <i name="SCISSOR">      0.00000000</i>
   <i type="int" name="NOMEGA">     0</i>
   <i type="int" name="NOMEGAR">     0</i>
   <i type="int" name="NBANDSGW">    -1</i>
   <i type="int" name="NBANDSO">    -1</i>
   <i type="int" name="NBANDSV">    -1</i>
   <i type="int" name="NELMGW">     1</i>
   <i type="int" name="NELMHF">     1</i>
   <i type="int" name="DIM">     3</i>
   <i type="int" name="IESPILON">     4</i>
   <i type="int" name="ANTIRES">     0</i>
   <i name="OMEGAMAX">    -30.00000000</i>
   <i name="OMEGAMIN">    -30.00000000</i>
   <i name="OMEGATL">   -200.00000000</i>
   <i type="int" name="OMEGAGRID">     0</i>
   <i name="CSHIFT">     -0.10000000</i>
   <i type="logical" name="LSELFENERGY"> F  </i>
   <i type="logical" name="LSPECTRAL"> F  </i>
   <i type="logical" name="LSPECTRALGW"> F  </i>
   <i type="logical" name="LSINGLES"> F  </i>
   <i type="logical" name="LFERMIGW"> F  </i>
   <i type="logical" name="ODDONLYGW"> F  </i>
   <i type="logical" name="EVENONLYGW"> F  </i>
   <i type="int" name="NKREDLFX">     1</i>
   <i type="int" name="NKREDLFY">     1</i>
   <i type="int" name="NKREDLFZ">     1</i>
   <i type="int" name="MAXMEM">  2800</i>
   <i type="int" name="TELESCOPE">     0</i>
   <i type="int" name="NTAUPAR">    -1</i>
   <i type="int" name="NOMEGAPAR">    -1</i>
   <i name="DAMP_NEWTON">      0.80000001</i>
   <i name="LAMBDA">      1.00000000</i>
  </separator>
  <separator name="External order field" >
   <i name="OFIELD_KAPPA">      0.00000000</i>
   <v name="OFIELD_K">      0.00000000      0.00000000      0.00000000</v>
   <i name="OFIELD_Q6_NEAR">      0.00000000</i>
   <i name="OFIELD_Q6_FAR">      0.00000000</i>
   <i name="OFIELD_A">      0.00000000</i>
  </separator>
  <separator name="optional k-points parameters" >
   <i type="int" name="KPOINTS_OPT_MODE">     1</i>
   <i type="logical" name="LKPOINTS_OPT"> F  </i>
  </separator>
  <separator name="solvation model" >
   <i type="logical" name="LSOL"> F  </i>
  </separator>
 </parameters>
 <atominfo>
  <atoms>      59 </atoms>
  <types>       5 </types>
  <array name="atoms" >
   <dimension dim="1">ion</dimension>
   <field type="string">element</field>
   <field type="int">atomtype</field>
   <set>
    <rc><c>C </c><c>   1</c></rc>
    <rc><c>C </c><c>   1</c></rc>
    <rc><c>C </c><c>   1</c></rc>
    <rc><c>C </c><c>   1</c></rc>
    <rc><c>C </c><c>   1</c></rc>
    <rc><c>C </c><c>   1</c></rc>
    <rc><c>C </c><c>   1</c></rc>
    <rc><c>C </c><c>   1</c></rc>
    <rc><c>C </c><c>   1</c></rc>
    <rc><c>C </c><c>   1</c></rc>
    <rc><c>C </c><c>   1</c></rc>
    <rc><c>C </c><c>   1</c></rc>
    <rc><c>C </c><c>   1</c></rc>
    <rc><c>C </c><c>   1</c></rc>
    <rc><c>C </c><c>   1</c></rc>
    <rc><c>C </c><c>   1</c></rc>
    <rc><c>C </c><c>   1</c></rc>
    <rc><c>C </c><c>   1</c></rc>
    <rc><c>C </c><c>   1</c></rc>
    <rc><c>C </c><c>   1</c></rc>
    <rc><c>C </c><c>   1</c></rc>
    <rc><c>C </c><c>   1</c></rc>
    <rc><c>C </c><c>   1</c></rc>
    <rc><c>C </c><c>   1</c></rc>
    <rc><c>N </c><c>   2</c></rc>
    <rc><c>N </c><c>   2</c></rc>
    <rc><c>N </c><c>   2</c></rc>
    <rc><c>N </c><c>   2</c></rc>
    <rc><c>N </c><c>   2</c></rc>
    <rc><c>N </c><c>   2</c></rc>
    <rc><c>N </c><c>   2</c></rc>
    <rc><c>N </c><c>   2</c></rc>
    <rc><c>N </c><c>   2</c></rc>
    <rc><c>N </c><c>   2</c></rc>
    <rc><c>N </c><c>   2</c></rc>
    <rc><c>N </c><c>   2</c></rc>
    <rc><c>N </c><c>   2</c></rc>
    <rc><c>N </c><c>   2</c></rc>
    <rc><c>N </c><c>   2</c></rc>
    <rc><c>N </c><c>   2</c></rc>
    <rc><c>N </c><c>   2</c></rc>
    <rc><c>N </c><c>   2</c></rc>
    <rc><c>N </c><c>   2</c></rc>
    <rc><c>N </c><c>   2</c></rc>
    <rc><c>N </c><c>   2</c></rc>
    <rc><c>N </c><c>   2</c></rc>
    <rc><c>N </c><c>   2</c></rc>
    <rc><c>N </c><c>   2</c></rc>
    <rc><c>N </c><c>   2</c></rc>
    <rc><c>N </c><c>   2</c></rc>
    <rc><c>N </c><c>   2</c></rc>
    <rc><c>N </c><c>   2</c></rc>
    <rc><c>N </c><c>   2</c></rc>
    <rc><c>N </c><c>   2</c></rc>
    <rc><c>N </c><c>   2</c></rc>
    <rc><c>N </c><c>   2</c></rc>
    <rc><c>Au</c><c>   3</c></rc>
    <rc><c>Ag</c><c>   4</c></rc>
    <rc><c>Pd</c><c>   5</c></rc>
   </set>
  </array>
  <array name="atomtypes" >
   <dimension dim="1">type</dimension>
   <field type="int">atomspertype</field>
   <field type="string">element</field>
   <field>mass</field>
   <field>valence</field>
   <field type="string">pseudopotential</field>
   <set>
    <rc><c>  24</c><c>C </c><c>     12.01100000</c><c>      4.00000000</c><c>  PAW_PBE C 08Apr2002                   </c></rc>
    <rc><c>  32</c><c>N </c><c>     14.00100000</c><c>      5.00000000</c><c>  PAW_PBE N 08Apr2002                   </c></rc>
    <rc><c>   1</c><c>Au</c><c>    196.96600000</c><c>     11.00000000</c><c>  PAW_PBE Au 04Oct2007                  </c></rc>
    <rc><c>   1</c><c>Ag</c><c>    107.86800000</c><c>     11.00000000</c><c>  PAW_PBE Ag 02Apr2005                  </c></rc>
    <rc><c>   1</c><c>Pd</c><c>    106.42000000</c><c>     10.00000000</c><c>  PAW_PBE Pd 04Jan2005                  </c></rc>
   </set>
  </array>
 </atominfo>
 <structure name="initialpos" >
  <crystal>
   <varray name="basis" >
    <v>      14.26590000       0.00000000       0.00000000 </v>
    <v>       0.00000000      12.35699650       0.00000000 </v>
    <v>       0.00000000       0.00000000      15.00000000 </v>
   </varray>
   <i name="volume">   2644.25514646 </i>
   <varray name="rec_basis" >
    <v>       0.07009722       0.00000000       0.00000000 </v>
    <v>       0.00000000       0.08092581       0.00000000 </v>
    <v>       0.00000000       0.00000000       0.06666667 </v>
   </varray>
  </crystal>
  <varray name="positions" >
   <v>       0.06537593       0.40364000       0.13333000 </v>
   <v>       0.98097748       0.23494000       0.13333000 </v>
   <v>       0.22593437       0.39820000       0.13333000 </v>
   <v>       0.81543575       0.57710000       0.13333000 </v>
   <v>       0.14973747       0.23490000       0.13333000 </v>
   <v>       0.90517930       0.39797000       0.13333000 </v>
   <v>       0.56537593       0.40364000       0.13333000 </v>
   <v>       0.48097748       0.23494000       0.13333000 </v>
   <v>       0.72593437       0.39820000       0.13333000 </v>
   <v>       0.31543575       0.57710000       0.13333000 </v>
   <v>       0.64973747       0.23490000       0.13333000 </v>
   <v>       0.40517930       0.39797000       0.13333000 </v>
   <v>       0.81551954       0.90364000       0.13333000 </v>
   <v>       0.73112108       0.73494000       0.13333000 </v>
   <v>       0.97607797       0.89820000       0.13333000 </v>
   <v>       0.06529214       0.07710000       0.13333000 </v>
   <v>       0.89988107       0.73490000       0.13333000 </v>
   <v>       0.65532291       0.89797000       0.13333000 </v>
   <v>       0.31551954       0.90364000       0.13333000 </v>
   <v>       0.23112108       0.73494000       0.13333000 </v>
   <v>       0.47607797       0.89820000       0.13333000 </v>
   <v>       0.56529214       0.07710000       0.13333000 </v>
   <v>       0.39988107       0.73490000       0.13333000 </v>
   <v>       0.15532291       0.89797000       0.13333000 </v>
   <v>       0.98400093       0.45588000       0.13333000 </v>
   <v>       0.90111835       0.29021000       0.13333000 </v>
   <v>       0.14710595       0.45595000       0.13333000 </v>
   <v>       0.14840652       0.12714000       0.13333000 </v>
   <v>       0.98256150       0.12707000       0.13333000 </v>
   <v>       0.22992331       0.29008000       0.13333000 </v>
   <v>       0.06536362       0.29116000       0.13333000 </v>
   <v>       0.81553147       0.45774000       0.13333000 </v>
   <v>       0.48400093       0.45588000       0.13333000 </v>
   <v>       0.40111835       0.29021000       0.13333000 </v>
   <v>       0.64710595       0.45595000       0.13333000 </v>
   <v>       0.64840652       0.12714000       0.13333000 </v>
   <v>       0.48256150       0.12707000       0.13333000 </v>
   <v>       0.72992331       0.29008000       0.13333000 </v>
   <v>       0.56536362       0.29116000       0.13333000 </v>
   <v>       0.31553147       0.45774000       0.13333000 </v>
   <v>       0.73414454       0.95588000       0.13333000 </v>
   <v>       0.65126196       0.79021000       0.13333000 </v>
   <v>       0.89724956       0.95595000       0.13333000 </v>
   <v>       0.89855012       0.62714000       0.13333000 </v>
   <v>       0.73270510       0.62707000       0.13333000 </v>
   <v>       0.98006692       0.79008000       0.13333000 </v>
   <v>       0.81550723       0.79116000       0.13333000 </v>
   <v>       0.56567507       0.95774000       0.13333000 </v>
   <v>       0.23414454       0.95588000       0.13333000 </v>
   <v>       0.15126196       0.79021000       0.13333000 </v>
   <v>       0.39724956       0.95595000       0.13333000 </v>
   <v>       0.39855012       0.62714000       0.13333000 </v>
   <v>       0.23270510       0.62707000       0.13333000 </v>
   <v>       0.48006692       0.79008000       0.13333000 </v>
   <v>       0.31550723       0.79116000       0.13333000 </v>
   <v>       0.06567507       0.95774000       0.13333000 </v>
   <v>       0.57212639       0.73516025       0.21645333 </v>
   <v>       0.65206172       0.57443857       0.21306333 </v>
   <v>       0.48966112       0.57467425       0.20988333 </v>
  </varray>
 </structure>
 <calculation>
  <scstep>
   <time name="dav">    1.82    1.83</time>
   <time name="total">    1.87    1.88</time>
   <dipole>
    <v name="dipole">      0.00000000       0.00000000       0.00048637 </v>
    <i name="Tr[quadrupol]">  -9357.35736303 </i>
    <i name="Echarged">      0.00000000 </i>
    <i name="Edipol_quadrupol">      0.00000000 </i>
    <i name="Eion">      0.00000000 </i>
   </dipole>
   <energy>
    <i name="alphaZ">    155.84792990 </i>
    <i name="ewald">  31603.61067379 </i>
    <i name="hartreedc"> -43735.34844371 </i>
    <i name="XCdc">    935.37287468 </i>
    <i name="pawpsdc">  11846.67449192 </i>
    <i name="pawaedc"> -11767.02918859 </i>
    <i name="eentropy">     -0.11181844 </i>
    <i name="bandstr">  -1185.11481826 </i>
    <i name="atom">  14767.33628989 </i>
    <i name="e_fr_energy">   2621.23799119 </i>
    <i name="e_wo_entrp">   2621.34980963 </i>
    <i name="e_0_energy">   2621.29390041 </i>
   </energy>
  </scstep>
  <scstep>
   <time name="dav">    2.11    2.11</time>
   <time name="total">    2.11    2.11</time>
   <dipole>
    <v name="dipole">      0.00000000       0.00000000       0.00048637 </v>
    <i name="Tr[quadrupol]">  -9357.35736303 </i>
    <i name="Echarged">      0.00000000 </i>
    <i name="Edipol_quadrupol">      0.00000000 </i>
    <i name="Eion">      0.00000000 </i>
   </dipole>
   <energy>
    <i name="e_fr_energy">     14.64527637 </i>
    <i name="e_wo_entrp">     14.67827987 </i>
    <i name="e_0_energy">     14.66177812 </i>
   </energy>
  </scstep>
  <scstep>
   <time name="dav">    1.90    1.90</time>
   <time name="total">    1.90    1.91</time>
   <dipole>
    <v name="dipole">      0.00000000       0.00000000       0.00048637 </v>
    <i name="Tr[quadrupol]">  -9357.35736303 </i>
    <i name="Echarged">      0.00000000 </i>
    <i name="Edipol_quadrupol">      0.00000000 </i>
    <i name="Eion">      0.00000000 </i>
   </dipole>
   <energy>
    <i name="e_fr_energy">   -488.88418690 </i>
    <i name="e_wo_entrp">   -488.77403225 </i>
    <i name="e_0_energy">   -488.82910958 </i>
   </energy>
  </scstep>
  <scstep>
   <time name="dav">    1.75    1.76</time>
   <time name="total">    1.75    1.76</time>
   <dipole>
    <v name="dipole">      0.00000000       0.00000000       0.00048637 </v>
    <i name="Tr[quadrupol]">  -9357.35736303 </i>
    <i name="Echarged">      0.00000000 </i>
    <i name="Edipol_quadrupol">      0.00000000 </i>
    <i name="Eion">      0.00000000 </i>
   </dipole>
   <energy>
    <i name="e_fr_energy">   -506.88502383 </i>
    <i name="e_wo_entrp">   -506.75177054 </i>
    <i name="e_0_energy">   -506.81839718 </i>
   </energy>
  </scstep>
  <scstep>
   <time name="dav">    2.02    2.03</time>
   <time name="total">    2.07    2.08</time>
   <dipole>
    <v name="dipole">      0.00000000       0.00000000       0.00048637 </v>
    <i name="Tr[quadrupol]">  -9357.35736303 </i>
    <i name="Echarged">      0.00000000 </i>
    <i name="Edipol_quadrupol">      0.00000000 </i>
    <i name="Eion">      0.00000000 </i>
   </dipole>
   <energy>
    <i name="e_fr_energy">   -507.61567502 </i>
    <i name="e_wo_entrp">   -507.48209684 </i>
    <i name="e_0_energy">   -507.54888593 </i>
   </energy>
  </scstep>
  <scstep>
   <time name="dav">    1.73    1.73</time>
   <time name="total">    1.82    1.83</time>
   <dipole>
    <v name="dipole">      0.00000000       0.00000000      -0.39277399 </v>
    <i name="Tr[quadrupol]">  -9359.04462979 </i>
    <i name="Echarged">      0.00000000 </i>
    <i name="Edipol_quadrupol">      0.00000000 </i>
    <i name="Eion">      0.00000000 </i>
   </dipole>
   <energy>
    <i name="e_fr_energy">   -475.92705117 </i>
    <i name="e_wo_entrp">   -475.92705086 </i>
    <i name="e_0_energy">   -475.92705101 </i>
   </energy>
  </scstep>
  <scstep>
   <time name="dav">    1.75    1.75</time>
   <time name="total">    1.85    1.85</time>
   <dipole>
    <v name="dipole">      0.00000000       0.00000000      -0.15407914 </v>
    <i name="Tr[quadrupol]">  -9359.64625864 </i>
    <i name="Echarged">      0.00000000 </i>
    <i name="Edipol_quadrupol">      0.00000000 </i>
    <i name="Eion">      0.00000000 </i>
   </dipole>
   <energy>
    <i name="e_fr_energy">   -471.36445718 </i>
    <i name="e_wo_entrp">   -471.29734696 </i>
    <i name="e_0_energy">   -471.33090207 </i>
   </energy>
  </scstep>
  <scstep>
   <time name="dav">    1.74    1.74</time>
   <time name="total">    1.83    1.83</time>
   <dipole>
    <v name="dipole">      0.00000000       0.00000000      -0.03270416 </v>
    <i name="Tr[quadrupol]">  -9360.52234986 </i>
    <i name="Echarged">      0.00000000 </i>
    <i name="Edipol_quadrupol">      0.00000000 </i>
    <i name="Eion">      0.00000000 </i>
   </dipole>
   <energy>
    <i name="e_fr_energy">   -469.95945281 </i>
    <i name="e_wo_entrp">   -469.87296448 </i>
    <i name="e_0_energy">   -469.91620865 </i>
   </energy>
  </scstep>
  <scstep>
   <time name="dav">    1.74    1.74</time>
   <time name="total">    1.82    1.82</time>
   <dipole>
    <v name="dipole">      0.00000000       0.00000000       0.01484452 </v>
    <i name="Tr[quadrupol]">  -9360.98287700 </i>
    <i name="Echarged">      0.00000000 </i>
    <i name="Edipol_quadrupol">      0.00000000 </i>
    <i name="Eion">      0.00000000 </i>
   </dipole>
   <energy>
    <i name="e_fr_energy">   -468.94988484 </i>
    <i name="e_wo_entrp">   -468.86700859 </i>
    <i name="e_0_energy">   -468.90844671 </i>
   </energy>
  </scstep>
  <scstep>
   <time name="dav">    1.70    1.70</time>
   <time name="total">    1.79    1.79</time>
   <dipole>
    <v name="dipole">      0.00000000       0.00000000       0.07744693 </v>
    <i name="Tr[quadrupol]">  -9361.73999288 </i>
    <i name="Echarged">      0.00000000 </i>
    <i name="Edipol_quadrupol">      0.00000000 </i>
    <i name="Eion">      0.00000000 </i>
   </dipole>
   <energy>
    <i name="e_fr_energy">   -468.74050854 </i>
    <i name="e_wo_entrp">   -468.63584342 </i>
    <i name="e_0_energy">   -468.68817598 </i>
   </energy>
  </scstep>
  <scstep>
   <time name="dav">    1.75    1.75</time>
   <time name="total">    1.84    1.85</time>
   <dipole>
    <v name="dipole">      0.00000000       0.00000000       0.10920944 </v>
    <i name="Tr[quadrupol]">  -9362.12024811 </i>
    <i name="Echarged">      0.00000000 </i>
    <i name="Edipol_quadrupol">      0.00000000 </i>
    <i name="Eion">      0.00000000 </i>
   </dipole>
   <energy>
    <i name="e_fr_energy">   -468.73486146 </i>
    <i name="e_wo_entrp">   -468.63195550 </i>
    <i name="e_0_energy">   -468.68340848 </i>
   </energy>
  </scstep>
  <scstep>
   <time name="dav">    1.74    1.75</time>
   <time name="total">    1.83    1.83</time>
   <dipole>
    <v name="dipole">      0.00000000       0.00000000       0.16748811 </v>
    <i name="Tr[quadrupol]">  -9362.62859266 </i>
    <i name="Echarged">      0.00000000 </i>
    <i name="Edipol_quadrupol">      0.00000000 </i>
    <i name="Eion">      0.00000000 </i>
   </dipole>
   <energy>
    <i name="e_fr_energy">   -468.71799064 </i>
    <i name="e_wo_entrp">   -468.61247174 </i>
    <i name="e_0_energy">   -468.66523119 </i>
   </energy>
  </scstep>
  <scstep>
   <time name="dav">    1.73    1.73</time>
   <time name="total">    1.82    1.83</time>
   <dipole>
    <v name="dipole">      0.00000000       0.00000000       0.21873385 </v>
    <i name="Tr[quadrupol]">  -9363.12621740 </i>
    <i name="Echarged">      0.00000000 </i>
    <i name="Edipol_quadrupol">      0.00000000 </i>
    <i name="Eion">      0.00000000 </i>
   </dipole>
   <energy>
    <i name="e_fr_energy">   -468.71300048 </i>
    <i name="e_wo_entrp">   -468.60377088 </i>
    <i name="e_0_energy">   -468.65838568 </i>
   </energy>
  </scstep>
  <scstep>
   <time name="dav">    1.68    1.68</time>
   <time name="total">    1.76    1.76</time>
   <dipole>
    <v name="dipole">      0.00000000       0.00000000       0.25446188 </v>
    <i name="Tr[quadrupol]">  -9363.46091887 </i>
    <i name="Echarged">      0.00000000 </i>
    <i name="Edipol_quadrupol">      0.00000000 </i>
    <i name="Eion">      0.00000000 </i>
   </dipole>
   <energy>
    <i name="e_fr_energy">   -468.71422110 </i>
    <i name="e_wo_entrp">   -468.60646670 </i>
    <i name="e_0_energy">   -468.66034390 </i>
   </energy>
  </scstep>
  <scstep>
   <time name="dav">    1.70    1.70</time>
   <time name="total">    1.79    1.79</time>
   <dipole>
    <v name="dipole">      0.00000000       0.00000000       0.29205413 </v>
    <i name="Tr[quadrupol]">  -9363.86616140 </i>
    <i name="Echarged">      0.00000000 </i>
    <i name="Edipol_quadrupol">      0.00000000 </i>
    <i name="Eion">      0.00000000 </i>
   </dipole>
   <energy>
    <i name="e_fr_energy">   -468.71618413 </i>
    <i name="e_wo_entrp">   -468.60888895 </i>
    <i name="e_0_energy">   -468.66253654 </i>
   </energy>
  </scstep>
  <scstep>
   <time name="dav">    1.65    1.65</time>
   <time name="total">    1.73    1.74</time>
   <dipole>
    <v name="dipole">      0.00000000       0.00000000       0.33841410 </v>
    <i name="Tr[quadrupol]">  -9364.39691672 </i>
    <i name="Echarged">      0.00000000 </i>
    <i name="Edipol_quadrupol">      0.00000000 </i>
    <i name="Eion">      0.00000000 </i>
   </dipole>
   <energy>
    <i name="e_fr_energy">   -468.71955885 </i>
    <i name="e_wo_entrp">   -468.61154052 </i>
    <i name="e_0_energy">   -468.66554969 </i>
   </energy>
  </scstep>
  <scstep>
   <time name="dav">    1.66    1.67</time>
   <time name="total">    1.74    1.75</time>
   <dipole>
    <v name="dipole">      0.00000000       0.00000000       0.38825247 </v>
    <i name="Tr[quadrupol]">  -9365.00649247 </i>
    <i name="Echarged">      0.00000000 </i>
    <i name="Edipol_quadrupol">      0.00000000 </i>
    <i name="Eion">      0.00000000 </i>
   </dipole>
   <energy>
    <i name="e_fr_energy">   -468.72441633 </i>
    <i name="e_wo_entrp">   -468.61676034 </i>
    <i name="e_0_energy">   -468.67058833 </i>
   </energy>
  </scstep>
  <scstep>
   <time name="dav">    1.67    1.67</time>
   <time name="total">    1.75    1.75</time>
   <dipole>
    <v name="dipole">      0.00000000       0.00000000       0.53860051 </v>
    <i name="Tr[quadrupol]">  -9366.44374312 </i>
    <i name="Echarged">      0.00000000 </i>
    <i name="Edipol_quadrupol">      0.00000000 </i>
    <i name="Eion">      0.00000000 </i>
   </dipole>
   <energy>
    <i name="e_fr_energy">   -468.72733993 </i>
    <i name="e_wo_entrp">   -468.62055596 </i>
    <i name="e_0_energy">   -468.67394794 </i>
   </energy>
  </scstep>
  <scstep>
   <time name="dav">    1.73    1.73</time>
   <time name="total">    1.81    1.81</time>
   <dipole>
    <v name="dipole">      0.00000000       0.00000000       0.59784773 </v>
    <i name="Tr[quadrupol]">  -9367.19814192 </i>
    <i name="Echarged">      0.00000000 </i>
    <i name="Edipol_quadrupol">      0.00000000 </i>
    <i name="Eion">      0.00000000 </i>
   </dipole>
   <energy>
    <i name="e_fr_energy">   -468.72932952 </i>
    <i name="e_wo_entrp">   -468.62220420 </i>
    <i name="e_0_energy">   -468.67576686 </i>
   </energy>
  </scstep>
  <scstep>
   <time name="dav">    1.66    1.66</time>
   <time name="total">    1.75    1.75</time>
   <dipole>
    <v name="dipole">      0.00000000       0.00000000       0.58958916 </v>
    <i name="Tr[quadrupol]">  -9367.51219079 </i>
    <i name="Echarged">      0.00000000 </i>
    <i name="Edipol_quadrupol">      0.00000000 </i>
    <i name="Eion">      0.00000000 </i>
   </dipole>
   <energy>
    <i name="e_fr_energy">   -468.73109549 </i>
    <i name="e_wo_entrp">   -468.62386265 </i>
    <i name="e_0_energy">   -468.67747907 </i>
   </energy>
  </scstep>
  <scstep>
   <time name="dav">    1.64    1.64</time>
   <time name="total">    1.72    1.73</time>
   <dipole>
    <v name="dipole">      0.00000000       0.00000000       0.55624403 </v>
    <i name="Tr[quadrupol]">  -9367.63512549 </i>
    <i name="Echarged">      0.00000000 </i>
    <i name="Edipol_quadrupol">      0.00000000 </i>
    <i name="Eion">      0.00000000 </i>
   </dipole>
   <energy>
    <i name="e_fr_energy">   -468.73322145 </i>
    <i name="e_wo_entrp">   -468.62551283 </i>
    <i name="e_0_energy">   -468.67936714 </i>
   </energy>
  </scstep>
  <scstep>
   <time name="dav">    1.62    1.62</time>
   <time name="total">    1.71    1.71</time>
   <dipole>
    <v name="dipole">      0.00000000       0.00000000       0.54256732 </v>
    <i name="Tr[quadrupol]">  -9367.61576499 </i>
    <i name="Echarged">      0.00000000 </i>
    <i name="Edipol_quadrupol">      0.00000000 </i>
    <i name="Eion">      0.00000000 </i>
   </dipole>
   <energy>
    <i name="e_fr_energy">   -468.73395051 </i>
    <i name="e_wo_entrp">   -468.62636053 </i>
    <i name="e_0_energy">   -468.68015552 </i>
   </energy>
  </scstep>
  <scstep>
   <time name="dav">    1.50    1.50</time>
   <time name="total">    1.58    1.59</time>
   <dipole>
    <v name="dipole">      0.00000000       0.00000000       0.51701910 </v>
    <i name="Tr[quadrupol]">  -9367.62599595 </i>
    <i name="Echarged">      0.00000000 </i>
    <i name="Edipol_quadrupol">      0.00000000 </i>
    <i name="Eion">      0.00000000 </i>
   </dipole>
   <energy>
    <i name="e_fr_energy">   -468.73537978 </i>
    <i name="e_wo_entrp">   -468.62794464 </i>
    <i name="e_0_energy">   -468.68166221 </i>
   </energy>
  </scstep>
  <scstep>
   <time name="dav">    1.47    1.47</time>
   <time name="total">    1.56    1.56</time>
   <dipole>
    <v name="dipole">      0.00000000       0.00000000       0.50405758 </v>
    <i name="Tr[quadrupol]">  -9367.57435204 </i>
    <i name="Echarged">      0.00000000 </i>
    <i name="Edipol_quadrupol">      0.00000000 </i>
    <i name="Eion">      0.00000000 </i>
   </dipole>
   <energy>
    <i name="e_fr_energy">   -468.73590875 </i>
    <i name="e_wo_entrp">   -468.62841110 </i>
    <i name="e_0_energy">   -468.68215993 </i>
   </energy>
  </scstep>
  <scstep>
   <time name="dav">    1.47    1.47</time>
   <time name="total">    1.56    1.56</time>
   <dipole>
    <v name="dipole">      0.00000000       0.00000000       0.48602640 </v>
    <i name="Tr[quadrupol]">  -9367.54083945 </i>
    <i name="Echarged">      0.00000000 </i>
    <i name="Edipol_quadrupol">      0.00000000 </i>
    <i name="Eion">      0.00000000 </i>
   </dipole>
   <energy>
    <i name="e_fr_energy">   -468.73657691 </i>
    <i name="e_wo_entrp">   -468.62902328 </i>
    <i name="e_0_energy">   -468.68280009 </i>
   </energy>
  </scstep>
  <scstep>
   <time name="dav">    1.22    1.22</time>
   <time name="total">    1.30    1.30</time>
   <dipole>
    <v name="dipole">      0.00000000       0.00000000       0.47760604 </v>
    <i name="Tr[quadrupol]">  -9367.47346582 </i>
    <i name="Echarged">      0.00000000 </i>
    <i name="Edipol_quadrupol">      0.00000000 </i>
    <i name="Eion">      0.00000000 </i>
   </dipole>
   <energy>
    <i name="e_fr_energy">   -468.73680332 </i>
    <i name="e_wo_entrp">   -468.62925220 </i>
    <i name="e_0_energy">   -468.68302776 </i>
   </energy>
  </scstep>
  <scstep>
   <time name="dav">    1.21    1.21</time>
   <time name="total">    1.29    1.30</time>
   <dipole>
    <v name="dipole">      0.00000000       0.00000000       0.47460406 </v>
    <i name="Tr[quadrupol]">  -9367.48186192 </i>
    <i name="Echarged">      0.00000000 </i>
    <i name="Edipol_quadrupol">      0.00000000 </i>
    <i name="Eion">      0.00000000 </i>
   </dipole>
   <energy>
    <i name="e_fr_energy">   -468.73686922 </i>
    <i name="e_wo_entrp">   -468.62934212 </i>
    <i name="e_0_energy">   -468.68310567 </i>
   </energy>
  </scstep>
  <scstep>
   <time name="dav">    1.18    1.18</time>
   <time name="total">    1.26    1.26</time>
   <dipole>
    <v name="dipole">      0.00000000       0.00000000       0.47273136 </v>
    <i name="Tr[quadrupol]">  -9367.48640534 </i>
    <i name="Echarged">      0.00000000 </i>
    <i name="Edipol_quadrupol">      0.00000000 </i>
    <i name="Eion">      0.00000000 </i>
   </dipole>
   <energy>
    <i name="e_fr_energy">   -468.73690551 </i>
    <i name="e_wo_entrp">   -468.62938615 </i>
    <i name="e_0_energy">   -468.68314583 </i>
   </energy>
  </scstep>
  <scstep>
   <time name="dav">    1.18    1.18</time>
   <time name="total">    1.27    1.27</time>
   <dipole>
    <v name="dipole">      0.00000000       0.00000000       0.47172381 </v>
    <i name="Tr[quadrupol]">  -9367.48896157 </i>
    <i name="Echarged">      0.00000000 </i>
    <i name="Edipol_quadrupol">      0.00000000 </i>
    <i name="Eion">      0.00000000 </i>
   </dipole>
   <energy>
    <i name="e_fr_energy">   -468.73691946 </i>
    <i name="e_wo_entrp">   -468.62939648 </i>
    <i name="e_0_energy">   -468.68315797 </i>
   </energy>
  </scstep>
  <scstep>
   <time name="dav">    1.20    1.20</time>
   <time name="total">    1.23    1.24</time>
   <dipole>
    <v name="dipole">      0.00000000       0.00000000       0.47162762 </v>
    <i name="Tr[quadrupol]">  -9367.49053476 </i>
    <i name="Echarged">      0.00000000 </i>
    <i name="Edipol_quadrupol">      0.00000000 </i>
    <i name="Eion">      0.00000000 </i>
   </dipole>
   <energy>
    <i name="alphaZ">    165.24517137 </i>
    <i name="ewald">  31603.61067379 </i>
    <i name="hartreedc"> -44457.54850728 </i>
    <i name="XCdc">    966.75581063 </i>
    <i name="pawpsdc">  31819.25136621 </i>
    <i name="pawaedc"> -31768.19595719 </i>
    <i name="eentropy">     -0.10751217 </i>
    <i name="bandstr">  -3565.08425776 </i>
    <i name="atom">  14767.33628989 </i>
    <i name="e_fr_energy">   -468.73692252 </i>
    <i name="e_wo_entrp">   -468.62941035 </i>
    <i name="e_0_energy">   -468.68316644 </i>
   </energy>
  </scstep>
  <structure>
   <crystal>
    <varray name="basis" >
     <v>      14.26590000       0.00000000       0.00000000 </v>
     <v>       0.00000000      12.35699650       0.00000000 </v>
     <v>       0.00000000       0.00000000      15.00000000 </v>
    </varray>
    <i name="volume">   2644.25514646 </i>
    <varray name="rec_basis" >
     <v>       0.07009722       0.00000000       0.00000000 </v>
     <v>       0.00000000       0.08092581       0.00000000 </v>
     <v>       0.00000000       0.00000000       0.06666667 </v>
    </varray>
   </crystal>
   <varray name="positions" >
    <v>       0.06537593       0.40364000       0.13333000 </v>
    <v>       0.98097748       0.23494000       0.13333000 </v>
    <v>       0.22593437       0.39820000       0.13333000 </v>
    <v>       0.81543575       0.57710000       0.13333000 </v>
    <v>       0.14973747       0.23490000       0.13333000 </v>
    <v>       0.90517930       0.39797000       0.13333000 </v>
    <v>       0.56537593       0.40364000       0.13333000 </v>
    <v>       0.48097748       0.23494000       0.13333000 </v>
    <v>       0.72593437       0.39820000       0.13333000 </v>
    <v>       0.31543575       0.57710000       0.13333000 </v>
    <v>       0.64973747       0.23490000       0.13333000 </v>
    <v>       0.40517930       0.39797000       0.13333000 </v>
    <v>       0.81551954       0.90364000       0.13333000 </v>
    <v>       0.73112108       0.73494000       0.13333000 </v>
    <v>       0.97607797       0.89820000       0.13333000 </v>
    <v>       0.06529214       0.07710000       0.13333000 </v>
    <v>       0.89988107       0.73490000       0.13333000 </v>
    <v>       0.65532291       0.89797000       0.13333000 </v>
    <v>       0.31551954       0.90364000       0.13333000 </v>
    <v>       0.23112108       0.73494000       0.13333000 </v>
    <v>       0.47607797       0.89820000       0.13333000 </v>
    <v>       0.56529214       0.07710000       0.13333000 </v>
    <v>       0.39988107       0.73490000       0.13333000 </v>
    <v>       0.15532291       0.89797000       0.13333000 </v>
    <v>       0.98400093       0.45588000       0.13333000 </v>
    <v>       0.90111835       0.29021000       0.13333000 </v>
    <v>       0.14710595       0.45595000       0.13333000 </v>
    <v>       0.14840652       0.12714000       0.13333000 </v>
    <v>       0.98256150       0.12707000       0.13333000 </v>
    <v>       0.22992331       0.29008000       0.13333000 </v>
    <v>       0.06536362       0.29116000       0.13333000 </v>
    <v>       0.81553147       0.45774000       0.13333000 </v>
    <v>       0.48400093       0.45588000       0.13333000 </v>
    <v>       0.40111835       0.29021000       0.13333000 </v>
    <v>       0.64710595       0.45595000       0.13333000 </v>
    <v>       0.64840652       0.12714000       0.13333000 </v>
    <v>       0.48256150       0.12707000       0.13333000 </v>
    <v>       0.72992331       0.29008000       0.13333000 </v>
    <v>       0.56536362       0.29116000       0.13333000 </v>
    <v>       0.31553147       0.45774000       0.13333000 </v>
    <v>       0.73414454       0.95588000       0.13333000 </v>
    <v>       0.65126196       0.79021000       0.13333000 </v>
    <v>       0.89724956       0.95595000       0.13333000 </v>
    <v>       0.89855012       0.62714000       0.13333000 </v>
    <v>       0.73270510       0.62707000       0.13333000 </v>
    <v>       0.98006692       0.79008000       0.13333000 </v>
    <v>       0.81550723       0.79116000       0.13333000 </v>
    <v>       0.56567507       0.95774000       0.13333000 </v>
    <v>       0.23414454       0.95588000       0.13333000 </v>
    <v>       0.15126196       0.79021000       0.13333000 </v>
    <v>       0.39724956       0.95595000       0.13333000 </v>
    <v>       0.39855012       0.62714000       0.13333000 </v>
    <v>       0.23270510       0.62707000       0.13333000 </v>
    <v>       0.48006692       0.79008000       0.13333000 </v>
    <v>       0.31550723       0.79116000       0.13333000 </v>
    <v>       0.06567507       0.95774000       0.13333000 </v>
    <v>       0.57212639       0.73516025       0.21645333 </v>
    <v>       0.65206172       0.57443857       0.21306333 </v>
    <v>       0.48966112       0.57467425       0.20988333 </v>
   </varray>
  </structure>
  <varray name="forces" >
   <v>       0.17735024       0.14243815       0.00816492 </v>
   <v>      -0.00891610      -0.36245315       0.00977886 </v>
   <v>      -0.06762599      -0.30068863       0.00399005 </v>
   <v>       2.51913331      -1.15308112      -0.35520741 </v>
   <v>       0.17468885      -0.24580838       0.01055642 </v>
   <v>       0.07219640      -0.11203678       0.01401324 </v>
   <v>       0.24606615      -1.58223804      -0.40644457 </v>
   <v>      -0.50707282      -0.97630360       0.04383157 </v>
   <v>       2.39723421      -1.65483872      -0.30578208 </v>
   <v>      -2.08251807      -1.54591073      -0.10015669 </v>
   <v>       0.64444748      -0.91103457       0.05011634 </v>
   <v>      -2.60542641      -1.26114879      -0.18693592 </v>
   <v>       0.53891272       0.77865342       0.04789756 </v>
   <v>       2.18216787       0.70631722      -1.02280411 </v>
   <v>       0.39625864       0.08945835       0.01870512 </v>
   <v>       0.19751330      -0.10213835       0.01120470 </v>
   <v>       0.91341839      -0.18039778       0.04357565 </v>
   <v>       0.02582654       2.98853617      -0.34883369 </v>
   <v>      -0.26213688       0.78404373       0.06799463 </v>
   <v>      -0.80997658      -0.27347942       0.05207196 </v>
   <v>      -0.00858490       2.63496132      -0.31242457 </v>
   <v>       0.13243037      -0.26352578       0.03714281 </v>
   <v>      -1.29810352       0.74038019      -0.47848355 </v>
   <v>      -0.52983843       0.31212414       0.04954879 </v>
   <v>      -0.08013375       0.15418306      -0.00212152 </v>
   <v>      -0.18496152       0.08593331      -0.00406757 </v>
   <v>      -0.09939924       0.10699814      -0.00126020 </v>
   <v>      -0.01277951       0.08446847      -0.00635536 </v>
   <v>      -0.16001053       0.19438100      -0.00576179 </v>
   <v>       0.07433371       0.17914746      -0.00200957 </v>
   <v>       0.02548759       0.04533659       0.00223938 </v>
   <v>      -0.39069255       0.15426661      -0.12709438 </v>
   <v>       0.52353996      -2.44400988      -1.75741840 </v>
   <v>       0.31923295       0.50270275      -0.09742090 </v>
   <v>      -0.93652012      -3.06372409      -2.36922733 </v>
   <v>       0.16457609       0.60556623      -0.03314462 </v>
   <v>      -0.28310492       0.61517291      -0.02335562 </v>
   <v>      -0.33167754       0.59567307      -0.08069455 </v>
   <v>      -0.01851831       0.96440501      -0.15151519 </v>
   <v>       0.38689331       0.21275313      -0.11520407 </v>
   <v>      -0.24441941      -0.39447696      -0.02327292 </v>
   <v>       4.77137115       2.27566390      -5.04105215 </v>
   <v>      -0.66996279      -0.07949799      -0.05046323 </v>
   <v>      -0.54935497       0.10144721      -0.01922254 </v>
   <v>       4.68027482       3.53531613      -5.23676140 </v>
   <v>      -0.39551547      -0.34968051      -0.04530106 </v>
   <v>      -0.67593213      -0.37246083      -0.00795926 </v>
   <v>      -0.12466004      -0.24688978      -0.17132547 </v>
   <v>       0.59290177      -0.02500425      -0.06871122 </v>
   <v>       0.29494107      -0.44008410      -0.04780488 </v>
   <v>       0.17344196      -0.49074810      -0.07376151 </v>
   <v>      -2.07077589       1.87080026      -1.99895255 </v>
   <v>       0.52412706       0.25775626      -0.13387794 </v>
   <v>      -2.75073877       1.04158806      -2.35823755 </v>
   <v>       0.76713389      -0.41245716      -0.05721092 </v>
   <v>      -0.04346810      -0.05019629       0.01297256 </v>
   <v>      -3.16424620       1.66284798       9.16086023 </v>
   <v>      -0.74068872      -3.43395381       9.03880334 </v>
   <v>      -1.80813961      -1.69505267       4.94417011 </v>
  </varray>
  <varray name="stress" >
   <v>      22.87628026       1.64706392      -4.18733175 </v>
   <v>       1.64706389      21.22350960      -2.40884334 </v>
   <v>      -4.18733178      -2.40884336       4.46262634 </v>
  </varray>
  <energy>
   <i name="e_fr_energy">   -468.73692252 </i>
   <i name="e_wo_entrp">   -468.62941035 </i>
   <i name="e_0_energy">   -468.68316644 </i>
  </energy>
  <time name="totalsc">   52.52   52.61</time>
 </calculation>
 <calculation>
  <scstep>
   <time name="dav">    1.57    1.57</time>
   <time name="total">    1.65    1.65</time>
   <dipole>
    <v name="dipole">      0.00000000       0.00000000       0.47191671 </v>
    <i name="Tr[quadrupol]">  -9470.25111236 </i>
    <i name="Echarged">      0.00000000 </i>
    <i name="Edipol_quadrupol">      0.00000000 </i>
    <i name="Eion">      0.00000000 </i>
   </dipole>
   <energy>
    <i name="alphaZ">    163.27471413 </i>
    <i name="ewald">  30861.30619363 </i>
    <i name="hartreedc"> -43710.08857075 </i>
    <i name="XCdc">    962.04645444 </i>
    <i name="pawpsdc">  31819.33651843 </i>
    <i name="pawaedc"> -31768.28117995 </i>
    <i name="eentropy">     -0.06993150 </i>
    <i name="bandstr">  -3567.13432371 </i>
    <i name="atom">  14767.33628989 </i>
    <i name="e_fr_energy">   -472.27383540 </i>
    <i name="e_wo_entrp">   -472.20390390 </i>
    <i name="e_0_energy">   -472.23886965 </i>
   </energy>
  </scstep>
  <scstep>
   <time name="dav">    1.69    1.70</time>
   <time name="total">    1.78    1.78</time>
   <dipole>
    <v name="dipole">      0.00000000       0.00000000       0.51609798 </v>
    <i name="Tr[quadrupol]">  -9469.81894501 </i>
    <i name="Echarged">      0.00000000 </i>
    <i name="Edipol_quadrupol">      0.00000000 </i>
    <i name="Eion">      0.00000000 </i>
   </dipole>
   <energy>
    <i name="e_fr_energy">   -472.77781201 </i>
    <i name="e_wo_entrp">   -472.70821163 </i>
    <i name="e_0_energy">   -472.74301182 </i>
   </energy>
  </scstep>
  <scstep>
   <time name="dav">    1.68    1.68</time>
   <time name="total">    1.76    1.76</time>
   <dipole>
    <v name="dipole">      0.00000000       0.00000000       0.49061200 </v>
    <i name="Tr[quadrupol]">  -9469.63701275 </i>
    <i name="Echarged">      0.00000000 </i>
    <i name="Edipol_quadrupol">      0.00000000 </i>
    <i name="Eion">      0.00000000 </i>
   </dipole>
   <energy>
    <i name="e_fr_energy">   -472.36014459 </i>
    <i name="e_wo_entrp">   -472.28475665 </i>
    <i name="e_0_energy">   -472.32245062 </i>
   </energy>
  </scstep>
  <scstep>
   <time name="dav">    1.72    1.72</time>
   <time name="total">    1.80    1.81</time>
   <dipole>
    <v name="dipole">      0.00000000       0.00000000       0.48859161 </v>
    <i name="Tr[quadrupol]">  -9469.52607792 </i>
    <i name="Echarged">      0.00000000 </i>
    <i name="Edipol_quadrupol">      0.00000000 </i>
    <i name="Eion">      0.00000000 </i>
   </dipole>
   <energy>
    <i name="e_fr_energy">   -472.35126941 </i>
    <i name="e_wo_entrp">   -472.27523084 </i>
    <i name="e_0_energy">   -472.31325012 </i>
   </energy>
  </scstep>
  <scstep>
   <time name="dav">    1.79    1.80</time>
   <time name="total">    1.88    1.88</time>
   <dipole>
    <v name="dipole">      0.00000000       0.00000000       0.46493297 </v>
    <i name="Tr[quadrupol]">  -9469.81078498 </i>
    <i name="Echarged">      0.00000000 </i>
    <i name="Edipol_quadrupol">      0.00000000 </i>
    <i name="Eion">      0.00000000 </i>
   </dipole>
   <energy>
    <i name="e_fr_energy">   -472.22349521 </i>
    <i name="e_wo_entrp">   -472.11092297 </i>
    <i name="e_0_energy">   -472.16720909 </i>
   </energy>
  </scstep>
  <scstep>
   <time name="dav">    1.68    1.68</time>
   <time name="total">    1.76    1.76</time>
   <dipole>
    <v name="dipole">      0.00000000       0.00000000       0.46289142 </v>
    <i name="Tr[quadrupol]">  -9469.78020833 </i>
    <i name="Echarged">      0.00000000 </i>
    <i name="Edipol_quadrupol">      0.00000000 </i>
    <i name="Eion">      0.00000000 </i>
   </dipole>
   <energy>
    <i name="e_fr_energy">   -472.18036897 </i>
    <i name="e_wo_entrp">   -472.05912104 </i>
    <i name="e_0_energy">   -472.11974501 </i>
   </energy>
  </scstep>
  <scstep>
   <time name="dav">    1.80    1.80</time>
   <time name="total">    1.88    1.88</time>
   <dipole>
    <v name="dipole">      0.00000000       0.00000000       0.46295751 </v>
    <i name="Tr[quadrupol]">  -9469.76916392 </i>
    <i name="Echarged">      0.00000000 </i>
    <i name="Edipol_quadrupol">      0.00000000 </i>
    <i name="Eion">      0.00000000 </i>
   </dipole>
   <energy>
    <i name="e_fr_energy">   -472.16485730 </i>
    <i name="e_wo_entrp">   -472.04502076 </i>
    <i name="e_0_energy">   -472.10493903 </i>
   </energy>
  </scstep>
  <scstep>
   <time name="dav">    1.78    1.78</time>
   <time name="total">    1.87    1.87</time>
   <dipole>
    <v name="dipole">      0.00000000       0.00000000       0.46451982 </v>
    <i name="Tr[quadrupol]">  -9469.76352673 </i>
    <i name="Echarged">      0.00000000 </i>
    <i name="Edipol_quadrupol">      0.00000000 </i>
    <i name="Eion">      0.00000000 </i>
   </dipole>
   <energy>
    <i name="e_fr_energy">   -472.15812218 </i>
    <i name="e_wo_entrp">   -472.03804599 </i>
    <i name="e_0_energy">   -472.09808408 </i>
   </energy>
  </scstep>
  <scstep>
   <time name="dav">    1.72    1.72</time>
   <time name="total">    1.81    1.82</time>
   <dipole>
    <v name="dipole">      0.00000000       0.00000000       0.46458135 </v>
    <i name="Tr[quadrupol]">  -9469.75883099 </i>
    <i name="Echarged">      0.00000000 </i>
    <i name="Edipol_quadrupol">      0.00000000 </i>
    <i name="Eion">      0.00000000 </i>
   </dipole>
   <energy>
    <i name="e_fr_energy">   -472.15705395 </i>
    <i name="e_wo_entrp">   -472.03887257 </i>
    <i name="e_0_energy">   -472.09796326 </i>
   </energy>
  </scstep>
  <scstep>
   <time name="dav">    1.84    1.85</time>
   <time name="total">    1.92    1.93</time>
   <dipole>
    <v name="dipole">      0.00000000       0.00000000       0.46329491 </v>
    <i name="Tr[quadrupol]">  -9469.75370898 </i>
    <i name="Echarged">      0.00000000 </i>
    <i name="Edipol_quadrupol">      0.00000000 </i>
    <i name="Eion">      0.00000000 </i>
   </dipole>
   <energy>
    <i name="e_fr_energy">   -472.15681966 </i>
    <i name="e_wo_entrp">   -472.03907299 </i>
    <i name="e_0_energy">   -472.09794632 </i>
   </energy>
  </scstep>
  <scstep>
   <time name="dav">    1.74    1.75</time>
   <time name="total">    1.83    1.83</time>
   <dipole>
    <v name="dipole">      0.00000000       0.00000000       0.46232066 </v>
    <i name="Tr[quadrupol]">  -9469.75097558 </i>
    <i name="Echarged">      0.00000000 </i>
    <i name="Edipol_quadrupol">      0.00000000 </i>
    <i name="Eion">      0.00000000 </i>
   </dipole>
   <energy>
    <i name="e_fr_energy">   -472.15733349 </i>
    <i name="e_wo_entrp">   -472.04003507 </i>
    <i name="e_0_energy">   -472.09868428 </i>
   </energy>
  </scstep>
  <scstep>
   <time name="dav">    1.77    1.77</time>
   <time name="total">    1.85    1.85</time>
   <dipole>
    <v name="dipole">      0.00000000       0.00000000       0.46149885 </v>
    <i name="Tr[quadrupol]">  -9469.74776622 </i>
    <i name="Echarged">      0.00000000 </i>
    <i name="Edipol_quadrupol">      0.00000000 </i>
    <i name="Eion">      0.00000000 </i>
   </dipole>
   <energy>
    <i name="e_fr_energy">   -472.15754123 </i>
    <i name="e_wo_entrp">   -472.04037324 </i>
    <i name="e_0_energy">   -472.09895723 </i>
   </energy>
  </scstep>
  <scstep>
   <time name="dav">    1.51    1.51</time>
   <time name="total">    1.60    1.60</time>
   <dipole>
    <v name="dipole">      0.00000000       0.00000000       0.45993481 </v>
    <i name="Tr[quadrupol]">  -9469.73961103 </i>
    <i name="Echarged">      0.00000000 </i>
    <i name="Edipol_quadrupol">      0.00000000 </i>
    <i name="Eion">      0.00000000 </i>
   </dipole>
   <energy>
    <i name="e_fr_energy">   -472.15775981 </i>
    <i name="e_wo_entrp">   -472.04078331 </i>
    <i name="e_0_energy">   -472.09927156 </i>
   </energy>
  </scstep>
  <scstep>
   <time name="dav">    1.48    1.48</time>
   <time name="total">    1.56    1.56</time>
   <dipole>
    <v name="dipole">      0.00000000       0.00000000       0.45904270 </v>
    <i name="Tr[quadrupol]">  -9469.73466079 </i>
    <i name="Echarged">      0.00000000 </i>
    <i name="Edipol_quadrupol">      0.00000000 </i>
    <i name="Eion">      0.00000000 </i>
   </dipole>
   <energy>
    <i name="e_fr_energy">   -472.15786098 </i>
    <i name="e_wo_entrp">   -472.04107141 </i>
    <i name="e_0_energy">   -472.09946620 </i>
   </energy>
  </scstep>
  <scstep>
   <time name="dav">    1.18    1.19</time>
   <time name="total">    1.27    1.27</time>
   <dipole>
    <v name="dipole">      0.00000000       0.00000000       0.45879946 </v>
    <i name="Tr[quadrupol]">  -9469.81960098 </i>
    <i name="Echarged">      0.00000000 </i>
    <i name="Edipol_quadrupol">      0.00000000 </i>
    <i name="Eion">      0.00000000 </i>
   </dipole>
   <energy>
    <i name="e_fr_energy">   -472.15787748 </i>
    <i name="e_wo_entrp">   -472.04105700 </i>
    <i name="e_0_energy">   -472.09946724 </i>
   </energy>
  </scstep>
  <scstep>
   <time name="dav">    1.20    1.20</time>
   <time name="total">    1.28    1.28</time>
   <dipole>
    <v name="dipole">      0.00000000       0.00000000       0.45778493 </v>
    <i name="Tr[quadrupol]">  -9469.81411350 </i>
    <i name="Echarged">      0.00000000 </i>
    <i name="Edipol_quadrupol">      0.00000000 </i>
    <i name="Eion">      0.00000000 </i>
   </dipole>
   <energy>
    <i name="e_fr_energy">   -472.15794525 </i>
    <i name="e_wo_entrp">   -472.04112986 </i>
    <i name="e_0_energy">   -472.09953756 </i>
   </energy>
  </scstep>
  <scstep>
   <time name="dav">    1.25    1.26</time>
   <time name="total">    1.34    1.34</time>
   <dipole>
    <v name="dipole">      0.00000000       0.00000000       0.45640596 </v>
    <i name="Tr[quadrupol]">  -9469.89289053 </i>
    <i name="Echarged">      0.00000000 </i>
    <i name="Edipol_quadrupol">      0.00000000 </i>
    <i name="Eion">      0.00000000 </i>
   </dipole>
   <energy>
    <i name="e_fr_energy">   -472.15801171 </i>
    <i name="e_wo_entrp">   -472.04118485 </i>
    <i name="e_0_energy">   -472.09959828 </i>
   </energy>
  </scstep>
  <scstep>
   <time name="dav">    1.22    1.22</time>
   <time name="total">    1.30    1.30</time>
   <dipole>
    <v name="dipole">      0.00000000       0.00000000       0.45558473 </v>
    <i name="Tr[quadrupol]">  -9469.97352678 </i>
    <i name="Echarged">      0.00000000 </i>
    <i name="Edipol_quadrupol">      0.00000000 </i>
    <i name="Eion">      0.00000000 </i>
   </dipole>
   <energy>
    <i name="e_fr_energy">   -472.15804209 </i>
    <i name="e_wo_entrp">   -472.04121699 </i>
    <i name="e_0_energy">   -472.09962954 </i>
   </energy>
  </scstep>
  <scstep>
   <time name="dav">    1.20    1.20</time>
   <time name="total">    1.30    1.30</time>
   <dipole>
    <v name="dipole">      0.00000000       0.00000000       0.45463345 </v>
    <i name="Tr[quadrupol]">  -9470.05184515 </i>
    <i name="Echarged">      0.00000000 </i>
    <i name="Edipol_quadrupol">      0.00000000 </i>
    <i name="Eion">      0.00000000 </i>
   </dipole>
   <energy>
    <i name="e_fr_energy">   -472.15806940 </i>
    <i name="e_wo_entrp">   -472.04123306 </i>
    <i name="e_0_energy">   -472.09965123 </i>
   </energy>
  </scstep>
  <scstep>
   <time name="dav">    1.18    1.18</time>
   <time name="total">    1.21    1.21</time>
   <dipole>
    <v name="dipole">      0.00000000       0.00000000       0.45432211 </v>
    <i name="Tr[quadrupol]">  -9470.13449603 </i>
    <i name="Echarged">      0.00000000 </i>
    <i name="Edipol_quadrupol">      0.00000000 </i>
    <i name="Eion">      0.00000000 </i>
   </dipole>
   <energy>
    <i name="alphaZ">    162.92930488 </i>
    <i name="ewald">  30861.30619363 </i>
    <i name="hartreedc"> -43737.59775378 </i>
    <i name="XCdc">    963.34531039 </i>
    <i name="pawpsdc">  30950.85581455 </i>
    <i name="pawaedc"> -30895.89218513 </i>
    <i name="eentropy">     -0.11683855 </i>
    <i name="bandstr">  -3544.32420955 </i>
    <i name="atom">  14767.33628989 </i>
    <i name="e_fr_energy">   -472.15807366 </i>
    <i name="e_wo_entrp">   -472.04123512 </i>
    <i name="e_0_energy">   -472.09965439 </i>
   </energy>
  </scstep>
  <structure>
   <crystal>
    <varray name="basis" >
     <v>      14.35398187       0.00000000       0.00000000 </v>
     <v>       0.00000000      12.42778001       0.00000000 </v>
     <v>       0.00000000       0.00000000      15.00000000 </v>
    </varray>
    <i name="volume">   2675.82193498 </i>
    <varray name="rec_basis" >
     <v>       0.06966708       0.00000000       0.00000000 </v>
     <v>       0.00000000       0.08046489       0.00000000 </v>
     <v>       0.00000000       0.00000000       0.06666667 </v>
    </varray>
   </crystal>
   <varray name="positions" >
    <v>       0.06549588       0.40375122       0.13333525 </v>
    <v>       0.98097145       0.23465699       0.13333629 </v>
    <v>       0.22588863       0.39796522       0.13333257 </v>
    <v>       0.81713953       0.57619966       0.13310152 </v>
    <v>       0.14985561       0.23470807       0.13333679 </v>
    <v>       0.90522813       0.39788252       0.13333901 </v>
    <v>       0.56554235       0.40240456       0.13306856 </v>
    <v>       0.48063453       0.23417769       0.13335819 </v>
    <v>       0.72755570       0.39690788       0.13313331 </v>
    <v>       0.31402727       0.57589293       0.13326558 </v>
    <v>       0.65017333       0.23418865       0.13336224 </v>
    <v>       0.40341716       0.39698528       0.13320976 </v>
    <v>       0.81588402       0.90424798       0.13336081 </v>
    <v>       0.73259696       0.73549150       0.13267210 </v>
    <v>       0.97634598       0.89826985       0.13334203 </v>
    <v>       0.06542573       0.07702025       0.13333721 </v>
    <v>       0.90049885       0.73475914       0.13335803 </v>
    <v>       0.65534038       0.90030349       0.13310562 </v>
    <v>       0.31534224       0.90425219       0.13337374 </v>
    <v>       0.23057327       0.73472646       0.13336349 </v>
    <v>       0.47607217       0.90025742       0.13312904 </v>
    <v>       0.56538171       0.07689424       0.13335389 </v>
    <v>       0.39900312       0.73547810       0.13302222 </v>
    <v>       0.15496456       0.89821371       0.13336187 </v>
    <v>       0.98394674       0.45600039       0.13332864 </v>
    <v>       0.90099326       0.29027710       0.13332738 </v>
    <v>       0.14703873       0.45603355       0.13332919 </v>
    <v>       0.14839787       0.12720595       0.13332591 </v>
    <v>       0.98245328       0.12722178       0.13332629 </v>
    <v>       0.22997359       0.29021988       0.13332871 </v>
    <v>       0.06538086       0.29119540       0.13333144 </v>
    <v>       0.81526723       0.45786045       0.13324825 </v>
    <v>       0.48435502       0.45397168       0.13219957 </v>
    <v>       0.40133426       0.29060252       0.13326734 </v>
    <v>       0.64647255       0.45355780       0.13180603 </v>
    <v>       0.64851782       0.12761284       0.13330868 </v>
    <v>       0.48237002       0.12755034       0.13331498 </v>
    <v>       0.72969899       0.29054511       0.13327809 </v>
    <v>       0.56535110       0.29191302       0.13323254 </v>
    <v>       0.31579314       0.45790612       0.13325590 </v>
    <v>       0.73397923       0.95557199       0.13331503 </v>
    <v>       0.65448900       0.79198687       0.13008742 </v>
    <v>       0.89679644       0.95588793       0.13329754 </v>
    <v>       0.89817857       0.62721921       0.13331764 </v>
    <v>       0.73587054       0.62983043       0.12996153 </v>
    <v>       0.97979942       0.78980696       0.13330086 </v>
    <v>       0.81505007       0.79086918       0.13332488 </v>
    <v>       0.56559076       0.95754722       0.13321980 </v>
    <v>       0.23454554       0.95586048       0.13328580 </v>
    <v>       0.15146144       0.78986638       0.13329925 </v>
    <v>       0.39736687       0.95556682       0.13328255 </v>
    <v>       0.39714958       0.62860075       0.13204420 </v>
    <v>       0.23305959       0.62727126       0.13324388 </v>
    <v>       0.47820650       0.79089329       0.13181310 </v>
    <v>       0.31602607       0.79083795       0.13329320 </v>
    <v>       0.06564568       0.95770081       0.13333834 </v>
    <v>       0.56998630       0.73645863       0.22234592 </v>
    <v>       0.65156076       0.57175729       0.21887741 </v>
    <v>       0.48843821       0.57335073       0.21306360 </v>
   </varray>
  </structure>
  <varray name="forces" >
   <v>       0.02305832       0.05450620       0.00789613 </v>
   <v>      -0.00425780      -0.03937433       0.00721020 </v>
   <v>      -0.30569831      -0.21262837      -0.01262788 </v>
   <v>       1.22416588      -0.01885811      -0.44630300 </v>
   <v>       0.07030112      -0.03283290       0.00747360 </v>
   <v>       0.35918604      -0.21223022       0.00607474 </v>
   <v>       0.00257998      -1.66306069      -0.52990510 </v>
   <v>      -0.22051130       0.06466960       0.01792962 </v>
   <v>       0.51707795      -0.72881875      -0.33509988 </v>
   <v>      -0.86481661      -0.33543342      -0.13193193 </v>
   <v>       0.16657283      -0.02693517       0.00525650 </v>
   <v>      -0.76245697      -0.59238232      -0.17532723 </v>
   <v>      -0.04429438       0.10413761       0.03222139 </v>
   <v>       1.91342303       1.24014651      -1.07711605 </v>
   <v>      -0.14720708      -0.08146931      -0.00843256 </v>
   <v>       0.03587484       0.19837779       0.00934843 </v>
   <v>       0.13217244      -0.12183429       0.02370966 </v>
   <v>       0.53819638       1.03672439      -0.40245596 </v>
   <v>       0.03499778       0.06034184       0.01822591 </v>
   <v>      -0.04027994      -0.21974082       0.02324817 </v>
   <v>      -0.34476960       0.79803865      -0.31383884 </v>
   <v>      -0.08246340       0.26648880       0.00004936 </v>
   <v>      -1.26983583       0.91214346      -0.57924025 </v>
   <v>       0.02465191      -0.14223153       0.01544617 </v>
   <v>      -0.05768008      -0.21890747      -0.00075754 </v>
   <v>       0.17621364       0.16275314      -0.00149983 </v>
   <v>       0.03433733      -0.23569871       0.00223704 </v>
   <v>      -0.26856961       0.11019715      -0.00363863 </v>
   <v>       0.25728551       0.08740832      -0.00647921 </v>
   <v>      -0.22334479       0.18196280       0.00088266 </v>
   <v>       0.03923384      -0.00981894       0.00503081 </v>
   <v>       0.18506641      -0.13714372      -0.12224987 </v>
   <v>      -0.42418656      -1.20284046      -1.01931200 </v>
   <v>       0.11740883      -0.08165993      -0.01514854 </v>
   <v>       0.43599321      -1.31104229      -1.39114935 </v>
   <v>      -0.23516210       0.12135810      -0.00573514 </v>
   <v>       0.33189947      -0.05502055      -0.00856211 </v>
   <v>      -0.03205215      -0.09701679      -0.01829547 </v>
   <v>       0.02470300      -0.34403274      -0.11093995 </v>
   <v>      -0.28347895      -0.16795617      -0.16903140 </v>
   <v>       0.20344662       0.29500782       0.09204062 </v>
   <v>       0.76734591       0.84970453      -2.16261921 </v>
   <v>       0.06296116      -0.24689285      -0.04244319 </v>
   <v>       0.29101703       0.08212632       0.08860273 </v>
   <v>       1.18043865       0.17263193      -2.18293616 </v>
   <v>      -0.22685617       0.18232773      -0.03110420 </v>
   <v>       0.68941435       0.37868256       0.12296199 </v>
   <v>      -0.08679247       0.48854253      -0.17642064 </v>
   <v>       0.01318039      -0.19425922      -0.03797226 </v>
   <v>       0.11278427       0.29703437      -0.03413891 </v>
   <v>      -0.06488900       0.04986517      -0.01534863 </v>
   <v>      -1.17903645       0.24607496      -1.12235848 </v>
   <v>       0.05000420       0.13543912      -0.02708352 </v>
   <v>      -0.89950118       0.99150820      -1.45310060 </v>
   <v>      -0.21919739       0.17354192      -0.00284973 </v>
   <v>      -0.03398632      -0.01730442       0.02007024 </v>
   <v>      -0.89022749       2.12935689       5.38988574 </v>
   <v>       1.27343166      -1.72967405       5.19251903 </v>
   <v>      -2.07687206      -1.39399989       3.08513254 </v>
  </varray>
  <varray name="stress" >
   <v>       3.56162503       1.28831554      -1.27271213 </v>
   <v>       1.28831557       3.76057240      -0.64188301 </v>
   <v>      -1.27271213      -0.64188302      -2.00613845 </v>
  </varray>
  <energy>
   <i name="e_fr_energy">   -472.15807366 </i>
   <i name="e_wo_entrp">   -472.04123512 </i>
   <i name="e_0_energy">   -472.09965439 </i>
  </energy>
  <time name="totalsc">   34.04   34.09</time>
 </calculation>
 <calculation>
  <scstep>
   <time name="dav">    1.60    1.61</time>
   <time name="total">    1.69    1.69</time>
   <dipole>
    <v name="dipole">      0.00000000       0.00000000       0.45410776 </v>
    <i name="Tr[quadrupol]">  -9608.97774285 </i>
    <i name="Echarged">      0.00000000 </i>
    <i name="Edipol_quadrupol">      0.00000000 </i>
    <i name="Eion">      0.00000000 </i>
   </dipole>
   <energy>
    <i name="alphaZ">    161.20346643 </i>
    <i name="ewald">  29906.94691348 </i>
    <i name="hartreedc"> -42767.37494348 </i>
    <i name="XCdc">    957.38291751 </i>
    <i name="pawpsdc">  30950.85033075 </i>
    <i name="pawaedc"> -30895.88660563 </i>
    <i name="eentropy">     -0.01991382 </i>
    <i name="bandstr">  -3553.84500985 </i>
    <i name="atom">  14767.33628989 </i>
    <i name="e_fr_energy">   -473.40655472 </i>
    <i name="e_wo_entrp">   -473.38664090 </i>
    <i name="e_0_energy">   -473.39659781 </i>
   </energy>
  </scstep>
  <scstep>
   <time name="dav">    1.73    1.73</time>
   <time name="total">    1.81    1.81</time>
   <dipole>
    <v name="dipole">      0.00000000       0.00000000       0.50787125 </v>
    <i name="Tr[quadrupol]">  -9609.23905073 </i>
    <i name="Echarged">      0.00000000 </i>
    <i name="Edipol_quadrupol">      0.00000000 </i>
    <i name="Eion">      0.00000000 </i>
   </dipole>
   <energy>
    <i name="e_fr_energy">   -474.91465773 </i>
    <i name="e_wo_entrp">   -474.82021479 </i>
    <i name="e_0_energy">   -474.86743626 </i>
   </energy>
  </scstep>
  <scstep>
   <time name="dav">    1.68    1.69</time>
   <time name="total">    1.76    1.77</time>
   <dipole>
    <v name="dipole">      0.00000000       0.00000000       0.43675599 </v>
    <i name="Tr[quadrupol]">  -9608.60830500 </i>
    <i name="Echarged">      0.00000000 </i>
[...]
    <i name="bandstr">  -3446.41224467 </i>
    <i name="atom">  14767.33628989 </i>
    <i name="e_fr_energy">   -477.96816241 </i>
    <i name="e_wo_entrp">   -477.96815683 </i>
    <i name="e_0_energy">   -477.96815962 </i>
   </energy>
  </scstep>
  <scstep>
   <time name="dav">    1.72    1.73</time>
   <time name="total">    1.81    1.82</time>
   <dipole>
    <v name="dipole">      0.00000000       0.00000000       0.31929772 </v>
    <i name="Tr[quadrupol]">  -9286.22854519 </i>
    <i name="Echarged">      0.00000000 </i>
    <i name="Edipol_quadrupol">      0.00000000 </i>
    <i name="Eion">      0.00000000 </i>
   </dipole>
   <energy>
    <i name="e_fr_energy">   -477.99984000 </i>
    <i name="e_wo_entrp">   -477.99983128 </i>
    <i name="e_0_energy">   -477.99983564 </i>
   </energy>
  </scstep>
  <scstep>
   <time name="dav">    1.74    1.74</time>
   <time name="total">    1.83    1.83</time>
   <dipole>
    <v name="dipole">      0.00000000       0.00000000       0.31703658 </v>
    <i name="Tr[quadrupol]">  -9286.29496423 </i>
    <i name="Echarged">      0.00000000 </i>
    <i name="Edipol_quadrupol">      0.00000000 </i>
    <i name="Eion">      0.00000000 </i>
   </dipole>
   <energy>
    <i name="e_fr_energy">   -477.99799799 </i>
    <i name="e_wo_entrp">   -477.99799262 </i>
    <i name="e_0_energy">   -477.99799531 </i>
   </energy>
  </scstep>
  <scstep>
   <time name="dav">    1.71    1.71</time>
   <time name="total">    1.79    1.79</time>
   <dipole>
    <v name="dipole">      0.00000000       0.00000000       0.31832295 </v>
    <i name="Tr[quadrupol]">  -9286.29763784 </i>
    <i name="Echarged">      0.00000000 </i>
    <i name="Edipol_quadrupol">      0.00000000 </i>
    <i name="Eion">      0.00000000 </i>
   </dipole>
   <energy>
    <i name="e_fr_energy">   -477.99787047 </i>
    <i name="e_wo_entrp">   -477.99785701 </i>
    <i name="e_0_energy">   -477.99786374 </i>
   </energy>
  </scstep>
  <scstep>
   <time name="dav">    1.71    1.71</time>
   <time name="total">    1.79    1.79</time>
   <dipole>
    <v name="dipole">      0.00000000       0.00000000       0.31754846 </v>
    <i name="Tr[quadrupol]">  -9286.29863269 </i>
    <i name="Echarged">      0.00000000 </i>
    <i name="Edipol_quadrupol">      0.00000000 </i>
    <i name="Eion">      0.00000000 </i>
   </dipole>
   <energy>
    <i name="e_fr_energy">   -477.99716981 </i>
    <i name="e_wo_entrp">   -477.99716382 </i>
    <i name="e_0_energy">   -477.99716682 </i>
   </energy>
  </scstep>
  <scstep>
   <time name="dav">    1.72    1.72</time>
   <time name="total">    1.81    1.81</time>
   <dipole>
    <v name="dipole">      0.00000000       0.00000000       0.31891998 </v>
    <i name="Tr[quadrupol]">  -9286.29893274 </i>
    <i name="Echarged">      0.00000000 </i>
    <i name="Edipol_quadrupol">      0.00000000 </i>
    <i name="Eion">      0.00000000 </i>
   </dipole>
   <energy>
    <i name="e_fr_energy">   -477.99716777 </i>
    <i name="e_wo_entrp">   -477.99716024 </i>
    <i name="e_0_energy">   -477.99716400 </i>
   </energy>
  </scstep>
  <scstep>
   <time name="dav">    1.73    1.73</time>
   <time name="total">    1.76    1.77</time>
   <dipole>
    <v name="dipole">      0.00000000       0.00000000       0.31968044 </v>
    <i name="Tr[quadrupol]">  -9286.29864030 </i>
    <i name="Echarged">      0.00000000 </i>
    <i name="Edipol_quadrupol">      0.00000000 </i>
    <i name="Eion">      0.00000000 </i>
   </dipole>
   <energy>
    <i name="alphaZ">    159.28917721 </i>
    <i name="ewald">  28832.43000027 </i>
    <i name="hartreedc"> -41819.52948037 </i>
    <i name="XCdc">    961.46238684 </i>
    <i name="pawpsdc">  30422.66274943 </i>
    <i name="pawaedc"> -30355.89920204 </i>
    <i name="eentropy">     -0.00000736 </i>
    <i name="bandstr">  -3445.74908355 </i>
    <i name="atom">  14767.33628989 </i>
    <i name="e_fr_energy">   -477.99716967 </i>
    <i name="e_wo_entrp">   -477.99716231 </i>
    <i name="e_0_energy">   -477.99716599 </i>
   </energy>
  </scstep>
  <structure>
   <crystal>
    <varray name="basis" >
     <v>      14.21529956       0.00000000       0.00000000 </v>
     <v>       0.00000000      12.30706790       0.00000000 </v>
     <v>       0.00000000       0.00000000      15.00000000 </v>
    </varray>
    <i name="volume">   2624.22985389 </i>
    <varray name="rec_basis" >
     <v>       0.07034674       0.00000000       0.00000000 </v>
     <v>       0.00000000       0.08125412       0.00000000 </v>
     <v>       0.00000000       0.00000000       0.06666667 </v>
    </varray>
   </crystal>
   <varray name="positions" >
    <v>       0.06593279       0.40388580       0.13338156 </v>
    <v>       0.98089684       0.23470995       0.13377227 </v>
    <v>       0.22640234       0.39837148       0.13019235 </v>
    <v>       0.81680215       0.57754965       0.12525896 </v>
    <v>       0.15074837       0.23484995       0.13346160 </v>
    <v>       0.90538763       0.39835431       0.13116015 </v>
    <v>       0.56571645       0.40370155       0.12640487 </v>
    <v>       0.48106086       0.23503970       0.13329803 </v>
    <v>       0.72669514       0.39810075       0.12759836 </v>
    <v>       0.31430088       0.57650681       0.12806450 </v>
    <v>       0.65020881       0.23457607       0.13142142 </v>
    <v>       0.40431768       0.39818060       0.13019329 </v>
    <v>       0.81506211       0.90400693       0.13384842 </v>
    <v>       0.73199013       0.73554632       0.11714778 </v>
    <v>       0.97570393       0.89914285       0.13434043 </v>
    <v>       0.06580034       0.07828562       0.13313297 </v>
    <v>       0.90073450       0.73551597       0.13363538 </v>
    <v>       0.65502843       0.89681255       0.12408461 </v>
    <v>       0.31631047       0.90395308       0.13301872 </v>
    <v>       0.23067721       0.73492625       0.13442757 </v>
    <v>       0.47685690       0.89677429       0.12546359 </v>
    <v>       0.56579401       0.07633656       0.13151867 </v>
    <v>       0.39965136       0.73496961       0.12210946 </v>
    <v>       0.15580453       0.89886249       0.13334272 </v>
    <v>       0.98399686       0.45629314       0.13241099 </v>
    <v>       0.90047415       0.29038687       0.13240711 </v>
    <v>       0.14723272       0.45608608       0.13152923 </v>
    <v>       0.14847979       0.12766526       0.13336047 </v>
    <v>       0.98287588       0.12764549       0.13301404 </v>
    <v>       0.23097407       0.28994180       0.13121256 </v>
    <v>       0.06564280       0.29153515       0.13459753 </v>
    <v>       0.81555733       0.45840262       0.12688692 </v>
    <v>       0.48478544       0.45722182       0.12645540 </v>
    <v>       0.40228047       0.29112075       0.13826031 </v>
    <v>       0.64730997       0.45698597       0.12679882 </v>
    <v>       0.64912051       0.12661846       0.13461919 </v>
    <v>       0.48301225       0.12615964       0.13330239 </v>
    <v>       0.72971239       0.29111322       0.13237632 </v>
    <v>       0.56573906       0.29125166       0.12693645 </v>
    <v>       0.31503744       0.45766188       0.12579693 </v>
    <v>       0.73230956       0.95456643       0.13717062 </v>
    <v>       0.65224302       0.78998415       0.10837395 </v>
    <v>       0.89628015       0.95761779       0.13560997 </v>
    <v>       0.89871906       0.62692392       0.13536022 </v>
    <v>       0.73410651       0.62668744       0.11372645 </v>
    <v>       0.98027190       0.79091006       0.13623964 </v>
    <v>       0.81596817       0.79140733       0.13012107 </v>
    <v>       0.56596491       0.95589837       0.12619804 </v>
    <v>       0.23485830       0.95699475       0.13550491 </v>
    <v>       0.15114405       0.79182080       0.13363135 </v>
    <v>       0.39883150       0.95454710       0.13404604 </v>
    <v>       0.39796437       0.62658963       0.11900682 </v>
    <v>       0.23277964       0.62766411       0.13841762 </v>
    <v>       0.47978904       0.78864957       0.11682688 </v>
    <v>       0.31575882       0.79083962       0.13001802 </v>
    <v>       0.06572006       0.95901795       0.13217923 </v>
    <v>       0.56612461       0.74427953       0.30146745 </v>
    <v>       0.66011629       0.56640726       0.27413241 </v>
    <v>       0.47483866       0.56633833       0.24760698 </v>
   </varray>
  </structure>
  <varray name="forces" >
   <v>      -0.18102630       0.06913432      -0.06495829 </v>
   <v>      -0.03783802       0.43179566      -0.02030398 </v>
   <v>       0.06299689      -0.21486209      -0.05161908 </v>
   <v>      -0.02769148      -0.25147736       0.00588500 </v>
   <v>      -0.10665675       0.31929343      -0.04163973 </v>
   <v>      -0.14176680      -0.08023185      -0.00180592 </v>
   <v>       0.43008565      -0.34730119       0.06906657 </v>
   <v>       0.10102000      -0.56920566      -0.06355982 </v>
   <v>       0.05802217       0.30732136       0.01170492 </v>
   <v>       0.04930430       0.10369717       0.10201483 </v>
   <v>       0.07297451      -0.27404644      -0.07237094 </v>
   <v>      -0.12508065       0.25495743       0.16152703 </v>
   <v>      -0.00267625       0.14687767       0.18248001 </v>
   <v>       0.09185792      -0.28559498      -0.20817516 </v>
   <v>       0.23409345       0.36829839       0.05829943 </v>
   <v>      -0.03159434      -0.52353637       0.00902442 </v>
   <v>      -0.15826708      -0.36893821       0.14510455 </v>
   <v>      -0.28482424       0.22821187      -0.02879237 </v>
   <v>      -0.12422281      -0.01538811       0.03486643 </v>
   <v>       0.08230794       0.04890702      -0.01834978 </v>
   <v>       0.04800164      -0.14376025      -0.08386887 </v>
   <v>      -0.06862916      -0.17967041       0.02348428 </v>
   <v>      -0.22020220       0.15874545      -0.05439414 </v>
   <v>      -0.27356289       0.27252489       0.07820257 </v>
   <v>       0.11475541       0.18817413      -0.12137527 </v>
   <v>       0.10500545      -0.11275784      -0.07414755 </v>
   <v>       0.10365558       0.26624688      -0.11951756 </v>
   <v>       0.35086845      -0.24402542      -0.06068043 </v>
   <v>      -0.33454102      -0.20047557      -0.05051490 </v>
   <v>       0.01097191       0.09680289      -0.12757756 </v>
   <v>       0.06911778      -0.18559407       0.08612299 </v>
   <v>       0.28256163      -0.24707967       0.12287043 </v>
   <v>      -0.60534000       0.12047846       0.31108369 </v>
   <v>      -0.40021818      -0.16935142       0.00053569 </v>
   <v>       0.18476866      -0.04160181       0.30598514 </v>
   <v>       0.10001118       0.27310754      -0.10024674 </v>
   <v>      -0.12738529       0.36769570      -0.01618213 </v>
   <v>       0.30010448      -0.35979139      -0.08335482 </v>
   <v>      -0.06302269       0.21167558      -0.17667551 </v>
   <v>      -0.06369115      -0.16279361       0.14463945 </v>
   <v>       0.43617519       0.04917643       0.08333008 </v>
   <v>       0.00723739      -0.03293737      -0.16492147 </v>
   <v>       0.10534453      -0.20980966      -0.01406948 </v>
   <v>       0.27404835       0.33592675       0.02668871 </v>
   <v>      -0.16221846       0.44195182      -0.16590322 </v>
   <v>       0.07856533       0.07536809      -0.00480544 </v>
   <v>      -0.20083134      -0.06536813      -0.17991348 </v>
   <v>      -0.00929053       0.28437700       0.04780799 </v>
   <v>       0.33890566       0.09599679       0.01918120 </v>
   <v>      -0.07614298      -0.45543918       0.02242713 </v>
   <v>      -0.25096024       0.29367252       0.05108670 </v>
   <v>      -0.04836594      -0.42897252      -0.02089883 </v>
   <v>      -0.23840677      -0.21705756       0.01644424 </v>
   <v>       0.41727049       0.39238095      -0.07183145 </v>
   <v>       0.04302722       0.09560952      -0.08151856 </v>
   <v>      -0.18175805      -0.12538660       0.12965554 </v>
   <v>      -0.18616929       0.11247758       0.60552580 </v>
   <v>       0.08314823      -0.11171932      -0.06031557 </v>
   <v>       0.09617348       0.21329076      -0.45075670 </v>
  </varray>
  <varray name="stress" >
   <v>       0.05723601       0.27762211      -0.09139447 </v>
   <v>       0.27762209      -0.90799297       0.21318420 </v>
   <v>      -0.09139447       0.21318422     -11.59696147 </v>
  </varray>
  <energy>
   <i name="e_fr_energy">   -477.99716967 </i>
   <i name="e_wo_entrp">   -477.99716231 </i>
   <i name="e_0_energy">   -477.99716599 </i>
  </energy>
  <time name="totalsc">   13.85   13.87</time>
 </calculation>
 <calculation>
  <scstep>
   <time name="dav">    1.57    1.57</time>
   <time name="total">    1.65    1.65</time>
   <dipole>
    <v name="dipole">      0.00000000       0.00000000       0.32019465 </v>
    <i name="Tr[quadrupol]">  -9299.91267555 </i>
    <i name="Echarged">      0.00000000 </i>
    <i name="Edipol_quadrupol">      0.00000000 </i>
    <i name="Eion">      0.00000000 </i>
   </dipole>
   <energy>
    <i name="alphaZ">    157.93454921 </i>
    <i name="ewald">  28729.28973970 </i>
    <i name="hartreedc"> -41717.51637904 </i>
    <i name="XCdc">    961.12156690 </i>
    <i name="pawpsdc">  30423.16856184 </i>
    <i name="pawaedc"> -30356.40388373 </i>
    <i name="eentropy">     -0.00001266 </i>
    <i name="bandstr">  -3442.96500056 </i>
    <i name="atom">  14767.33628989 </i>
    <i name="e_fr_energy">   -478.03456846 </i>
    <i name="e_wo_entrp">   -478.03455580 </i>
    <i name="e_0_energy">   -478.03456213 </i>
   </energy>
  </scstep>
  <scstep>
   <time name="dav">    1.76    1.76</time>
   <time name="total">    1.85    1.85</time>
   <dipole>
    <v name="dipole">      0.00000000       0.00000000       0.32262730 </v>
    <i name="Tr[quadrupol]">  -9299.96898987 </i>
    <i name="Echarged">      0.00000000 </i>
    <i name="Edipol_quadrupol">      0.00000000 </i>
    <i name="Eion">      0.00000000 </i>
   </dipole>
   <energy>
    <i name="e_fr_energy">   -478.07984800 </i>
    <i name="e_wo_entrp">   -478.07983732 </i>
    <i name="e_0_energy">   -478.07984266 </i>
   </energy>
  </scstep>
  <scstep>
   <time name="dav">    1.75    1.75</time>
   <time name="total">    1.83    1.83</time>
   <dipole>
    <v name="dipole">      0.00000000       0.00000000       0.32210208 </v>
    <i name="Tr[quadrupol]">  -9299.97541351 </i>
    <i name="Echarged">      0.00000000 </i>
    <i name="Edipol_quadrupol">      0.00000000 </i>
    <i name="Eion">      0.00000000 </i>
   </dipole>
   <energy>
    <i name="e_fr_energy">   -478.07767322 </i>
    <i name="e_wo_entrp">   -478.07765749 </i>
    <i name="e_0_energy">   -478.07766535 </i>
   </energy>
  </scstep>
  <scstep>
   <time name="dav">    1.72    1.72</time>
   <time name="total">    1.81    1.81</time>
   <dipole>
    <v name="dipole">      0.00000000       0.00000000       0.32177747 </v>
    <i name="Tr[quadrupol]">  -9300.03563830 </i>
    <i name="Echarged">      0.00000000 </i>
    <i name="Edipol_quadrupol">      0.00000000 </i>
    <i name="Eion">      0.00000000 </i>
   </dipole>
   <energy>
    <i name="e_fr_energy">   -478.07716904 </i>
    <i name="e_wo_entrp">   -478.07716125 </i>
    <i name="e_0_energy">   -478.07716515 </i>
   </energy>
  </scstep>
  <scstep>
   <time name="dav">    1.69    1.69</time>
   <time name="total">    1.78    1.78</time>
   <dipole>
    <v name="dipole">      0.00000000       0.00000000       0.32409332 </v>
    <i name="Tr[quadrupol]">  -9300.03485044 </i>
    <i name="Echarged">      0.00000000 </i>
    <i name="Edipol_quadrupol">      0.00000000 </i>
    <i name="Eion">      0.00000000 </i>
   </dipole>
   <energy>
    <i name="e_fr_energy">   -478.07664490 </i>
    <i name="e_wo_entrp">   -478.07662610 </i>
    <i name="e_0_energy">   -478.07663550 </i>
   </energy>
  </scstep>
  <scstep>
   <time name="dav">    1.66    1.67</time>
   <time name="total">    1.74    1.75</time>
   <dipole>
    <v name="dipole">      0.00000000       0.00000000       0.32469795 </v>
    <i name="Tr[quadrupol]">  -9299.97284991 </i>
    <i name="Echarged">      0.00000000 </i>
    <i name="Edipol_quadrupol">      0.00000000 </i>
    <i name="Eion">      0.00000000 </i>
   </dipole>
   <energy>
    <i name="e_fr_energy">   -478.07654199 </i>
    <i name="e_wo_entrp">   -478.07652886 </i>
    <i name="e_0_energy">   -478.07653542 </i>
   </energy>
  </scstep>
  <scstep>
   <time name="dav">    1.69    1.69</time>
   <time name="total">    1.78    1.78</time>
   <dipole>
    <v name="dipole">      0.00000000       0.00000000       0.32565410 </v>
    <i name="Tr[quadrupol]">  -9299.91030438 </i>
    <i name="Echarged">      0.00000000 </i>
    <i name="Edipol_quadrupol">      0.00000000 </i>
    <i name="Eion">      0.00000000 </i>
   </dipole>
   <energy>
    <i name="e_fr_energy">   -478.07655440 </i>
    <i name="e_wo_entrp">   -478.07654044 </i>
    <i name="e_0_energy">   -478.07654742 </i>
   </energy>
  </scstep>
  <scstep>
   <time name="dav">    1.34    1.34</time>
   <time name="total">    1.42    1.42</time>
   <dipole>
    <v name="dipole">      0.00000000       0.00000000       0.32656236 </v>
    <i name="Tr[quadrupol]">  -9299.90865362 </i>
    <i name="Echarged">      0.00000000 </i>
    <i name="Edipol_quadrupol">      0.00000000 </i>
    <i name="Eion">      0.00000000 </i>
   </dipole>
   <energy>
    <i name="e_fr_energy">   -478.07657120 </i>
    <i name="e_wo_entrp">   -478.07655726 </i>
    <i name="e_0_energy">   -478.07656423 </i>
   </energy>
  </scstep>
  <scstep>
   <time name="dav">    1.20    1.20</time>
   <time name="total">    1.29    1.29</time>
   <dipole>
    <v name="dipole">      0.00000000       0.00000000       0.32742526 </v>
    <i name="Tr[quadrupol]">  -9299.90724427 </i>
    <i name="Echarged">      0.00000000 </i>
    <i name="Edipol_quadrupol">      0.00000000 </i>
    <i name="Eion">      0.00000000 </i>
   </dipole>
   <energy>
    <i name="e_fr_energy">   -478.07659406 </i>
    <i name="e_wo_entrp">   -478.07657999 </i>
    <i name="e_0_energy">   -478.07658702 </i>
   </energy>
  </scstep>
  <scstep>
   <time name="dav">    1.22    1.22</time>
   <time name="total">    1.31    1.31</time>
   <dipole>
    <v name="dipole">      0.00000000       0.00000000       0.32804738 </v>
    <i name="Tr[quadrupol]">  -9299.90618184 </i>
    <i name="Echarged">      0.00000000 </i>
    <i name="Edipol_quadrupol">      0.00000000 </i>
    <i name="Eion">      0.00000000 </i>
   </dipole>
   <energy>
    <i name="e_fr_energy">   -478.07661243 </i>
    <i name="e_wo_entrp">   -478.07659835 </i>
    <i name="e_0_energy">   -478.07660539 </i>
   </energy>
  </scstep>
  <scstep>
   <time name="dav">    1.21    1.21</time>
   <time name="total">    1.30    1.30</time>
   <dipole>
    <v name="dipole">      0.00000000       0.00000000       0.32872165 </v>
    <i name="Tr[quadrupol]">  -9299.90500874 </i>
    <i name="Echarged">      0.00000000 </i>
    <i name="Edipol_quadrupol">      0.00000000 </i>
    <i name="Eion">      0.00000000 </i>
   </dipole>
   <energy>
    <i name="e_fr_energy">   -478.07663076 </i>
    <i name="e_wo_entrp">   -478.07661665 </i>
    <i name="e_0_energy">   -478.07662371 </i>
   </energy>
  </scstep>
  <scstep>
   <time name="dav">    1.20    1.20</time>
   <time name="total">    1.28    1.28</time>
   <dipole>
    <v name="dipole">      0.00000000       0.00000000       0.32929998 </v>
    <i name="Tr[quadrupol]">  -9299.90395493 </i>
    <i name="Echarged">      0.00000000 </i>
    <i name="Edipol_quadrupol">      0.00000000 </i>
    <i name="Eion">      0.00000000 </i>
   </dipole>
   <energy>
    <i name="e_fr_energy">   -478.07664367 </i>
    <i name="e_wo_entrp">   -478.07662954 </i>
    <i name="e_0_energy">   -478.07663660 </i>
   </energy>
  </scstep>
  <scstep>
   <time name="dav">    1.18    1.19</time>
