slab_Cel1-OPT                           
           1
    14.265900    0.000000    0.000000
     0.000000   12.356997    0.000000
     0.000000    0.000000   15.000000
   C    N    Au   Ag   Pd
    24    32     1     1     1
Direct configuration=     1
   0.06537593  0.40364000  0.13333000
   0.98097748  0.23494000  0.13333000
   0.22593437  0.39820000  0.13333000
   0.81543575  0.57710000  0.13333000
   0.14973747  0.23490000  0.13333000
   0.90517930  0.39797000  0.13333000
   0.56537593  0.40364000  0.13333000
   0.48097748  0.23494000  0.13333000
   0.72593437  0.39820000  0.13333000
   0.31543575  0.57710000  0.13333000
   0.64973747  0.23490000  0.13333000
   0.40517930  0.39797000  0.13333000
   0.81551954  0.90364000  0.13333000
   0.73112108  0.73494000  0.13333000
   0.97607797  0.89820000  0.13333000
   0.06529214  0.07710000  0.13333000
   0.89988107  0.73490000  0.13333000
   0.65532291  0.89797000  0.13333000
   0.31551954  0.90364000  0.13333000
   0.23112108  0.73494000  0.13333000
   0.47607797  0.89820000  0.13333000
   0.56529214  0.07710000  0.13333000
   0.39988107  0.73490000  0.13333000
   0.15532291  0.89797000  0.13333000
   0.98400093  0.45588000  0.13333000
   0.90111835  0.29021000  0.13333000
   0.14710595  0.45595000  0.13333000
   0.14840652  0.12714000  0.13333000
   0.98256150  0.12707000  0.13333000
   0.22992331  0.29008000  0.13333000
   0.06536362  0.29116000  0.13333000
   0.81553147  0.45774000  0.13333000
   0.48400093  0.45588000  0.13333000
   0.40111835  0.29021000  0.13333000
   0.64710595  0.45595000  0.13333000
   0.64840652  0.12714000  0.13333000
   0.48256150  0.12707000  0.13333000
   0.72992331  0.29008000  0.13333000
   0.56536362  0.29116000  0.13333000
   0.31553147  0.45774000  0.13333000
   0.73414454  0.95588000  0.13333000
   0.65126196  0.79021000  0.13333000
   0.89724956  0.95595000  0.13333000
   0.89855012  0.62714000  0.13333000
   0.73270510  0.62707000  0.13333000
   0.98006692  0.79008000  0.13333000
   0.81550723  0.79116000  0.13333000
   0.56567507  0.95774000  0.13333000
   0.23414454  0.95588000  0.13333000
   0.15126196  0.79021000  0.13333000
   0.39724956  0.95595000  0.13333000
   0.39855012  0.62714000  0.13333000
   0.23270510  0.62707000  0.13333000
   0.48006692  0.79008000  0.13333000
   0.31550723  0.79116000  0.13333000
   0.06567507  0.95774000  0.13333000
   0.57212639  0.73516025  0.21645333
   0.65206172  0.57443857  0.21306333
   0.48966112  0.57467425  0.20988333
slab_Cel1-OPT                           
           1
    14.353982    0.000000    0.000000
     0.000000   12.427780    0.000000
     0.000000    0.000000   15.000000
   C    N    Au   Ag   Pd
    24    32     1     1     1
Direct configuration=     2
   0.06549588  0.40375122  0.13333525
   0.98097145  0.23465699  0.13333629
   0.22588863  0.39796522  0.13333257
   0.81713953  0.57619966  0.13310152
   0.14985561  0.23470807  0.13333679
   0.90522813  0.39788252  0.13333901
   0.56554235  0.40240456  0.13306856
   0.48063453  0.23417769  0.13335819
   0.72755570  0.39690788  0.13313331
   0.31402727  0.57589293  0.13326558
   0.65017333  0.23418865  0.13336224
   0.40341716  0.39698528  0.13320976
   0.81588402  0.90424798  0.13336081
   0.73259696  0.73549150  0.13267210
   0.97634598  0.89826985  0.13334203
   0.06542573  0.07702025  0.13333721
   0.90049885  0.73475914  0.13335803
   0.65534038  0.90030349  0.13310562
   0.31534224  0.90425219  0.13337374
   0.23057327  0.73472646  0.13336349
   0.47607217  0.90025742  0.13312904
   0.56538171  0.07689424  0.13335389
   0.39900312  0.73547810  0.13302222
   0.15496456  0.89821371  0.13336187
   0.98394674  0.45600039  0.13332864
   0.90099326  0.29027710  0.13332738
   0.14703873  0.45603355  0.13332919
   0.14839787  0.12720595  0.13332591
   0.98245328  0.12722178  0.13332629
   0.22997359  0.29021988  0.13332871
   0.06538086  0.29119540  0.13333144
   0.81526723  0.45786045  0.13324825
   0.48435502  0.45397168  0.13219957
   0.40133426  0.29060252  0.13326734
   0.64647255  0.45355780  0.13180603
   0.64851782  0.12761284  0.13330868
   0.48237002  0.12755034  0.13331498
   0.72969899  0.29054511  0.13327809
   0.56535110  0.29191302  0.13323254
   0.31579314  0.45790612  0.13325590
   0.73397923  0.95557199  0.13331503
   0.65448900  0.79198687  0.13008742
   0.89679644  0.95588793  0.13329754
   0.89817857  0.62721921  0.13331764
   0.73587054  0.62983043  0.12996153
   0.97979942  0.78980696  0.13330086
   0.81505007  0.79086918  0.13332488
   0.56559076  0.95754722  0.13321980
   0.23454554  0.95586048  0.13328580
   0.15146144  0.78986638  0.13329925
   0.39736687  0.95556682  0.13328255
   0.39714958  0.62860075  0.13204420
   0.23305959  0.62727126  0.13324388
   0.47820650  0.79089329  0.13181310
   0.31602607  0.79083795  0.13329320
   0.06564568  0.95770081  0.13333834
   0.56998630  0.73645863  0.22234592
   0.65156076  0.57175729  0.21887741
   0.48843821  0.57335073  0.21306360
slab_Cel1-OPT                           
           1
    14.471991    0.000000    0.000000
     0.000000   12.522613    0.000000
     0.000000    0.000000   15.000000
   C    N    Au   Ag   Pd
    24    32     1     1     1
Direct configuration=     3
   0.06565559  0.40389937  0.13334229
   0.98096342  0.23427999  0.13334472
   0.22582773  0.39765246  0.13333601
   0.81940818  0.57500028  0.13279541
   0.15001293  0.23445239  0.13334589
   0.90529315  0.39776598  0.13335109
   0.56576395  0.40075880  0.13271829
   0.48017787  0.23316219  0.13339597
   0.72971458  0.39518660  0.13286979
   0.31215182  0.57428495  0.13317926
   0.65075370  0.23324104  0.13340543
   0.40107079  0.39567349  0.13304866
   0.81636935  0.90505790  0.13340209
   0.73456215  0.73622618  0.13179066
   0.97670284  0.89836290  0.13335815
   0.06560360  0.07691401  0.13334686
   0.90132145  0.73457150  0.13339558
   0.65536363  0.90341202  0.13280500
   0.31510617  0.90506772  0.13343233
   0.22984383  0.73444200  0.13340837
   0.47606444  0.90299817  0.13285980
   0.56550097  0.07662013  0.13338590
   0.39783409  0.73624821  0.13260987
   0.15448740  0.89853837  0.13340457
   0.98387457  0.45616076  0.13332681
   0.90082669  0.29036648  0.13332388
   0.14694921  0.45614484  0.13332810
   0.14838636  0.12729381  0.13332044
   0.98230917  0.12742396  0.13332133
   0.23004053  0.29040622  0.13332698
   0.06540382  0.29124256  0.13333337
   0.81491538  0.45802091  0.13313872
   0.48482651  0.45142954  0.13068505
   0.40162175  0.29112540  0.13318338
   0.64562915  0.45037107  0.12976427
   0.64866604  0.12824271  0.13328012
   0.48211507  0.12819021  0.13329485
   0.72940029  0.29116470  0.13320855
   0.56533442  0.29291615  0.13310197
   0.31614156  0.45812742  0.13315662
   0.73375911  0.95516167  0.13329497
   0.65878595  0.79435390  0.12574312
   0.89619309  0.95580524  0.13325405
   0.89768384  0.62732473  0.13330107
   0.74008545  0.63350769  0.12544858
   0.97944323  0.78944324  0.13326182
   0.81444135  0.79048176  0.13331802
   0.56547850  0.95729042  0.13307215
   0.23507949  0.95583447  0.13322659
   0.15172705  0.78940862  0.13325805
   0.39752306  0.95505637  0.13321899
   0.39528471  0.63054666  0.13032154
   0.23353160  0.62753937  0.13312851
   0.47572927  0.79197670  0.12978081
   0.31671693  0.79040893  0.13324390
   0.06560653  0.95764859  0.13334952
   0.56713668  0.73818824  0.23024060
   0.65089372  0.56818547  0.22666690
   0.48680986  0.57158762  0.21732440
slab_Cel1-OPT                           
           1
    14.454483    0.000000    0.000000
     0.000000   12.508544    0.000000
     0.000000    0.000000   15.000000
   C    N    Au   Ag   Pd
    24    32     1     1     1
Direct configuration=     4
   0.06563209  0.40387756  0.13334124
   0.98096460  0.23433549  0.13334347
   0.22583669  0.39769851  0.13333549
   0.81907436  0.57517687  0.13284082
   0.14998978  0.23449004  0.13334454
   0.90528358  0.39778314  0.13334930
   0.56573135  0.40100111  0.13277026
   0.48024507  0.23331170  0.13339036
   0.72939690  0.39544003  0.13290889
   0.31242779  0.57452170  0.13319207
   0.65066830  0.23338056  0.13339902
   0.40141606  0.39586663  0.13307256
   0.81629794  0.90493865  0.13339596
   0.73427298  0.73611801  0.13192143
   0.97665033  0.89834920  0.13335576
   0.06557743  0.07692965  0.13334543
   0.90120040  0.73459913  0.13339001
   0.65536021  0.90295434  0.13284960
   0.31514091  0.90494764  0.13342364
   0.22995116  0.73448389  0.13340171
   0.47606557  0.90259464  0.13289974
   0.56548342  0.07666049  0.13338115
   0.39800611  0.73613482  0.13267105
   0.15455762  0.89849057  0.13339824
   0.98388519  0.45613715  0.13332708
   0.90085120  0.29035332  0.13332440
   0.14696238  0.45612845  0.13332826
   0.14838806  0.12728088  0.13332125
   0.98233038  0.12739419  0.13332207
   0.23003068  0.29037879  0.13332723
   0.06540044  0.29123561  0.13333308
   0.81496716  0.45799729  0.13315497
   0.48475713  0.45180383  0.13090974
   0.40157945  0.29104842  0.13319584
   0.64575326  0.45084026  0.13006718
   0.64864423  0.12814998  0.13328435
   0.48215258  0.12809600  0.13329784
   0.72944424  0.29107348  0.13321887
   0.56533688  0.29276845  0.13312134
   0.31609029  0.45809483  0.13317134
   0.73379150  0.95522208  0.13329795
   0.65815367  0.79400540  0.12638763
   0.89628187  0.95581741  0.13326050
   0.89775664  0.62730920  0.13330353
   0.73946523  0.63296627  0.12611811
   0.97949564  0.78949680  0.13326761
   0.81453092  0.79053880  0.13331904
   0.56549502  0.95732823  0.13309406
   0.23500092  0.95583830  0.13323537
   0.15168797  0.78947602  0.13326416
   0.39750008  0.95513152  0.13322842
   0.39555912  0.63026016  0.13057711
   0.23346214  0.62749989  0.13314563
   0.47609379  0.79181718  0.13008231
   0.31661527  0.79047210  0.13325121
   0.06561229  0.95765628  0.13334787
   0.56755599  0.73793358  0.22906937
   0.65099187  0.56871136  0.22551127
   0.48704946  0.57184721  0.21669228
slab_Cel1-OPT                           
           1
    14.420095    0.000000    0.000000
     0.000000   12.481275    0.000000
     0.000000    0.000000   15.000000
   C    N    Au   Ag   Pd
    24    32     1     1     1
Direct configuration=     5
   0.06556723  0.40387651  0.13334760
   0.98095965  0.23452165  0.13334932
   0.22535247  0.39748897  0.13331424
   0.81937166  0.57609500  0.13224714
   0.14999635  0.23459674  0.13335254
   0.90584859  0.39744253  0.13334939
   0.56552001  0.39906479  0.13217700
   0.48012314  0.23420457  0.13339471
   0.72875316  0.39526197  0.13251975
   0.31231026  0.57504754  0.13300790
   0.65055856  0.23398265  0.13337141
   0.40181025  0.39566513  0.13287465
   0.81582592  0.90455561  0.13342613
   0.73595938  0.73806272  0.13074797
   0.97616645  0.89810283  0.13333313
   0.06552697  0.07740099  0.13335436
   0.90080406  0.73450175  0.13340763
   0.65622999  0.90257547  0.13231280
   0.31539537  0.90452679  0.13341247
   0.23039089  0.73422927  0.13341199
   0.47549675  0.90218161  0.13254589
   0.56524535  0.07734675  0.13336455
   0.39675168  0.73730924  0.13204014
   0.15492913  0.89798749  0.13339563
   0.98384457  0.45559663  0.13332750
   0.90126666  0.29060626  0.13332520
   0.14706732  0.45558742  0.13333323
   0.14794175  0.12743411  0.13331949
   0.98285548  0.12743176  0.13331596
   0.22960284  0.29060014  0.13333107
   0.06545473  0.29118172  0.13333924
   0.81557404  0.45759369  0.13304954
   0.48369442  0.45111057  0.13023740
   0.40156469  0.29037278  0.13322779
   0.64713139  0.45027045  0.12913250
   0.64817371  0.12797951  0.13328980
   0.48288218  0.12752899  0.13328969
   0.72963938  0.29031420  0.13324039
   0.56540227  0.29117268  0.13306114
   0.31531880  0.45759804  0.13298681
   0.73442111  0.95622638  0.13348485
   0.65756712  0.79502783  0.12481466
   0.89682022  0.95542529  0.13321788
   0.89873917  0.62741056  0.13348935
   0.73990408  0.63120711  0.12456713
   0.97938245  0.79011196  0.13323786
   0.81643215  0.79175153  0.13359850
   0.56542566  0.95849905  0.13293555
   0.23467076  0.95548625  0.13321123
   0.15170358  0.79034533  0.13323176
   0.39720491  0.95566220  0.13325474
   0.39466612  0.62942105  0.12982148
   0.23315049  0.62758578  0.13317699
   0.47612662  0.79319529  0.12904335
   0.31563155  0.79119696  0.13330082
   0.06557657  0.95766093  0.13337353
   0.56693332  0.74015171  0.23355219
   0.65240965  0.56710270  0.22973165
   0.48483055  0.57031768  0.21897141
slab_Cel1-OPT                           
           1
    14.376397    0.000000    0.000000
     0.000000   12.446624    0.000000
     0.000000    0.000000   15.000000
   C    N    Au   Ag   Pd
    24    32     1     1     1
Direct configuration=     6
   0.06548461  0.40387517  0.13335568
   0.98095335  0.23475872  0.13335675
   0.22473570  0.39722213  0.13328723
   0.81975035  0.57726424  0.13149274
   0.15000472  0.23473263  0.13336270
   0.90656827  0.39700875  0.13334950
   0.56525082  0.39659888  0.13142313
   0.47996784  0.23534163  0.13340024
   0.72793319  0.39503520  0.13202527
   0.31216055  0.57571720  0.13277386
   0.65041878  0.23474941  0.13333634
   0.40231236  0.39540852  0.13262315
   0.81522469  0.90406780  0.13346446
   0.73810745  0.74053933  0.12925682
   0.97555012  0.89778907  0.13330437
   0.06546270  0.07800124  0.13336570
   0.90029922  0.73437775  0.13343003
   0.65733788  0.90209298  0.13163068
   0.31571949  0.90399082  0.13339828
   0.23095099  0.73390502  0.13342505
   0.47477221  0.90165562  0.13209625
   0.56494209  0.07822071  0.13334344
   0.39515384  0.73880487  0.13123842
   0.15540236  0.89734683  0.13339232
   0.98379283  0.45490827  0.13332803
   0.90179585  0.29092838  0.13332622
   0.14720099  0.45489841  0.13333955
   0.14737326  0.12762925  0.13331727
   0.98352433  0.12747961  0.13330820
   0.22905788  0.29088203  0.13333596
   0.06552387  0.29111308  0.13334705
   0.81634705  0.45707970  0.13291556
   0.48234078  0.45022769  0.12938305
   0.40154590  0.28951236  0.13326839
   0.64888679  0.44954479  0.12794478
   0.64757438  0.12776242  0.13329672
   0.48381151  0.12680690  0.13327935
   0.72988794  0.28934725  0.13326774
   0.56548557  0.28914046  0.13298464
   0.31433611  0.45696537  0.13275231
   0.73522308  0.95750536  0.13372234
   0.65682000  0.79632990  0.12281585
   0.89750594  0.95492591  0.13316371
   0.89999068  0.62753966  0.13372548
   0.74046308  0.62896681  0.12259626
   0.97923827  0.79089537  0.13320006
   0.81885385  0.79329594  0.13395361
   0.56533732  0.95999010  0.13273413
   0.23425022  0.95503792  0.13318056
   0.15172347  0.79145240  0.13319058
   0.39682894  0.95633803  0.13328818
   0.39352865  0.62835243  0.12886127
   0.23275352  0.62769515  0.13321683
   0.47616844  0.79495032  0.12772310
   0.31437853  0.79212008  0.13336386
   0.06553107  0.95766686  0.13340613
   0.56614018  0.74297650  0.23924865
   0.65421556  0.56505406  0.23509461
   0.48200419  0.56836981  0.22186756
slab_Cel1-OPT                           
           1
    14.333850    0.000000    0.000000
     0.000000   12.402385    0.000000
     0.000000    0.000000   15.000000
   C    N    Au   Ag   Pd
    24    32     1     1     1
Direct configuration=     7
   0.06559149  0.40353076  0.13337936
   0.98136432  0.23477402  0.13336496
   0.22474583  0.39724082  0.13320178
   0.82036027  0.57705841  0.13043494
   0.14968931  0.23481978  0.13337903
   0.90653387  0.39700109  0.13333040
   0.56536363  0.39645748  0.13036253
   0.48024060  0.23418873  0.13336785
   0.72811398  0.39483002  0.13125088
   0.31194164  0.57563564  0.13241258
   0.65031838  0.23374292  0.13324897
   0.40178719  0.39503410  0.13233899
   0.81662452  0.90522333  0.13362009
   0.73799786  0.74015783  0.12687718
   0.97551050  0.89787269  0.13324797
   0.06549066  0.07779299  0.13337797
   0.90174186  0.73502943  0.13357253
   0.65747679  0.90300124  0.13068011
   0.31494003  0.90440797  0.13335219
   0.23032193  0.73435412  0.13342846
   0.47455586  0.90204582  0.13135142
   0.56481297  0.07875384  0.13325369
   0.39496717  0.73874246  0.13002632
   0.15553411  0.89726910  0.13332768
   0.98430406  0.45474607  0.13332732
   0.90222112  0.29042102  0.13333134
   0.14661974  0.45478366  0.13335707
   0.14744613  0.12796816  0.13331619
   0.98345269  0.12794076  0.13329961
   0.22872999  0.29042896  0.13334683
   0.06545414  0.29118475  0.13336048
   0.81747287  0.45657080  0.13269495
   0.48306366  0.44996664  0.12824045
   0.40092530  0.28845844  0.13351615
   0.64832570  0.44949752  0.12686704
   0.64776038  0.12809503  0.13336013
   0.48361603  0.12714569  0.13328286
   0.73046052  0.28791154  0.13342708
   0.56538383  0.28779674  0.13294307
   0.31323771  0.45614317  0.13222570
   0.73617149  0.95888671  0.13413160
   0.65665095  0.79480706  0.12116987
   0.89742870  0.95504105  0.13309344
   0.90177336  0.62788577  0.13414117
   0.73887357  0.62986630  0.12115145
   0.97930365  0.79077153  0.13314747
   0.81977857  0.79407922  0.13443686
   0.56562345  0.96083122  0.13241725
   0.23433204  0.95504185  0.13319735
   0.15176408  0.79136958  0.13315293
   0.39596329  0.95748612  0.13346374
   0.39375803  0.62917445  0.12754473
   0.23149613  0.62798990  0.13349796
   0.47607338  0.79456914  0.12638844
   0.31346195  0.79278810  0.13350906
   0.06545939  0.95782054  0.13344463
   0.56593465  0.74565208  0.24560217
   0.65642118  0.56364089  0.24074954
   0.47913709  0.56646803  0.22555619
slab_Cel1-OPT                           
           1
    14.296766    0.000000    0.000000
     0.000000   12.363827    0.000000
     0.000000    0.000000   15.000000
   C    N    Au   Ag   Pd
    24    32     1     1     1
Direct configuration=     8
   0.06568492  0.40322950  0.13340000
   0.98172359  0.23478741  0.13337213
   0.22475468  0.39725718  0.13312729
   0.82089344  0.57687836  0.12951298
   0.14941359  0.23489601  0.13339326
   0.90650380  0.39699438  0.13331375
   0.56546224  0.39633380  0.12943812
   0.48047904  0.23318029  0.13333963
   0.72827203  0.39465054  0.13057593
   0.31175027  0.57556431  0.13209769
   0.65023062  0.23286254  0.13317281
   0.40132809  0.39470659  0.13209132
   0.81784823  0.90623407  0.13375573
   0.73790206  0.73982413  0.12480312
   0.97547587  0.89794583  0.13319882
   0.06551510  0.07761084  0.13338866
   0.90300298  0.73559946  0.13369673
   0.65759823  0.90379570  0.12985160
   0.31425866  0.90477285  0.13331203
   0.22977201  0.73474695  0.13343144
   0.47436672  0.90238713  0.13070224
   0.56470010  0.07922017  0.13317547
   0.39480399  0.73868786  0.12896986
   0.15564929  0.89720112  0.13327134
   0.98475097  0.45460420  0.13332670
   0.90259287  0.28997723  0.13333581
   0.14611163  0.45468328  0.13337234
   0.14750984  0.12826461  0.13331526
   0.98339006  0.12834412  0.13329212
   0.22844336  0.29003266  0.13335632
   0.06539319  0.29124744  0.13337218
   0.81845703  0.45612568  0.13250267
   0.48369557  0.44973830  0.12724457
   0.40038279  0.28753658  0.13373209
   0.64783521  0.44945617  0.12592768
   0.64792297  0.12838596  0.13341540
   0.48344515  0.12744204  0.13328592
   0.73096106  0.28665573  0.13356595
   0.56529488  0.28662139  0.13290684
   0.31227751  0.45542399  0.13176671
   0.73700056  0.96009497  0.13448830
   0.65650318  0.79347504  0.11973526
   0.89736118  0.95514176  0.13303220
   0.90333173  0.62818852  0.13450347
   0.73748406  0.63065308  0.11989217
   0.97936081  0.79066320  0.13310164
   0.82058693  0.79476436  0.13485806
   0.56587358  0.96156695  0.13214106
   0.23440356  0.95504529  0.13321199
   0.15179959  0.79129714  0.13312011
   0.39520657  0.95849034  0.13361675
   0.39395855  0.62989347  0.12639725
   0.23039694  0.62824771  0.13374298
   0.47599028  0.79423572  0.12522516
   0.31266070  0.79337242  0.13363562
   0.06539672  0.95795496  0.13347819
   0.56575499  0.74799241  0.25113983
   0.65834928  0.56240480  0.24567831
   0.47663074  0.56480454  0.22877115
slab_Cel1-OPT                           
           1
    14.282540    0.000000    0.000000
     0.000000   12.355577    0.000000
     0.000000    0.000000   15.000000
   C    N    Au   Ag   Pd
    24    32     1     1     1
Direct configuration=     9
   0.06561069  0.40263124  0.13344204
   0.98221462  0.23502126  0.13338180
   0.22451720  0.39710324  0.13295103
   0.82101765  0.57756845  0.12843317
   0.14893936  0.23510944  0.13342613
   0.90673120  0.39688807  0.13325483
   0.56568373  0.39683600  0.12832726
   0.48004133  0.23263910  0.13333472
   0.72873466  0.39349467  0.12971675
   0.31103695  0.57597953  0.13160886
   0.65061622  0.23257248  0.13311042
   0.40116877  0.39385484  0.13176548
   0.81784200  0.90663788  0.13408939
   0.73705130  0.73900975  0.12252657
   0.97664336  0.89870846  0.13314733
   0.06552525  0.07717453  0.13339443
   0.90318812  0.73583175  0.13401735
   0.65793231  0.90371401  0.12878096
   0.31399916  0.90553454  0.13333330
   0.22901294  0.73523895  0.13351264
   0.47397181  0.90303877  0.12980223
   0.56529725  0.07854184  0.13304921
   0.39542678  0.73872616  0.12762603
   0.15504477  0.89812967  0.13318533
   0.98469436  0.45529778  0.13331694
   0.90210791  0.28949273  0.13333835
   0.14622913  0.45554302  0.13338302
   0.14799950  0.12745418  0.13332120
   0.98293165  0.12756268  0.13328820
   0.22892818  0.28954433  0.13335796
   0.06546042  0.29107866  0.13339686
   0.81848510  0.45651540  0.13205074
   0.48396906  0.45054465  0.12612797
   0.39958862  0.28689839  0.13418160
   0.64734453  0.45024725  0.12519440
   0.64836567  0.12658707  0.13349810
   0.48227083  0.12650617  0.13326578
   0.73181843  0.28669940  0.13374755
   0.56529227  0.28770065  0.13276428
   0.31232102  0.45555468  0.13098402
   0.73675938  0.96076390  0.13485345
   0.65607597  0.79345530  0.11852632
   0.89928128  0.95747050  0.13295547
   0.90351868  0.62714081  0.13479551
   0.73729778  0.63049814  0.11901814
   0.98200511  0.79164259  0.13305378
   0.81927690  0.79369562  0.13501417
   0.56614016  0.96126269  0.13165150
   0.23321691  0.95657100  0.13324867
   0.15048375  0.79089661  0.13305594
   0.39522205  0.95942201  0.13383624
   0.39461941  0.62978133  0.12499899
   0.22968981  0.62742531  0.13423381
   0.47628232  0.79333636  0.12410908
   0.31322930  0.79271657  0.13369299
   0.06530354  0.95796980  0.13347654
   0.56586597  0.74945540  0.25737348
   0.65995768  0.56192004  0.25086671
   0.47462349  0.56355742  0.23268497
slab_Cel1-OPT                           
           1
    14.277650    0.000000    0.000000
     0.000000   12.352742    0.000000
     0.000000    0.000000   15.000000
   C    N    Au   Ag   Pd
    24    32     1     1     1
Direct configuration=    10
   0.06558514  0.40242546  0.13345650
   0.98238357  0.23510170  0.13338512
   0.22443549  0.39705030  0.13289044
   0.82106038  0.57780582  0.12806200
   0.14877619  0.23518285  0.13343743
   0.90680945  0.39685150  0.13323458
   0.56575993  0.39700874  0.12794541
   0.47989072  0.23245295  0.13333304
   0.72889385  0.39309709  0.12942142
   0.31079152  0.57612235  0.13144083
   0.65074890  0.23247270  0.13308897
   0.40111395  0.39356187  0.13165348
   0.81783986  0.90677677  0.13420407
   0.73675857  0.73872963  0.12174404
   0.97704507  0.89897077  0.13312963
   0.06552875  0.07702446  0.13339642
   0.90325182  0.73591165  0.13412756
   0.65804726  0.90368592  0.12841294
   0.31390987  0.90579654  0.13334061
   0.22875176  0.73540818  0.13354056
   0.47383593  0.90326291  0.12949287
   0.56550272  0.07830852  0.13300581
   0.39564106  0.73873934  0.12716410
   0.15483678  0.89844906  0.13315577
   0.98467488  0.45553635  0.13331358
   0.90194105  0.28932608  0.13333922
   0.14626956  0.45583874  0.13338669
   0.14816798  0.12717542  0.13332324
   0.98277391  0.12729389  0.13328685
   0.22909500  0.28937636  0.13335853
   0.06548356  0.29102061  0.13340535
   0.81849475  0.45664945  0.13189540
   0.48406316  0.45082200  0.12574415
   0.39931537  0.28667888  0.13433612
   0.64717570  0.45051935  0.12494234
   0.64851800  0.12596831  0.13352653
   0.48186677  0.12618426  0.13325886
   0.73211343  0.28671442  0.13380997
   0.56529138  0.28807187  0.13271528
   0.31233599  0.45559963  0.13071499
   0.73667639  0.96099398  0.13497897
   0.65592898  0.79344851  0.11811076
   0.89994195  0.95827150  0.13292909
   0.90358301  0.62678043  0.13489590
   0.73723369  0.63044484  0.11871771
   0.98291495  0.79197946  0.13303733
   0.81882615  0.79332801  0.13506782
   0.56623188  0.96115804  0.13148322
   0.23280861  0.95709580  0.13326128
   0.15003101  0.79075885  0.13303388
   0.39522738  0.95974247  0.13391169
   0.39484679  0.62974276  0.12451836
   0.22944650  0.62714243  0.13440252
   0.47638281  0.79302701  0.12372544
   0.31342494  0.79249098  0.13371271
   0.06527147  0.95797491  0.13347597
   0.56590416  0.74995862  0.25951621
   0.66051109  0.56175330  0.25265015
   0.47393285  0.56312846  0.23403028
slab_Cel1-OPT                           
           1
    14.237691    0.000000    0.000000
     0.000000   12.324078    0.000000
     0.000000    0.000000   15.000000
   C    N    Au   Ag   Pd
    24    32     1     1     1
Direct configuration=    11
   0.06569962  0.40327288  0.13350722
   0.98182323  0.23421381  0.13340308
   0.22464598  0.39709771  0.13264109
   0.82019558  0.57823828  0.12729871
   0.14941512  0.23429828  0.13347936
   0.90670497  0.39697596  0.13311441
   0.56557013  0.39844699  0.12707176
   0.47914593  0.23250247  0.13340509
   0.72852369  0.39399663  0.12867163
   0.31116368  0.57677879  0.13080399
   0.65124972  0.23200637  0.13310408
   0.40184959  0.39388332  0.13122730
   0.81843470  0.90739545  0.13457507
   0.73530352  0.73817903  0.12028739
   0.97878038  0.90033318  0.13311202
   0.06552923  0.07669546  0.13339142
   0.90409685  0.73623893  0.13448199
   0.65794206  0.90234831  0.12752224
   0.31361955  0.90646586  0.13346447
   0.22842241  0.73484680  0.13371156
   0.47405348  0.90221857  0.12861124
   0.56498741  0.07680790  0.13285977
   0.39649304  0.73796502  0.12605731
   0.15348403  0.89889967  0.13308629
   0.98467616  0.45581564  0.13329466
   0.90168350  0.28918367  0.13333354
   0.14615706  0.45614778  0.13336386
   0.14841212  0.12679518  0.13334033
   0.98258091  0.12705876  0.13329023
   0.22922243  0.28907125  0.13332764
   0.06553459  0.29088540  0.13344564
   0.81777539  0.45702927  0.13125565
   0.48304178  0.45176109  0.12501212
   0.39895045  0.28630727  0.13486465
   0.64851514  0.45120758  0.12461627
   0.64928745  0.12561792  0.13360342
   0.48171460  0.12480461  0.13321297
   0.73231618  0.28641403  0.13391096
   0.56562350  0.28842824  0.13241123
   0.31288403  0.45597512  0.12992379
   0.73657658  0.96053198  0.13517450
   0.65524780  0.79471064  0.11710479
   0.89990405  0.95945240  0.13295674
   0.90305242  0.62700063  0.13496271
   0.73799395  0.62893343  0.11808645
   0.98357566  0.79134696  0.13310903
   0.81824812  0.79277080  0.13480546
   0.56617825  0.96007977  0.13085167
   0.23233586  0.95830716  0.13331947
   0.14890889  0.79124067  0.13296975
   0.39519923  0.95998428  0.13406649
   0.39503262  0.62840602  0.12341032
   0.22903348  0.62715498  0.13496254
   0.47741469  0.79396031  0.12287857
   0.31365200  0.79263652  0.13359437
   0.06572960  0.95831972  0.13340179
   0.56614336  0.75004974  0.26497299
   0.66120740  0.56206189  0.25678926
   0.47296042  0.56263671  0.23736761
slab_Cel1-OPT                           
           1
    14.233401    0.000000    0.000000
     0.000000   12.321001    0.000000
     0.000000    0.000000   15.000000
   C    N    Au   Ag   Pd
    24    32     1     1     1
Direct configuration=    12
   0.06571195  0.40336408  0.13351267
   0.98176290  0.23411826  0.13340501
   0.22466864  0.39710281  0.13261432
   0.82010247  0.57828482  0.12721676
   0.14948391  0.23420309  0.13348386
   0.90669372  0.39698935  0.13310151
   0.56554970  0.39860176  0.12697797
   0.47906575  0.23250780  0.13341282
   0.72848383  0.39409343  0.12859113
   0.31120375  0.57684944  0.13073562
   0.65130364  0.23195619  0.13310570
   0.40192879  0.39391791  0.13118155
   0.81849874  0.90746203  0.13461490
   0.73514686  0.73811978  0.12013100
   0.97896721  0.90047979  0.13311013
   0.06552928  0.07666006  0.13339088
   0.90418783  0.73627415  0.13452004
   0.65793073  0.90220437  0.12742661
   0.31358829  0.90653788  0.13347777
   0.22838695  0.73478639  0.13372992
   0.47407690  0.90210618  0.12851659
   0.56493193  0.07664641  0.13284409
   0.39658476  0.73788169  0.12593848
   0.15333839  0.89894816  0.13307883
   0.98467630  0.45584569  0.13329263
   0.90165577  0.28916834  0.13333293
   0.14614494  0.45618104  0.13336141
   0.14843841  0.12675426  0.13334217
   0.98256013  0.12703345  0.13329060
   0.22923615  0.28903842  0.13332433
   0.06554009  0.29087085  0.13344996
   0.81769794  0.45707014  0.13118696
   0.48293182  0.45186214  0.12493353
   0.39891117  0.28626728  0.13492139
   0.64865935  0.45128164  0.12458126
   0.64937029  0.12558021  0.13361168
   0.48169822  0.12465615  0.13320804
   0.73233801  0.28638171  0.13392181
   0.56565925  0.28846659  0.13237859
   0.31294304  0.45601552  0.12983884
   0.73656584  0.96048227  0.13519550
   0.65517447  0.79484646  0.11699679
   0.89989997  0.95957948  0.13295971
   0.90299529  0.62702433  0.13496989
   0.73807580  0.62877078  0.11801868
   0.98364679  0.79127890  0.13311673
   0.81818589  0.79271084  0.13477729
   0.56617247  0.95996373  0.13078387
   0.23228496  0.95843752  0.13332572
   0.14878808  0.79129252  0.13296286
   0.39519620  0.96001030  0.13408311
   0.39505262  0.62826217  0.12329136
   0.22898901  0.62715633  0.13502267
   0.47752579  0.79406075  0.12278764
   0.31367645  0.79265218  0.13358166
   0.06577893  0.95835683  0.13339383
   0.56616912  0.75005954  0.26555885
   0.66128237  0.56209510  0.25723364
   0.47285573  0.56258379  0.23772592
slab_Cel1-OPT                           
           1