  57  57   0   0
  0.4599006E+02  0.1420606E-08  0.1230194E-08  0.1500000E-08  0.1000000E-15
  1.000000000000000E-004
  CAR 
 slab_Cel1-OPT                           
      4.05486805    -27.86841653  301     -2.23337838      1.00000000
    -27.868  0.0000E+00  0.0000E+00
    -27.762  0.0000E+00  0.0000E+00
    -27.656  0.0000E+00  0.0000E+00
    -27.549  0.0000E+00  0.0000E+00
    -27.443  0.0000E+00  0.0000E+00
    -27.336  0.0000E+00  0.0000E+00
    -27.230  0.0000E+00  0.0000E+00
    -27.124  0.0000E+00  0.0000E+00
    -27.017  0.0000E+00  0.0000E+00
    -26.911  0.1045E-13  0.1112E-14
    -26.804  0.1749E-09  0.1861E-10
    -26.698  0.3352E-06  0.3568E-07
    -26.591  0.7695E-04  0.8224E-05
    -26.485  0.2320E-02  0.2551E-03
    -26.379  0.1148E-01  0.1477E-02
    -26.272  0.1551E-01  0.3127E-02
    -26.166  0.9779E-02  0.4168E-02
    -26.059  0.1113E-01  0.5353E-02
    -25.953  0.1370E-01  0.6810E-02
    -25.847  0.9445E-02  0.7815E-02
    -25.740  0.1688E-02  0.7995E-02
    -25.634  0.4630E-04  0.8000E-02
    -25.527  0.1629E-06  0.8000E-02
    -25.421  0.3822E-06  0.8000E-02
    -25.315  0.6865E-04  0.8007E-02
    -25.208  0.1869E-02  0.8206E-02
    -25.102  0.1031E-01  0.9303E-02
    -24.995  0.1701E-01  0.1111E-01
    -24.889  0.1285E-01  0.1248E-01
    -24.782  0.9933E-02  0.1354E-01
    -24.676  0.9374E-02  0.1454E-01
    -24.570  0.7349E-02  0.1532E-01
    -24.463  0.1648E-02  0.1549E-01
    -24.357  0.7277E-04  0.1550E-01
    -24.250  0.2252E-03  0.1552E-01
    -24.144  0.3658E-02  0.1591E-01
    -24.038  0.1603E-01  0.1762E-01
    -23.931  0.2745E-01  0.2054E-01
    -23.825  0.2459E-01  0.2316E-01
    -23.718  0.1087E-01  0.2431E-01
    -23.612  0.1704E-02  0.2449E-01
    -23.506  0.1000E-03  0.2450E-01
    -23.399  0.1355E-02  0.2465E-01
    -23.293  0.7137E-02  0.2541E-01
    -23.186  0.9328E-02  0.2640E-01
    -23.080  0.7997E-02  0.2725E-01
    -22.974  0.9688E-02  0.2828E-01
    -22.867  0.1366E-01  0.2974E-01
    -22.761  0.1080E-01  0.3089E-01
    -22.654  0.8258E-02  0.3176E-01
    -22.548  0.2120E-02  0.3199E-01
    -22.441  0.9065E-04  0.3200E-01
    -22.335  0.2870E-05  0.3200E-01
    -22.229  0.3040E-03  0.3203E-01
    -22.122  0.6030E-02  0.3267E-01
    -22.016  0.2578E-01  0.3542E-01
    -21.909  0.3741E-01  0.3940E-01
    -21.803  0.3094E-01  0.4269E-01
    -21.697  0.2984E-01  0.4587E-01
    -21.590  0.1710E-01  0.4768E-01
    -21.484  0.2869E-02  0.4799E-01
    -21.377  0.2175E-03  0.4801E-01
    -21.271  0.2768E-02  0.4831E-01
    -21.165  0.1170E-01  0.4955E-01
    -21.058  0.1781E-01  0.5145E-01
    -20.952  0.2077E-01  0.5366E-01
    -20.845  0.1593E-01  0.5535E-01
    -20.739  0.5755E-02  0.5597E-01
    -20.632  0.4862E-02  0.5648E-01
    -20.526  0.1646E-01  0.5823E-01
    -20.420  0.1939E-01  0.6030E-01
    -20.313  0.1352E-01  0.6174E-01
    -20.207  0.1100E-01  0.6291E-01
    -20.100  0.8641E-02  0.6383E-01
    -19.994  0.1573E-02  0.6400E-01
    -19.888  0.4581E-04  0.6400E-01
    -19.781  0.1861E-06  0.6400E-01
    -19.675  0.9509E-10  0.6400E-01
    -19.568  0.5683E-14  0.6400E-01
    -19.462  0.0000E+00  0.6400E-01
    -19.356  0.0000E+00  0.6400E-01
    -19.249  0.0000E+00  0.6400E-01
    -19.143  0.0000E+00  0.6400E-01
    -19.036  0.0000E+00  0.6400E-01
    -18.930  0.0000E+00  0.6400E-01
    -18.823  0.0000E+00  0.6400E-01
    -18.717  0.0000E+00  0.6400E-01
    -18.611  0.0000E+00  0.6400E-01
    -18.504  0.0000E+00  0.6400E-01
    -18.398  0.0000E+00  0.6400E-01
    -18.291  0.0000E+00  0.6400E-01
    -18.185  0.0000E+00  0.6400E-01
    -18.079  0.4246E-15  0.6400E-01
    -17.972  0.1180E-10  0.6400E-01
    -17.866  0.3747E-07  0.6400E-01
    -17.759  0.1444E-04  0.6400E-01
    -17.653  0.7534E-03  0.6408E-01
    -17.547  0.6652E-02  0.6479E-01
    -17.440  0.1589E-01  0.6648E-01
    -17.334  0.1725E-01  0.6832E-01
    -17.227  0.1572E-01  0.6999E-01
    -17.121  0.1967E-01  0.7208E-01
    -17.014  0.2319E-01  0.7455E-01
    -16.908  0.1894E-01  0.7657E-01
    -16.802  0.1127E-01  0.7776E-01
    -16.695  0.9995E-02  0.7883E-01
    -16.589  0.5333E-02  0.7940E-01
    -16.482  0.1802E-02  0.7959E-01
    -16.376  0.2591E-02  0.7986E-01
    -16.270  0.1202E-02  0.7999E-01
    -16.163  0.8159E-04  0.8000E-01
    -16.057  0.1146E-05  0.8000E-01
    -15.950  0.7495E-04  0.8001E-01
    -15.844  0.2039E-02  0.8023E-01
    -15.738  0.1113E-01  0.8141E-01
    -15.631  0.1803E-01  0.8333E-01
    -15.525  0.2011E-01  0.8547E-01
    -15.418  0.1621E-01  0.8719E-01
    -15.312  0.5851E-02  0.8782E-01
    -15.206  0.1925E-02  0.8802E-01
    -15.099  0.2497E-02  0.8829E-01
    -14.993  0.4072E-02  0.8872E-01
    -14.886  0.2334E-02  0.8897E-01
    -14.780  0.8390E-03  0.8906E-01
    -14.673  0.4375E-02  0.8952E-01
    -14.567  0.8136E-02  0.9039E-01
    -14.461  0.7411E-02  0.9118E-01
    -14.354  0.9920E-02  0.9223E-01
    -14.248  0.1570E-01  0.9390E-01
    -14.141  0.2153E-01  0.9619E-01
    -14.035  0.2108E-01  0.9844E-01
    -13.929  0.2270E-01  0.1009E+00
    -13.822  0.2336E-01  0.1033E+00
    -13.716  0.2556E-01  0.1061E+00
    -13.609  0.2182E-01  0.1084E+00
    -13.503  0.2017E-01  0.1105E+00
    -13.397  0.1955E-01  0.1126E+00
    -13.290  0.1543E-01  0.1142E+00
    -13.184  0.8931E-02  0.1152E+00
    -13.077  0.7289E-02  0.1160E+00
    -12.971  0.9267E-02  0.1170E+00
    -12.864  0.8884E-02  0.1179E+00
    -12.758  0.4781E-02  0.1184E+00
    -12.652  0.1705E-02  0.1186E+00
    -12.545  0.4464E-02  0.1191E+00
    -12.439  0.7934E-02  0.1199E+00
    -12.332  0.8702E-02  0.1208E+00
    -12.226  0.9467E-02  0.1218E+00
    -12.120  0.1589E-01  0.1235E+00
    -12.013  0.1856E-01  0.1255E+00
    -11.907  0.1756E-01  0.1274E+00
    -11.800  0.1643E-01  0.1291E+00
    -11.694  0.1679E-01  0.1309E+00
    -11.588  0.1708E-01  0.1327E+00
    -11.481  0.2025E-01  0.1349E+00
    -11.375  0.2064E-01  0.1371E+00
    -11.268  0.1626E-01  0.1388E+00
    -11.162  0.1230E-01  0.1401E+00
    -11.055  0.9217E-02  0.1411E+00
    -10.949  0.8406E-02  0.1420E+00
    -10.843  0.1005E-01  0.1431E+00
    -10.736  0.1460E-01  0.1446E+00
    -10.630  0.1736E-01  0.1465E+00
    -10.523  0.1637E-01  0.1482E+00
    -10.417  0.1337E-01  0.1496E+00
    -10.311  0.1469E-01  0.1512E+00
    -10.204  0.1450E-01  0.1527E+00
    -10.098  0.9885E-02  0.1538E+00
     -9.991  0.4109E-02  0.1542E+00
     -9.885  0.9125E-02  0.1552E+00
     -9.779  0.1782E-01  0.1571E+00
     -9.672  0.1729E-01  0.1589E+00
     -9.566  0.1193E-01  0.1602E+00
     -9.459  0.1063E-01  0.1613E+00
     -9.353  0.1605E-01  0.1630E+00
     -9.247  0.2380E-01  0.1656E+00
     -9.140  0.2370E-01  0.1681E+00
     -9.034  0.1469E-01  0.1697E+00
     -8.927  0.3086E-02  0.1700E+00
     -8.821  0.1173E-02  0.1701E+00
     -8.714  0.5110E-02  0.1707E+00
     -8.608  0.7383E-02  0.1714E+00
     -8.502  0.7399E-02  0.1722E+00
     -8.395  0.1145E-01  0.1735E+00
     -8.289  0.9261E-02  0.1744E+00
     -8.182  0.1205E-01  0.1757E+00
     -8.076  0.1865E-01  0.1777E+00
     -7.970  0.1685E-01  0.1795E+00
     -7.863  0.1393E-01  0.1810E+00
     -7.757  0.1627E-01  0.1827E+00
     -7.650  0.2184E-01  0.1850E+00
     -7.544  0.2196E-01  0.1874E+00
     -7.438  0.2965E-01  0.1905E+00
     -7.331  0.3233E-01  0.1940E+00
     -7.225  0.2537E-01  0.1967E+00
     -7.118  0.2560E-01  0.1994E+00
     -7.012  0.2393E-01  0.2019E+00
     -6.905  0.1733E-01  0.2038E+00
     -6.799  0.2099E-01  0.2060E+00
     -6.693  0.2782E-01  0.2090E+00
     -6.586  0.2221E-01  0.2113E+00
     -6.480  0.1438E-01  0.2129E+00
     -6.373  0.1137E-01  0.2141E+00
     -6.267  0.1079E-01  0.2152E+00
     -6.161  0.1240E-01  0.2165E+00
     -6.054  0.1866E-01  0.2185E+00
     -5.948  0.2267E-01  0.2209E+00
     -5.841  0.1375E-01  0.2224E+00
     -5.735  0.1793E-01  0.2243E+00
     -5.629  0.2559E-01  0.2270E+00
     -5.522  0.2982E-01  0.2302E+00
     -5.416  0.3313E-01  0.2337E+00
     -5.309  0.3552E-01  0.2375E+00
     -5.203  0.3343E-01  0.2411E+00
     -5.096  0.2825E-01  0.2441E+00
     -4.990  0.2318E-01  0.2465E+00
     -4.884  0.1815E-01  0.2485E+00
     -4.777  0.2084E-01  0.2507E+00
     -4.671  0.1910E-01  0.2527E+00
     -4.564  0.1353E-01  0.2542E+00
     -4.458  0.1592E-01  0.2559E+00
     -4.352  0.2188E-01  0.2582E+00
     -4.245  0.2185E-01  0.2605E+00
     -4.139  0.1194E-01  0.2618E+00
     -4.032  0.2981E-02  0.2621E+00
     -3.926  0.6184E-02  0.2628E+00
     -3.820  0.1262E-01  0.2641E+00
     -3.713  0.1357E-01  0.2655E+00
     -3.607  0.4025E-02  0.2660E+00
     -3.500  0.2118E-03  0.2660E+00
     -3.394  0.1577E-05  0.2660E+00
     -3.287  0.1458E-08  0.2660E+00
     -3.181  0.1554E-12  0.2660E+00
     -3.075  0.2087E-17  0.2660E+00
     -2.968  0.0000E+00  0.2660E+00
     -2.862  0.0000E+00  0.2660E+00
     -2.755  0.4746E-14  0.2660E+00
     -2.649  0.8958E-10  0.2660E+00
     -2.543  0.1924E-06  0.2660E+00
     -2.436  0.4926E-04  0.2660E+00
     -2.330  0.1652E-02  0.2662E+00
     -2.223  0.8821E-02  0.2671E+00
     -2.117  0.1178E-01  0.2684E+00
     -2.011  0.9292E-02  0.2694E+00
     -1.904  0.8140E-02  0.2702E+00
     -1.798  0.9025E-02  0.2712E+00
     -1.691  0.7831E-02  0.2720E+00
     -1.585  0.7783E-02  0.2728E+00
     -1.479  0.7346E-02  0.2736E+00
     -1.372  0.1750E-01  0.2755E+00
     -1.266  0.2541E-01  0.2782E+00
     -1.159  0.2082E-01  0.2804E+00
     -1.053  0.1270E-01  0.2818E+00
     -0.946  0.9731E-02  0.2828E+00
     -0.840  0.8366E-02  0.2837E+00
     -0.734  0.8431E-02  0.2846E+00
     -0.627  0.1251E-01  0.2859E+00
     -0.521  0.1314E-01  0.2873E+00
     -0.414  0.1062E-01  0.2884E+00
     -0.308  0.9129E-02  0.2894E+00
     -0.202  0.4806E-02  0.2899E+00
     -0.095  0.1236E-02  0.2901E+00
      0.011  0.6029E-02  0.2907E+00
      0.118  0.9625E-02  0.2917E+00
      0.224  0.2469E-02  0.2920E+00
      0.330  0.1166E-03  0.2920E+00
      0.437  0.1032E-02  0.2921E+00
      0.543  0.7088E-02  0.2929E+00
      0.650  0.8677E-02  0.2938E+00
      0.756  0.2883E-02  0.2941E+00
      0.863  0.5346E-02  0.2947E+00
      0.969  0.8663E-02  0.2956E+00
      1.075  0.8163E-02  0.2965E+00
      1.182  0.1672E-01  0.2982E+00
      1.288  0.2208E-01  0.3006E+00
      1.395  0.2107E-01  0.3028E+00
      1.501  0.2264E-01  0.3052E+00
      1.607  0.1916E-01  0.3073E+00
      1.714  0.1744E-01  0.3091E+00
      1.820  0.2169E-01  0.3114E+00
      1.927  0.2176E-01  0.3138E+00
      2.033  0.1598E-01  0.3155E+00
      2.139  0.1730E-01  0.3173E+00
      2.246  0.2040E-01  0.3195E+00
      2.352  0.2344E-01  0.3220E+00
      2.459  0.2096E-01  0.3242E+00
      2.565  0.2192E-01  0.3265E+00
      2.672  0.1205E-01  0.3278E+00
      2.778  0.1784E-02  0.3280E+00
      2.884  0.5219E-04  0.3280E+00
      2.991  0.2268E-06  0.3280E+00
      3.097  0.1240E-09  0.3280E+00
      3.204  0.7861E-14  0.3280E+00
      3.310  0.0000E+00  0.3280E+00
      3.416  0.0000E+00  0.3280E+00
      3.523  0.0000E+00  0.3280E+00
      3.629  0.0000E+00  0.3280E+00
      3.736  0.0000E+00  0.3280E+00
      3.842  0.0000E+00  0.3280E+00
      3.948  0.0000E+00  0.3280E+00
      4.055  0.0000E+00  0.3280E+00
