       N       E                     dE             d eps       ncg     rms          rms(c)
DAV:   1     0.244919212814E+04    0.24492E+04   -0.93468E+04  1536   0.101E+03
DAV:   2     0.136174253286E+02   -0.24356E+04   -0.23210E+04  1912   0.281E+02
DAV:   3    -0.489951940160E+03   -0.50357E+03   -0.49807E+03  1600   0.138E+02
DAV:   4    -0.507661997707E+03   -0.17710E+02   -0.17115E+02  1528   0.304E+01
DAV:   5    -0.508327500870E+03   -0.66550E+00   -0.65680E+00  1792   0.491E+00    0.420E+01
DAV:   6    -0.476591979069E+03    0.31736E+02   -0.94889E+01  1520   0.239E+01    0.231E+01
DAV:   7    -0.473108355328E+03    0.34836E+01   -0.12122E+01  1536   0.850E+00    0.129E+01
DAV:   8    -0.471918728317E+03    0.11896E+01   -0.38089E+00  1488   0.467E+00    0.319E+00
DAV:   9    -0.471793236964E+03    0.12549E+00   -0.39856E-01  1648   0.185E+00    0.119E+00
DAV:  10    -0.471769985743E+03    0.23251E-01   -0.11255E-01  1624   0.952E-01    0.657E-01
DAV:  11    -0.471757235406E+03    0.12750E-01   -0.25441E-02  1504   0.474E-01    0.312E-01
DAV:  12    -0.471751433307E+03    0.58021E-02   -0.11977E-02  1520   0.282E-01    0.197E-01
DAV:  13    -0.471750527709E+03    0.90560E-03   -0.51692E-03  1472   0.175E-01    0.108E-01
DAV:  14    -0.471752986582E+03   -0.24589E-02   -0.86137E-03  1372   0.169E-01    0.850E-02
DAV:  15    -0.471755943482E+03   -0.29569E-02   -0.56633E-04  1544   0.582E-02    0.564E-02
DAV:  16    -0.471760021933E+03   -0.40785E-02   -0.24816E-03  1440   0.108E-01    0.505E-02
DAV:  17    -0.471761319028E+03   -0.12971E-02   -0.26461E-04  1576   0.368E-02    0.419E-02
DAV:  18    -0.471763419060E+03   -0.21000E-02   -0.17580E-04  1368   0.314E-02    0.233E-02
DAV:  19    -0.471766623900E+03   -0.32048E-02   -0.33472E-04  1472   0.357E-02    0.203E-02
DAV:  20    -0.471768312390E+03   -0.16885E-02   -0.16448E-04  1360   0.258E-02    0.972E-03
DAV:  21    -0.471769393424E+03   -0.10810E-02   -0.74090E-05  1240   0.146E-02    0.717E-03
DAV:  22    -0.471769615917E+03   -0.22249E-03   -0.73252E-06  1016   0.634E-03    0.574E-03
DAV:  23    -0.471769765190E+03   -0.14927E-03   -0.12318E-05   912   0.785E-03    0.201E-03
DAV:  24    -0.471769790110E+03   -0.24920E-04   -0.39947E-06   924   0.420E-03    0.190E-03
DAV:  25    -0.471769795855E+03   -0.57450E-05   -0.26921E-06   864   0.326E-03
   1 F= -.47176980E+03 E0= -.47173284E+03  d E =-.471770E+03
       N       E                     dE             d eps       ncg     rms          rms(c)
DAV:   1    -0.471820068232E+03   -0.50278E-01   -0.20566E+00  1328   0.377E+00    0.666E-01
DAV:   2    -0.471820341526E+03   -0.27329E-03   -0.47260E-02  1456   0.554E-01    0.436E-01
DAV:   3    -0.471819496103E+03    0.84542E-03   -0.27757E-03  1416   0.161E-01    0.221E-01
DAV:   4    -0.471819298780E+03    0.19732E-03   -0.10816E-03  1468   0.954E-02    0.809E-02
DAV:   5    -0.471819282002E+03    0.16779E-04   -0.14983E-04  1420   0.383E-02    0.247E-02
DAV:   6    -0.471819280852E+03    0.11501E-05   -0.32039E-05  1032   0.161E-02
   2 F= -.47181928E+03 E0= -.47178222E+03  d E =-.494850E-01
       N       E                     dE             d eps       ncg     rms          rms(c)
DAV:   1    -0.471849986278E+03   -0.30704E-01   -0.48318E+00  1320   0.578E+00    0.988E-01
DAV:   2    -0.471850607349E+03   -0.62107E-03   -0.10958E-01  1440   0.844E-01    0.647E-01
DAV:   3    -0.471848638504E+03    0.19688E-02   -0.64041E-03  1404   0.243E-01    0.331E-01
DAV:   4    -0.471848147710E+03    0.49079E-03   -0.24717E-03  1448   0.146E-01    0.122E-01
DAV:   5    -0.471848115574E+03    0.32136E-04   -0.36430E-04  1440   0.587E-02    0.379E-02
DAV:   6    -0.471848115797E+03   -0.22340E-06   -0.90063E-05  1472   0.260E-02
   3 F= -.47184812E+03 E0= -.47181089E+03  d E =-.783199E-01
       N       E                     dE             d eps       ncg     rms          rms(c)
DAV:   1    -0.471871960372E+03   -0.23845E-01   -0.23379E+00  1320   0.423E+00    0.515E-01
DAV:   2    -0.471875108278E+03   -0.31479E-02   -0.54497E-02  1492   0.606E-01    0.267E-01
DAV:   3    -0.471874736452E+03    0.37183E-03   -0.30784E-03  1536   0.179E-01    0.175E-01
DAV:   4    -0.471874659989E+03    0.76463E-04   -0.77411E-04  1472   0.789E-02    0.954E-02
DAV:   5    -0.471874646560E+03    0.13428E-04   -0.16540E-04  1512   0.376E-02    0.212E-02
DAV:   6    -0.471874645109E+03    0.14510E-05   -0.61876E-05  1024   0.207E-02
   4 F= -.47187465E+03 E0= -.47183755E+03  d E =-.265293E-01
       N       E                     dE             d eps       ncg     rms          rms(c)
DAV:   1    -0.471878879559E+03   -0.42330E-02   -0.11965E+00  1312   0.303E+00    0.373E-01
DAV:   2    -0.471880455805E+03   -0.15762E-02   -0.28100E-02  1532   0.436E-01    0.189E-01
DAV:   3    -0.471880261566E+03    0.19424E-03   -0.16053E-03  1528   0.129E-01    0.124E-01
DAV:   4    -0.471880218007E+03    0.43559E-04   -0.39446E-04  1480   0.561E-02    0.684E-02
DAV:   5    -0.471880212716E+03    0.52904E-05   -0.85546E-05  1448   0.271E-02
   5 F= -.47188021E+03 E0= -.47184319E+03  d E =-.320969E-01
       N       E                     dE             d eps       ncg     rms          rms(c)
DAV:   1    -0.471892801206E+03   -0.12583E-01   -0.18782E+00  1312   0.389E+00    0.428E-01
DAV:   2    -0.471896322154E+03   -0.35209E-02   -0.45105E-02  1536   0.554E-01    0.226E-01
DAV:   3    -0.471895885248E+03    0.43691E-03   -0.19807E-03  1512   0.167E-01    0.144E-01
DAV:   4    -0.471895855347E+03    0.29901E-04   -0.90878E-04  1500   0.847E-02    0.704E-02
DAV:   5    -0.471895861068E+03   -0.57203E-05   -0.10691E-04  1500   0.313E-02    0.222E-02
DAV:   6    -0.471895866546E+03   -0.54785E-05   -0.42070E-05   832   0.171E-02
   6 F= -.47189587E+03 E0= -.47185886E+03  d E =-.156538E-01
       N       E                     dE             d eps       ncg     rms          rms(c)
DAV:   1    -0.471897669676E+03   -0.18086E-02   -0.82349E-01  1312   0.258E+00    0.284E-01
DAV:   2    -0.471899230564E+03   -0.15609E-02   -0.19891E-02  1604   0.368E-01    0.148E-01
DAV:   3    -0.471899039247E+03    0.19132E-03   -0.85481E-04  1496   0.111E-01    0.951E-02
DAV:   4    -0.471899027902E+03    0.11346E-04   -0.39872E-04  1516   0.562E-02    0.466E-02
DAV:   5    -0.471899033079E+03   -0.51775E-05   -0.36515E-05  1000   0.201E-02
   7 F= -.47189903E+03 E0= -.47186204E+03  d E =-.188204E-01
       N       E                     dE             d eps       ncg     rms          rms(c)
DAV:   1    -0.471905281083E+03   -0.62532E-02   -0.96194E-01  1312   0.275E+00    0.258E-01
DAV:   2    -0.471906920445E+03   -0.16394E-02   -0.21580E-02  1536   0.378E-01    0.154E-01
DAV:   3    -0.471906746932E+03    0.17351E-03   -0.83835E-04  1476   0.104E-01    0.103E-01
DAV:   4    -0.471906729819E+03    0.17113E-04   -0.33310E-04  1552   0.537E-02    0.527E-02
DAV:   5    -0.471906734662E+03   -0.48425E-05   -0.53814E-05  1360   0.232E-02
   8 F= -.47190673E+03 E0= -.47186989E+03  d E =-.770158E-02
       N       E                     dE             d eps       ncg     rms          rms(c)
DAV:   1    -0.471907900645E+03   -0.11708E-02   -0.10257E+00  1312   0.284E+00    0.268E-01
DAV:   2    -0.471909644628E+03   -0.17440E-02   -0.22993E-02  1560   0.390E-01    0.159E-01
DAV:   3    -0.471909458194E+03    0.18643E-03   -0.88261E-04  1480   0.108E-01    0.105E-01
DAV:   4    -0.471909438056E+03    0.20138E-04   -0.35069E-04  1568   0.552E-02    0.534E-02
DAV:   5    -0.471909442700E+03   -0.46442E-05   -0.44966E-05  1256   0.221E-02
   9 F= -.47190944E+03 E0= -.47187275E+03  d E =-.104096E-01
       N       E                     dE             d eps       ncg     rms          rms(c)
DAV:   1    -0.471914231038E+03   -0.47930E-02   -0.56454E-01  1312   0.210E+00    0.231E-01
DAV:   2    -0.471914983825E+03   -0.75279E-03   -0.12442E-02  1500   0.293E-01    0.117E-01
DAV:   3    -0.471914899563E+03    0.84262E-04   -0.59298E-04  1488   0.834E-02    0.733E-02
DAV:   4    -0.471914889787E+03    0.97754E-05   -0.17124E-04  1480   0.378E-02    0.379E-02
DAV:   5    -0.471914892535E+03   -0.27477E-05   -0.26673E-05   832   0.175E-02
  10 F= -.47191489E+03 E0= -.47187824E+03  d E =-.544984E-02
       N       E                     dE             d eps       ncg     rms          rms(c)
DAV:   1    -0.471916446356E+03   -0.15566E-02   -0.15629E+00  1312   0.350E+00    0.381E-01
DAV:   2    -0.471918533569E+03   -0.20872E-02   -0.34363E-02  1504   0.487E-01    0.194E-01
DAV:   3    -0.471918291298E+03    0.24227E-03   -0.16047E-03  1472   0.138E-01    0.123E-01
DAV:   4    -0.471918253709E+03    0.37589E-04   -0.47988E-04  1508   0.629E-02    0.632E-02
DAV:   5    -0.471918252528E+03    0.11813E-05   -0.72802E-05  1436   0.279E-02
  11 F= -.47191825E+03 E0= -.47188169E+03  d E =-.880983E-02
       N       E                     dE             d eps       ncg     rms          rms(c)
DAV:   1    -0.471920155371E+03   -0.19017E-02   -0.27161E-01  1312   0.144E+00    0.146E-01
DAV:   2    -0.471920488777E+03   -0.33341E-03   -0.53944E-03  1472   0.198E-01    0.761E-02
DAV:   3    -0.471920439067E+03    0.49710E-04   -0.24426E-04  1504   0.529E-02    0.449E-02
DAV:   4    -0.471920434086E+03    0.49813E-05   -0.11032E-04  1436   0.316E-02    0.171E-02
DAV:   5    -0.471920436590E+03   -0.25044E-05   -0.17262E-05   896   0.132E-02
  12 F= -.47192044E+03 E0= -.47188383E+03  d E =-.218406E-02
       N       E                     dE             d eps       ncg     rms          rms(c)
DAV:   1    -0.471920738788E+03   -0.30470E-03   -0.12368E-01  1312   0.969E-01    0.999E-02
DAV:   2    -0.471920891514E+03   -0.15273E-03   -0.24699E-03  1544   0.134E-01    0.515E-02
DAV:   3    -0.471920867814E+03    0.23700E-04   -0.10773E-04  1528   0.357E-02    0.305E-02
DAV:   4    -0.471920865599E+03    0.22157E-05   -0.48195E-05  1396   0.214E-02
  13 F= -.47192087E+03 E0= -.47188423E+03  d E =-.261307E-02
       N       E                     dE             d eps       ncg     rms          rms(c)
DAV:   1    -0.471921994229E+03   -0.11264E-02   -0.17137E-01  1312   0.108E+00    0.900E-02
DAV:   2    -0.471922237796E+03   -0.24357E-03   -0.30659E-03  1496   0.145E-01    0.542E-02
DAV:   3    -0.471922219295E+03    0.18501E-04   -0.12852E-04  1544   0.354E-02    0.348E-02
DAV:   4    -0.471922217958E+03    0.13374E-05   -0.34327E-05  1028   0.180E-02
  14 F= -.47192222E+03 E0= -.47188557E+03  d E =-.135236E-02
       N       E                     dE             d eps       ncg     rms          rms(c)
DAV:   1    -0.471922451920E+03   -0.23262E-03   -0.31994E-01  1312   0.147E+00    0.123E-01
DAV:   2    -0.471922893404E+03   -0.44148E-03   -0.56525E-03  1488   0.196E-01    0.742E-02
DAV:   3    -0.471922858312E+03    0.35092E-04   -0.23871E-04  1504   0.485E-02    0.474E-02
DAV:   4    -0.471922853889E+03    0.44234E-05   -0.72352E-05  1396   0.253E-02
  15 F= -.47192285E+03 E0= -.47188619E+03  d E =-.198829E-02
       N       E                     dE             d eps       ncg     rms          rms(c)
DAV:   1    -0.471923854484E+03   -0.99617E-03   -0.17520E-01  1312   0.100E+00    0.737E-02
DAV:   2    -0.471924051258E+03   -0.19677E-03   -0.25392E-03  1440   0.126E-01    0.447E-02
DAV:   3    -0.471924044688E+03    0.65696E-05   -0.10402E-04  1544   0.287E-02    0.277E-02
DAV:   4    -0.471924045668E+03   -0.97949E-06   -0.20835E-05   864   0.142E-02
  16 F= -.47192405E+03 E0= -.47188738E+03  d E =-.119178E-02
       N       E                     dE             d eps       ncg     rms          rms(c)
DAV:   1    -0.471924455404E+03   -0.41072E-03   -0.15793E+00  1312   0.301E+00    0.214E-01
DAV:   2    -0.471926253171E+03   -0.17978E-02   -0.22990E-02  1440   0.380E-01    0.129E-01
DAV:   3    -0.471926191933E+03    0.61238E-04   -0.95132E-04  1540   0.858E-02    0.816E-02
DAV:   4    -0.471926184844E+03    0.70897E-05   -0.20695E-04  1484   0.422E-02    0.333E-02
DAV:   5    -0.471926192818E+03   -0.79742E-05   -0.43304E-05  1096   0.195E-02
  17 F= -.47192619E+03 E0= -.47188952E+03  d E =-.333893E-02
       N       E                     dE             d eps       ncg     rms          rms(c)
DAV:   1    -0.471926031384E+03    0.15346E-03   -0.38117E-01  1312   0.148E+00    0.106E-01
DAV:   2    -0.471926471245E+03   -0.43986E-03   -0.55643E-03  1432   0.186E-01    0.630E-02
DAV:   3    -0.471926459113E+03    0.12132E-04   -0.22394E-04  1600   0.417E-02    0.398E-02
DAV:   4    -0.471926459339E+03   -0.22642E-06   -0.46484E-05  1176   0.205E-02
  18 F= -.47192646E+03 E0= -.47188979E+03  d E =-.360545E-02
       N       E                     dE             d eps       ncg     rms          rms(c)
DAV:   1    -0.471927510015E+03   -0.10509E-02   -0.20934E-01  1312   0.104E+00    0.732E-02
DAV:   2    -0.471927733698E+03   -0.22368E-03   -0.29496E-03  1500   0.134E-01    0.449E-02
DAV:   3    -0.471927726463E+03    0.72350E-05   -0.12581E-04  1484   0.306E-02    0.275E-02
DAV:   4    -0.471927728114E+03   -0.16502E-05   -0.29455E-05   896   0.161E-02
  19 F= -.47192773E+03 E0= -.47189108E+03  d E =-.126877E-02
       N       E                     dE             d eps       ncg     rms          rms(c)
DAV:   1    -0.471928279594E+03   -0.55313E-03   -0.18843E+00  1312   0.313E+00    0.216E-01
DAV:   2    -0.471930286141E+03   -0.20065E-02   -0.26579E-02  1488   0.404E-01    0.135E-01
DAV:   3    -0.471930201397E+03    0.84745E-04   -0.11753E-03  1476   0.937E-02    0.832E-02
DAV:   4    -0.471930192456E+03    0.89405E-05   -0.29462E-04  1496   0.489E-02    0.375E-02
DAV:   5    -0.471930201710E+03   -0.92539E-05   -0.80319E-05  1432   0.263E-02
  20 F= -.47193020E+03 E0= -.47189363E+03  d E =-.374237E-02
       N       E                     dE             d eps       ncg     rms          rms(c)
DAV:   1    -0.471921250156E+03    0.89423E-02   -0.75457E+00  1312   0.626E+00    0.430E-01
DAV:   2    -0.471929433844E+03   -0.81837E-02   -0.10672E-01  1484   0.811E-01    0.269E-01
DAV:   3    -0.471929071124E+03    0.36272E-03   -0.46488E-03  1488   0.186E-01    0.167E-01
DAV:   4    -0.471929026113E+03    0.45011E-04   -0.11752E-03  1520   0.978E-02    0.755E-02
DAV:   5    -0.471929058859E+03   -0.32746E-04   -0.33357E-04  1552   0.532E-02    0.264E-02
DAV:   6    -0.471929074975E+03   -0.16116E-04   -0.63916E-05  1368   0.238E-02    0.147E-02
DAV:   7    -0.471929085028E+03   -0.10054E-04   -0.91527E-06   828   0.896E-03    0.812E-03
DAV:   8    -0.471929097398E+03   -0.12370E-04   -0.41917E-06   852   0.571E-03    0.329E-03
DAV:   9    -0.471929104039E+03   -0.66409E-05   -0.16465E-06   856   0.320E-03
  21 F= -.47192910E+03 E0= -.47189268E+03  d E =-.264470E-02
       N       E                     dE             d eps       ncg     rms          rms(c)
DAV:   1    -0.471927466174E+03    0.16312E-02   -0.31672E+00  1312   0.406E+00    0.284E-01
DAV:   2    -0.471930896573E+03   -0.34304E-02   -0.44859E-02  1484   0.526E-01    0.173E-01
DAV:   3    -0.471930763478E+03    0.13309E-03   -0.19479E-03  1492   0.121E-01    0.107E-01
DAV:   4    -0.471930743388E+03    0.20089E-04   -0.49675E-04  1504   0.637E-02    0.476E-02
DAV:   5    -0.471930758297E+03   -0.14908E-04   -0.13577E-04  1592   0.339E-02    0.169E-02
DAV:   6    -0.471930763834E+03   -0.55370E-05   -0.23780E-05   928   0.151E-02
  22 F= -.47193076E+03 E0= -.47189424E+03  d E =-.430449E-02
       N       E                     dE             d eps       ncg     rms          rms(c)
DAV:   1    -0.471931814705E+03   -0.10564E-02   -0.20901E-01  1312   0.100E+00    0.635E-02
DAV:   2    -0.471932022010E+03   -0.20730E-03   -0.27100E-03  1472   0.125E-01    0.409E-02
DAV:   3    -0.471932016504E+03    0.55060E-05   -0.10193E-04  1368   0.262E-02    0.241E-02
DAV:   4    -0.471932019554E+03   -0.30501E-05   -0.21116E-05   860   0.138E-02
  23 F= -.47193202E+03 E0= -.47189551E+03  d E =-.125572E-02
       N       E                     dE             d eps       ncg     rms          rms(c)
DAV:   1    -0.471933620420E+03   -0.16039E-02   -0.18831E+00  1312   0.302E+00    0.191E-01
DAV:   2    -0.471935545371E+03   -0.19250E-02   -0.24594E-02  1444   0.375E-01    0.122E-01
DAV:   3    -0.471935492681E+03    0.52691E-04   -0.91804E-04  1536   0.780E-02    0.742E-02
DAV:   4    -0.471935505953E+03   -0.13272E-04   -0.19913E-04  1464   0.399E-02    0.270E-02
DAV:   5    -0.471935517088E+03   -0.11135E-04   -0.40104E-05  1128   0.188E-02    0.110E-02
DAV:   6    -0.471935518564E+03   -0.14765E-05   -0.88796E-06   848   0.897E-03
  24 F= -.47193552E+03 E0= -.47189906E+03  d E =-.475473E-02
       N       E                     dE             d eps       ncg     rms          rms(c)
DAV:   1    -0.471933564564E+03    0.19525E-02   -0.75388E+00  1312   0.604E+00    0.381E-01
DAV:   2    -0.471941351985E+03   -0.77874E-02   -0.98659E-02  1476   0.751E-01    0.245E-01
DAV:   3    -0.471941082824E+03    0.26916E-03   -0.36640E-03  1536   0.155E-01    0.150E-01
DAV:   4    -0.471941127885E+03   -0.45061E-04   -0.79635E-04  1480   0.794E-02    0.534E-02
DAV:   5    -0.471941168788E+03   -0.40903E-04   -0.15953E-04  1552   0.367E-02    0.218E-02
DAV:   6    -0.471941175322E+03   -0.65345E-05   -0.30511E-05   920   0.163E-02
  25 F= -.47194118E+03 E0= -.47190483E+03  d E =-.104115E-01
       N       E                     dE             d eps       ncg     rms          rms(c)
DAV:   1    -0.471915097168E+03    0.26072E-01   -0.30241E+01  1312   0.121E+01    0.766E-01
DAV:   2    -0.471947091071E+03   -0.31994E-01   -0.39764E-01  1480   0.151E+00    0.500E-01
DAV:   3    -0.471945857516E+03    0.12336E-02   -0.14868E-02  1592   0.310E-01    0.309E-01
DAV:   4    -0.471945793414E+03    0.64102E-04   -0.31468E-03  1456   0.158E-01    0.111E-01
DAV:   5    -0.471945948466E+03   -0.15505E-03   -0.64201E-04  1600   0.733E-02    0.443E-02
DAV:   6    -0.471945972132E+03   -0.23666E-04   -0.13577E-04  1488   0.333E-02    0.251E-02
DAV:   7    -0.471945989128E+03   -0.16996E-04   -0.22595E-05   928   0.147E-02    0.129E-02
DAV:   8    -0.471946015636E+03   -0.26508E-04   -0.10613E-05   904   0.885E-03    0.435E-03
DAV:   9    -0.471946028607E+03   -0.12971E-04   -0.27830E-06   888   0.435E-03    0.237E-03
DAV:  10    -0.471946041698E+03   -0.13091E-04   -0.11451E-06   840   0.231E-03    0.121E-03
DAV:  11    -0.471946058304E+03   -0.16607E-04   -0.12454E-06   864   0.187E-03    0.726E-04
DAV:  12    -0.471946068794E+03   -0.10489E-04   -0.81322E-07   864   0.139E-03    0.659E-04
DAV:  13    -0.471946076362E+03   -0.75689E-05   -0.65480E-07   872   0.121E-03
  26 F= -.47194608E+03 E0= -.47190993E+03  d E =-.153125E-01
       N       E                     dE             d eps       ncg     rms          rms(c)
DAV:   1    -0.471948036447E+03   -0.19677E-02   -0.10291E+00  1312   0.220E+00    0.147E-01
DAV:   2    -0.471949067188E+03   -0.10307E-02   -0.13300E-02  1480   0.275E-01    0.878E-02
DAV:   3    -0.471949032057E+03    0.35131E-04   -0.50670E-04  1552   0.566E-02    0.532E-02
DAV:   4    -0.471949038998E+03   -0.69409E-05   -0.11873E-04  1432   0.310E-02    0.173E-02
DAV:   5    -0.471949044241E+03   -0.52425E-05   -0.19911E-05   952   0.137E-02
  27 F= -.47194904E+03 E0= -.47191295E+03  d E =-.296788E-02
       N       E                     dE             d eps       ncg     rms          rms(c)
DAV:   1    -0.471947247528E+03    0.17915E-02   -0.92709E+00  1312   0.659E+00    0.443E-01
DAV:   2    -0.471956647795E+03   -0.94003E-02   -0.12019E-01  1480   0.828E-01    0.264E-01
DAV:   3    -0.471956341553E+03    0.30624E-03   -0.45750E-03  1536   0.169E-01    0.161E-01
DAV:   4    -0.471956358753E+03   -0.17200E-04   -0.10533E-03  1448   0.919E-02    0.517E-02
DAV:   5    -0.471956396685E+03   -0.37931E-04   -0.18543E-04  1496   0.408E-02    0.251E-02
DAV:   6    -0.471956408297E+03   -0.11612E-04   -0.29858E-05   992   0.159E-02    0.122E-02
DAV:   7    -0.471956414222E+03   -0.59249E-05   -0.62726E-06   844   0.795E-03
  28 F= -.47195641E+03 E0= -.47192046E+03  d E =-.103379E-01
       N       E                     dE             d eps       ncg     rms          rms(c)
DAV:   1    -0.471927509497E+03    0.28899E-01   -0.37220E+01  1312   0.132E+01    0.892E-01
DAV:   2    -0.471966057283E+03   -0.38548E-01   -0.48595E-01  1496   0.167E+00    0.539E-01
DAV:   3    -0.471964530461E+03    0.15268E-02   -0.18544E-02  1576   0.339E-01    0.330E-01
DAV:   4    -0.471964535698E+03   -0.52363E-05   -0.40962E-03  1472   0.181E-01    0.104E-01
DAV:   5    -0.471964675768E+03   -0.14007E-03   -0.74033E-04  1472   0.831E-02    0.532E-02
DAV:   6    -0.471964709982E+03   -0.34215E-04   -0.14431E-04  1544   0.350E-02    0.267E-02
DAV:   7    -0.471964727774E+03   -0.17791E-04   -0.23044E-05   952   0.154E-02    0.147E-02
DAV:   8    -0.471964752864E+03   -0.25090E-04   -0.12909E-05   952   0.101E-02    0.561E-03
DAV:   9    -0.471964766671E+03   -0.13808E-04   -0.30483E-06   896   0.494E-03    0.250E-03
DAV:  10    -0.471964782180E+03   -0.15508E-04   -0.13592E-06   856   0.249E-03    0.138E-03
DAV:  11    -0.471964797455E+03   -0.15275E-04   -0.10744E-06   880   0.180E-03    0.752E-04
DAV:  12    -0.471964809363E+03   -0.11908E-04   -0.10102E-06   896   0.157E-03    0.704E-04
DAV:  13    -0.471964817597E+03   -0.82337E-05   -0.68779E-07   888   0.123E-03
  29 F= -.47196482E+03 E0= -.47192915E+03  d E =-.187412E-01
       N       E                     dE             d eps       ncg     rms          rms(c)
DAV:   1    -0.471972860001E+03   -0.80506E-02   -0.13167E+00  1312   0.264E+00    0.213E-01
DAV:   2    -0.471974084778E+03   -0.12248E-02   -0.18710E-02  1456   0.347E-01    0.115E-01
DAV:   3    -0.471974009603E+03    0.75175E-04   -0.96412E-04  1496   0.878E-02    0.707E-02
DAV:   4    -0.471973998833E+03    0.10770E-04   -0.22274E-04  1440   0.447E-02    0.323E-02
DAV:   5    -0.471974006445E+03   -0.76126E-05   -0.59637E-05  1248   0.230E-02
  30 F= -.47197401E+03 E0= -.47193837E+03  d E =-.918885E-02
       N       E                     dE             d eps       ncg     rms          rms(c)
DAV:   1    -0.471981167732E+03   -0.71689E-02   -0.11857E+01  1312   0.792E+00    0.646E-01
DAV:   2    -0.471992281148E+03   -0.11113E-01   -0.16959E-01  1436   0.104E+00    0.345E-01
DAV:   3    -0.471991595690E+03    0.68546E-03   -0.86692E-03  1524   0.263E-01    0.214E-01
DAV:   4    -0.471991510068E+03    0.85622E-04   -0.19688E-03  1472   0.133E-01    0.993E-02
DAV:   5    -0.471991575396E+03   -0.65328E-04   -0.55427E-04  1476   0.697E-02    0.437E-02
DAV:   6    -0.471991596475E+03   -0.21079E-04   -0.11337E-04  1508   0.323E-02    0.207E-02
DAV:   7    -0.471991610895E+03   -0.14420E-04   -0.16045E-05   884   0.121E-02    0.106E-02
DAV:   8    -0.471991625514E+03   -0.14619E-04   -0.61746E-06   864   0.685E-03    0.444E-03
DAV:   9    -0.471991633744E+03   -0.82303E-05   -0.21798E-06   888   0.384E-03
  31 F= -.47199163E+03 E0= -.47195601E+03  d E =-.268161E-01
       N       E                     dE             d eps       ncg     rms          rms(c)
DAV:   1    -0.471939819718E+03    0.51806E-01   -0.47579E+01  1336   0.159E+01    0.131E+00
DAV:   2    -0.471985008989E+03   -0.45189E-01   -0.68058E-01  1460   0.209E+00    0.689E-01
DAV:   3    -0.471981816573E+03    0.31924E-02   -0.33883E-02  1528   0.521E-01    0.434E-01
DAV:   4    -0.471981269627E+03    0.54695E-03   -0.76473E-03  1452   0.264E-01    0.205E-01
DAV:   5    -0.471981485231E+03   -0.21560E-03   -0.23047E-03  1460   0.144E-01    0.912E-02
DAV:   6    -0.471981557154E+03   -0.71923E-04   -0.47761E-04  1496   0.667E-02    0.419E-02
DAV:   7    -0.471981600825E+03   -0.43671E-04   -0.72958E-05  1408   0.243E-02    0.223E-02
DAV:   8    -0.471981638851E+03   -0.38026E-04   -0.19319E-05   968   0.127E-02    0.921E-03
DAV:   9    -0.471981664755E+03   -0.25905E-04   -0.83898E-06   896   0.766E-03    0.331E-03
DAV:  10    -0.471981685679E+03   -0.20923E-04   -0.25864E-06   896   0.385E-03    0.207E-03
DAV:  11    -0.471981711879E+03   -0.26200E-04   -0.18852E-06   892   0.254E-03    0.109E-03
DAV:  12    -0.471981733941E+03   -0.22062E-04   -0.18444E-06   924   0.207E-03    0.790E-04
DAV:  13    -0.471981747269E+03   -0.13328E-04   -0.11191E-06   896   0.160E-03    0.419E-04
DAV:  14    -0.471981754404E+03   -0.71353E-05   -0.72074E-07   888   0.121E-03
  32 F= -.47198175E+03 E0= -.47194617E+03  d E =-.169368E-01
       N       E                     dE             d eps       ncg     rms          rms(c)
DAV:   1    -0.471976671638E+03    0.50756E-02   -0.21046E+01  1328   0.105E+01    0.869E-01
DAV:   2    -0.471996707293E+03   -0.20036E-01   -0.29592E-01  1448   0.137E+00    0.468E-01
DAV:   3    -0.471995268522E+03    0.14388E-02   -0.15069E-02  1536   0.349E-01    0.288E-01
DAV:   4    -0.471995009134E+03    0.25939E-03   -0.37361E-03  1440   0.183E-01    0.123E-01
DAV:   5    -0.471995094577E+03   -0.85443E-04   -0.96568E-04  1480   0.924E-02    0.560E-02
DAV:   6    -0.471995115725E+03   -0.21148E-04   -0.19100E-04  1540   0.420E-02    0.279E-02
DAV:   7    -0.471995129424E+03   -0.13699E-04   -0.27783E-05  1136   0.156E-02    0.148E-02
DAV:   8    -0.471995143795E+03   -0.14371E-04   -0.99665E-06   928   0.888E-03    0.603E-03
DAV:   9    -0.471995152721E+03   -0.89259E-05   -0.32240E-06   904   0.491E-03
  33 F= -.47199515E+03 E0= -.47195955E+03  d E =-.303351E-01
       N       E                     dE             d eps       ncg     rms          rms(c)
DAV:   1    -0.472002192419E+03   -0.70486E-02   -0.14581E+00  1360   0.284E+00    0.206E-01
DAV:   2    -0.472003679432E+03   -0.14870E-02   -0.20409E-02  1416   0.359E-01    0.120E-01
DAV:   3    -0.472003587896E+03    0.91536E-04   -0.82870E-04  1536   0.784E-02    0.714E-02
DAV:   4    -0.472003595660E+03   -0.77641E-05   -0.24047E-04  1420   0.456E-02    0.259E-02
DAV:   5    -0.472003606852E+03   -0.11192E-04   -0.54576E-05  1260   0.225E-02    0.125E-02
DAV:   6    -0.472003611078E+03   -0.42258E-05   -0.96914E-06   840   0.101E-02
  34 F= -.47200361E+03 E0= -.47196795E+03  d E =-.845836E-02
       N       E                     dE             d eps       ncg     rms          rms(c)
DAV:   1    -0.472008825879E+03   -0.52190E-02   -0.13130E+01  1344   0.852E+00    0.623E-01
DAV:   2    -0.472022439930E+03   -0.13614E-01   -0.18669E-01  1424   0.108E+00    0.362E-01
DAV:   3    -0.472021560556E+03    0.87937E-03   -0.75640E-03  1552   0.235E-01    0.219E-01
DAV:   4    -0.472021550878E+03    0.96788E-05   -0.20856E-03  1444   0.134E-01    0.823E-02
DAV:   5    -0.472021616601E+03   -0.65723E-04   -0.52862E-04  1520   0.686E-02    0.394E-02
DAV:   6    -0.472021636564E+03   -0.19963E-04   -0.99571E-05  1488   0.310E-02    0.210E-02
DAV:   7    -0.472021650152E+03   -0.13588E-04   -0.15926E-05   848   0.124E-02    0.105E-02
DAV:   8    -0.472021662271E+03   -0.12119E-04   -0.63815E-06   856   0.717E-03    0.426E-03
DAV:   9    -0.472021669981E+03   -0.77101E-05   -0.21536E-06   864   0.384E-03
  35 F= -.47202167E+03 E0= -.47198579E+03  d E =-.265173E-01
       N       E                     dE             d eps       ncg     rms          rms(c)
DAV:   1    -0.471970860980E+03    0.50801E-01   -0.52656E+01  1360   0.171E+01    0.128E+00
DAV:   2    -0.472026695699E+03   -0.55835E-01   -0.75667E-01  1480   0.218E+00    0.742E-01
DAV:   3    -0.472022595272E+03    0.41004E-02   -0.28988E-02  1536   0.463E-01    0.452E-01
DAV:   4    -0.472022222298E+03    0.37297E-03   -0.78815E-03  1480   0.260E-01    0.181E-01
DAV:   5    -0.472022504836E+03   -0.28254E-03   -0.22934E-03  1552   0.140E-01    0.820E-02
DAV:   6    -0.472022572501E+03   -0.67665E-04   -0.45282E-04  1544   0.658E-02    0.422E-02
DAV:   7    -0.472022621805E+03   -0.49303E-04   -0.75453E-05  1440   0.253E-02    0.214E-02
DAV:   8    -0.472022663394E+03   -0.41589E-04   -0.23118E-05   928   0.136E-02    0.843E-03
DAV:   9    -0.472022688419E+03   -0.25025E-04   -0.88238E-06   888   0.758E-03    0.303E-03
DAV:  10    -0.472022711241E+03   -0.22822E-04   -0.25406E-06   912   0.379E-03    0.169E-03
DAV:  11    -0.472022732197E+03   -0.20956E-04   -0.15269E-06   864   0.238E-03    0.105E-03
DAV:  12    -0.472022753282E+03   -0.21085E-04   -0.17440E-06   896   0.207E-03    0.707E-04
DAV:  13    -0.472022764690E+03   -0.11408E-04   -0.10230E-06   896   0.154E-03    0.534E-04
DAV:  14    -0.472022770709E+03   -0.60191E-05   -0.57184E-07   832   0.112E-03
  36 F= -.47202277E+03 E0= -.47198640E+03  d E =-.276180E-01
       N       E                     dE             d eps       ncg     rms          rms(c)
DAV:   1    -0.472016546193E+03    0.62185E-02   -0.12153E+01  1376   0.819E+00    0.597E-01
DAV:   2    -0.472028913581E+03   -0.12367E-01   -0.16800E-01  1448   0.103E+00    0.349E-01
DAV:   3    -0.472028031835E+03    0.88175E-03   -0.66636E-03  1552   0.225E-01    0.205E-01
DAV:   4    -0.472028003686E+03    0.28148E-04   -0.20789E-03  1452   0.134E-01    0.706E-02
DAV:   5    -0.472028046050E+03   -0.42364E-04   -0.47261E-04  1492   0.654E-02    0.364E-02
DAV:   6    -0.472028059775E+03   -0.13725E-04   -0.82877E-05  1464   0.283E-02    0.200E-02
DAV:   7    -0.472028067573E+03   -0.77981E-05   -0.13997E-05   864   0.117E-02
  37 F= -.47202807E+03 E0= -.47199196E+03  d E =-.329149E-01
       N       E                     dE             d eps       ncg     rms          rms(c)
DAV:   1    -0.472039981110E+03   -0.11921E-01   -0.45423E+00  1376   0.523E+00    0.348E-01
DAV:   2    -0.472044502633E+03   -0.45215E-02   -0.62111E-02  1432   0.629E-01    0.218E-01
DAV:   3    -0.472044154967E+03    0.34767E-03   -0.22655E-03  1568   0.130E-01    0.124E-01
DAV:   4    -0.472044196009E+03   -0.41043E-04   -0.59662E-04  1448   0.729E-02    0.365E-02
DAV:   5    -0.472044224631E+03   -0.28621E-04   -0.10433E-04  1440   0.304E-02    0.193E-02
DAV:   6    -0.472044230626E+03   -0.59949E-05   -0.10503E-05   780   0.991E-03
  38 F= -.47204423E+03 E0= -.47200816E+03  d E =-.161631E-01
       N       E                     dE             d eps       ncg     rms          rms(c)
DAV:   1    -0.472039086813E+03    0.51378E-02   -0.31355E+01  1376   0.137E+01    0.939E-01
DAV:   2    -0.472071228821E+03   -0.32142E-01   -0.43656E-01  1496   0.167E+00    0.584E-01
DAV:   3    -0.472068492704E+03    0.27361E-02   -0.15687E-02  1592   0.340E-01    0.345E-01
DAV:   4    -0.472068550722E+03   -0.58018E-04   -0.38422E-03  1456   0.185E-01    0.109E-01
DAV:   5    -0.472068811542E+03   -0.26082E-03   -0.73203E-04  1616   0.770E-02    0.485E-02
DAV:   6    -0.472068860252E+03   -0.48710E-04   -0.69656E-05  1360   0.244E-02    0.241E-02
DAV:   7    -0.472068898239E+03   -0.37987E-04   -0.16287E-05   904   0.124E-02    0.995E-03
DAV:   8    -0.472068924546E+03   -0.26307E-04   -0.75069E-06   904   0.746E-03    0.321E-03
DAV:   9    -0.472068942279E+03   -0.17733E-04   -0.22058E-06   888   0.362E-03    0.202E-03
DAV:  10    -0.472068966065E+03   -0.23786E-04   -0.19708E-06   880   0.265E-03    0.121E-03
DAV:  11    -0.472068984188E+03   -0.18123E-04   -0.16855E-06   888   0.210E-03    0.920E-04
DAV:  12    -0.472068994468E+03   -0.10280E-04   -0.10523E-06   896   0.162E-03    0.667E-04
DAV:  13    -0.472069001275E+03   -0.68073E-05   -0.79447E-07   896   0.128E-03
  39 F= -.47206900E+03 E0= -.47203305E+03  d E =-.409337E-01
       N       E                     dE             d eps       ncg     rms          rms(c)
DAV:   1    -0.472064913738E+03    0.40807E-02   -0.68912E+00  1360   0.645E+00    0.433E-01
DAV:   2    -0.472071913541E+03   -0.69998E-02   -0.95974E-02  1472   0.779E-01    0.273E-01
DAV:   3    -0.472071371639E+03    0.54190E-03   -0.34116E-03  1544   0.160E-01    0.158E-01
DAV:   4    -0.472071445517E+03   -0.73878E-04   -0.86954E-04  1456   0.878E-02    0.484E-02
DAV:   5    -0.472071498139E+03   -0.52622E-04   -0.16118E-04  1592   0.365E-02    0.234E-02
DAV:   6    -0.472071508733E+03   -0.10594E-04   -0.13431E-05   808   0.119E-02    0.117E-02
DAV:   7    -0.472071517689E+03   -0.89561E-05   -0.52581E-06   860   0.731E-03
  40 F= -.47207152E+03 E0= -.47203562E+03  d E =-.434501E-01
       N       E                     dE             d eps       ncg     rms          rms(c)
DAV:   1    -0.472084618222E+03   -0.13109E-01   -0.67237E+00  1352   0.658E+00    0.440E-01
DAV:   2    -0.472091261943E+03   -0.66437E-02   -0.95270E-02  1480   0.788E-01    0.271E-01
DAV:   3    -0.472090669863E+03    0.59208E-03   -0.35228E-03  1592   0.166E-01    0.153E-01
DAV:   4    -0.472090778315E+03   -0.10845E-03   -0.10913E-03  1512   0.977E-02    0.444E-02
DAV:   5    -0.472090827297E+03   -0.48982E-04   -0.19222E-04  1504   0.424E-02    0.237E-02
DAV:   6    -0.472090848897E+03   -0.21600E-04   -0.25240E-05   896   0.155E-02    0.127E-02
DAV:   7    -0.472090860804E+03   -0.11907E-04   -0.61207E-06   848   0.780E-03    0.631E-03
DAV:   8    -0.472090871142E+03   -0.10339E-04   -0.26564E-06   896   0.468E-03    0.264E-03
DAV:   9    -0.472090878125E+03   -0.69831E-05   -0.10266E-06   856   0.251E-03
  41 F= -.47209088E+03 E0= -.47205497E+03  d E =-.193604E-01
       N       E                     dE             d eps       ncg     rms          rms(c)
DAV:   1    -0.472065032832E+03    0.25838E-01   -0.60529E+01  1360   0.197E+01    0.138E+00
DAV:   2    -0.472128907507E+03   -0.63875E-01   -0.87791E-01  1496   0.240E+00    0.816E-01
DAV:   3    -0.472123447209E+03    0.54603E-02   -0.33881E-02  1640   0.499E-01    0.486E-01
DAV:   4    -0.472122889756E+03    0.55745E-03   -0.87476E-03  1496   0.281E-01    0.157E-01
DAV:   5    -0.472123344628E+03   -0.45487E-03   -0.18489E-03  1544   0.131E-01    0.761E-02
DAV:   6    -0.472123486255E+03   -0.14163E-03   -0.32669E-04  1504   0.547E-02    0.416E-02
DAV:   7    -0.472123546426E+03   -0.60171E-04   -0.52205E-05  1240   0.231E-02    0.199E-02
DAV:   8    -0.472123596504E+03   -0.50079E-04   -0.15336E-05   952   0.121E-02    0.717E-03
DAV:   9    -0.472123626933E+03   -0.30428E-04   -0.57890E-06   912   0.648E-03    0.286E-03
DAV:  10    -0.472123656928E+03   -0.29995E-04   -0.31225E-06   924   0.364E-03    0.172E-03
DAV:  11    -0.472123686742E+03   -0.29815E-04   -0.26701E-06   952   0.267E-03    0.108E-03
DAV:  12    -0.472123709134E+03   -0.22392E-04   -0.25190E-06   944   0.231E-03    0.826E-04
DAV:  13    -0.472123720141E+03   -0.11007E-04   -0.12320E-06   928   0.167E-03    0.432E-04
DAV:  14    -0.472123725610E+03   -0.54694E-05   -0.71587E-07   904   0.121E-03
  42 F= -.47212373E+03 E0= -.47208775E+03  d E =-.522079E-01
       N       E                     dE             d eps       ncg     rms          rms(c)
DAV:   1    -0.472118929102E+03    0.47910E-02   -0.71326E+00  1360   0.678E+00    0.455E-01
DAV:   2    -0.472126104615E+03   -0.71755E-02   -0.10163E-01  1444   0.813E-01    0.280E-01
DAV:   3    -0.472125513285E+03    0.59133E-03   -0.37110E-03  1600   0.170E-01    0.160E-01
DAV:   4    -0.472125623555E+03   -0.11027E-03   -0.11399E-03  1492   0.100E-01    0.479E-02
DAV:   5    -0.472125668978E+03   -0.45424E-04   -0.22813E-04  1496   0.460E-02    0.257E-02
DAV:   6    -0.472125687869E+03   -0.18891E-04   -0.33839E-05  1032   0.185E-02    0.145E-02
DAV:   7    -0.472125696138E+03   -0.82683E-05   -0.63424E-06   824   0.828E-03
  43 F= -.47212570E+03 E0= -.47208970E+03  d E =-.541784E-01
       N       E                     dE             d eps       ncg     rms          rms(c)
DAV:   1    -0.472140085794E+03   -0.14398E-01   -0.16436E+01  1360   0.107E+01    0.709E-01
DAV:   2    -0.472158257941E+03   -0.18172E-01   -0.25031E-01  1520   0.128E+00    0.449E-01
DAV:   3    -0.472156363218E+03    0.18947E-02   -0.87344E-03  1584   0.270E-01    0.261E-01
DAV:   4    -0.472156491359E+03   -0.12814E-03   -0.27616E-03  1524   0.156E-01    0.932E-02
DAV:   5    -0.472156632678E+03   -0.14132E-03   -0.69090E-04  1536   0.787E-02    0.429E-02
DAV:   6    -0.472156683223E+03   -0.50545E-04   -0.14849E-04  1532   0.362E-02    0.234E-02
DAV:   7    -0.472156706455E+03   -0.23232E-04   -0.18067E-05   940   0.127E-02    0.120E-02
DAV:   8    -0.472156727214E+03   -0.20759E-04   -0.65905E-06   884   0.748E-03    0.425E-03
DAV:   9    -0.472156738079E+03   -0.10865E-04   -0.24324E-06   864   0.396E-03    0.185E-03
DAV:  10    -0.472156747951E+03   -0.98720E-05   -0.10370E-06   836   0.214E-03
  44 F= -.47215675E+03 E0= -.47212096E+03  d E =-.310518E-01
       N       E                     dE             d eps       ncg     rms          rms(c)
