 vasp.6.3.2 27Jun22 (build May 04 2024 18:40:40) complex                        
  
 executed on             LinuxIFC date 2024.09.02  21:16:41
 running on   48 total cores
 distrk:  each k-point on   48 cores,    1 groups
 distr:  one band on NCORE=  12 cores,    4 groups


--------------------------------------------------------------------------------------------------------


 INCAR:
   SYSTEM = slab_Cel1-OPT
   ISTART = 0
   ICHARG = 2
   LWAVE = .F.
   LAECHG = .F.
   LCHARG = .F.
   LELF = .False.
   ENCUT = 400
   PREC = N
   NELM = 200
   ALGO = N
   ISMEAR = 0
   SIGMA = 0.1
   EDIFF = 1E-5
   IBRION = 2
   POTIM = 0.1
   EDIFFG = -0.05
   ISIF = 3
   NSW = 1000
   LDIPOL = .True.
   IDIPOL = 3
   LREAL = AUTO
   NCORE = 12

 POTCAR:    PAW_PBE C 08Apr2002                   
 POTCAR:    PAW_PBE N 08Apr2002                   
 POTCAR:    PAW_PBE Au 04Oct2007                  
 POTCAR:    PAW_PBE C 08Apr2002                   
   SHA256 =  253f7b50bb8d59471dbedb8285d89021f4a42ed1a2c5d38a03a736e69125dd95 C/POTCAR              
   COPYR  = (c) Copyright 08Apr2002 Georg Kresse                                                    
   COPYR  = This file is part of the software VASP. Any use, copying, and all other rights are regul
   COPYR  = If you do not have a valid VASP license, you may not use, copy or distribute this file. 
   VRHFIN =C: s2p2                                                                                  
   LEXCH  = PE                                                                                      
   EATOM  =   147.1560 eV,   10.8157 Ry                                                             
                                                                                                    
   TITEL  = PAW_PBE C 08Apr2002                                                                     
   LULTRA =        F    use ultrasoft PP ?                                                          
   IUNSCR =        1    unscreen: 0-lin 1-nonlin 2-no                                               
   RPACOR =    1.200    partial core radius                                                         
   POMASS =   12.011; ZVAL   =    4.000    mass and valenz                                          
   RCORE  =    1.500    outmost cutoff radius                                                       
   RWIGS  =    1.630; RWIGS  =    0.863    wigner-seitz radius (au A)                               
   ENMAX  =  400.000; ENMIN  =  300.000 eV                                                          
   ICORE  =        2    local potential                                                             
   LCOR   =        T    correct aug charges                                                         
   LPAW   =        T    paw PP                                                                      
   EAUG   =  644.873                                                                                
   DEXC   =    0.000                                                                                
   RMAX   =    1.529    core radius for proj-oper                                                   
   RAUG   =    1.300    factor for augmentation sphere                                              
   RDEP   =    1.501    radius for radial grids                                                     
   RDEPT  =    1.300    core radius for aug-charge                                                  
                                                                                                    
   Atomic configuration                                                                             
    4 entries                                                                                       
     n  l   j            E        occ.                                                              
     1  0  0.50      -273.3789   2.0000                                                             
     2  0  0.50       -13.7508   2.0000                                                             
     2  1  0.50        -5.2854   2.0000                                                             
     3  2  1.50        -5.4423   0.0000                                                             
   Description                                                                                      
     l       E           TYP  RCUT    TYP  RCUT                                                     
     0    -13.7508458     23  1.200                                                                 
     0     -8.2022199     23  1.200                                                                 
     1     -5.2854383     23  1.500                                                                 
     1     34.0145650     23  1.500                                                                 
     2     -5.4423304      7  1.500                                                                 
  local pseudopotential read in
  partial core-charges read in
  partial kinetic energy density read in
  atomic valenz-charges read in
  non local Contribution for L=           0  read in
    real space projection operators read in
  non local Contribution for L=           0  read in
    real space projection operators read in
  non local Contribution for L=           1  read in
    real space projection operators read in
  non local Contribution for L=           1  read in
    real space projection operators read in
    PAW grid and wavefunctions read in
 
   number of l-projection  operators is LMAX  =           4
   number of lm-projection operators is LMMAX =           8
 
 POTCAR:    PAW_PBE N 08Apr2002                   
   SHA256 =  e053789ff3a61a86a1b75d8a110fcc91f86041011e7b0817c7c99e4e8a6349d7 N/POTCAR              
   COPYR  = (c) Copyright 08Apr2002 Georg Kresse                                                    
   COPYR  = This file is part of the software VASP. Any use, copying, and all other rights are regul
   COPYR  = If you do not have a valid VASP license, you may not use, copy or distribute this file. 
   VRHFIN =N: s2p3                                                                                  
   LEXCH  = PE                                                                                      
   EATOM  =   264.5486 eV,   19.4438 Ry                                                             
                                                                                                    
   TITEL  = PAW_PBE N 08Apr2002                                                                     
   LULTRA =        F    use ultrasoft PP ?                                                          
   IUNSCR =        1    unscreen: 0-lin 1-nonlin 2-no                                               
   RPACOR =    1.200    partial core radius                                                         
   POMASS =   14.001; ZVAL   =    5.000    mass and valenz                                          
   RCORE  =    1.500    outmost cutoff radius                                                       
   RWIGS  =    1.400; RWIGS  =    0.741    wigner-seitz radius (au A)                               
   ENMAX  =  400.000; ENMIN  =  300.000 eV                                                          
   ICORE  =        2    local potential                                                             
   LCOR   =        T    correct aug charges                                                         
   LPAW   =        T    paw PP                                                                      
   EAUG   =  627.112                                                                                
   DEXC   =    0.000                                                                                
   RMAX   =    1.529    core radius for proj-oper                                                   
   RAUG   =    1.300    factor for augmentation sphere                                              
   RDEP   =    1.514    radius for radial grids                                                     
   RDEPT  =    1.338    core radius for aug-charge                                                  
                                                                                                    
   Atomic configuration                                                                             
    4 entries                                                                                       
     n  l   j            E        occ.                                                              
     1  0  0.50      -384.7179   2.0000                                                             
     2  0  0.50       -18.5828   2.0000                                                             
     2  1  0.50        -7.0898   3.0000                                                             
     3  2  1.50        -6.8029   0.0000                                                             
   Description                                                                                      
     l       E           TYP  RCUT    TYP  RCUT                                                     
     0    -18.5828119     23  1.200                                                                 
     0    -13.5018863     23  1.200                                                                 
     1     -7.0897853     23  1.500                                                                 
     1      9.5240782     23  1.500                                                                 
     2     -6.8029130      7  1.500                                                                 
  local pseudopotential read in
  partial core-charges read in
  partial kinetic energy density read in
  atomic valenz-charges read in
  non local Contribution for L=           0  read in
    real space projection operators read in
  non local Contribution for L=           0  read in
    real space projection operators read in
  non local Contribution for L=           1  read in
    real space projection operators read in
  non local Contribution for L=           1  read in
    real space projection operators read in
    PAW grid and wavefunctions read in
 
   number of l-projection  operators is LMAX  =           4
   number of lm-projection operators is LMMAX =           8
 
 POTCAR:    PAW_PBE Au 04Oct2007                  
   SHA256 =  d0044ae04e2bdce24051b198fc5c053d722a5bc6fe3c3b100514a13fc5d2db88 Au/POTCAR             
   COPYR  = (c) Copyright 04Oct2007 Georg Kresse                                                    
   COPYR  = This file is part of the software VASP. Any use, copying, and all other rights are regul
   COPYR  = If you do not have a valid VASP license, you may not use, copy or distribute this file. 
   VRHFIN =Au: s1d10                                                                                
   LEXCH  = PE                                                                                      
   EATOM  =   926.0867 eV,   68.0654 Ry                                                             
                                                                                                    
   TITEL  = PAW_PBE Au 04Oct2007                                                                    
   LULTRA =        F    use ultrasoft PP ?                                                          
   IUNSCR =        1    unscreen: 0-lin 1-nonlin 2-no                                               
   RPACOR =    2.330    partial core radius                                                         
   POMASS =  196.966; ZVAL   =   11.000    mass and valenz                                          
   RCORE  =    2.500    outmost cutoff radius                                                       
   RWIGS  =    2.840; RWIGS  =    1.503    wigner-seitz radius (au A)                               
   ENMAX  =  229.943; ENMIN  =  172.457 eV                                                          
   ICORE  =        3    local potential                                                             
   LCOR   =        T    correct aug charges                                                         
   LPAW   =        T    paw PP                                                                      
   EAUG   =  356.670                                                                                
   DEXC   =    0.000                                                                                
   RMAX   =    2.562    core radius for proj-oper                                                   
   RAUG   =    1.300    factor for augmentation sphere                                              
   RDEP   =    2.598    radius for radial grids                                                     
   RDEPT  =    2.193    core radius for aug-charge                                                  
                                                                                                    
   Atomic configuration                                                                             
   16 entries                                                                                       
     n  l   j            E        occ.                                                              
     1  0  0.50    -80748.5001   2.0000                                                             
     2  0  0.50    -14244.7466   2.0000                                                             
     2  1  1.50    -12310.9591   6.0000                                                             
     3  0  0.50     -3362.1768   2.0000                                                             
     3  1  1.50     -2801.5463   6.0000                                                             
     3  2  2.50     -2203.8206  10.0000                                                             
     4  0  0.50      -729.8168   2.0000                                                             
     4  1  1.50      -546.0527   6.0000                                                             
     4  2  2.50      -325.7302  10.0000                                                             
     4  3  3.50       -81.1472  14.0000                                                             
     5  0  0.50      -108.3201   2.0000                                                             
     5  1  1.50       -59.7479   6.0000                                                             
     5  2  2.50        -6.8783  10.0000                                                             
     6  0  0.50        -5.7602   1.0000                                                             
     6  1  1.50        -6.8029   0.0000                                                             
     5  3  2.50        -1.3606   0.0000                                                             
   Description                                                                                      
     l       E           TYP  RCUT    TYP  RCUT                                                     
     2     -6.8782861     23  2.500                                                                 
     2     -8.2388687     23  2.500                                                                 
     0     -5.7601759     23  2.500                                                                 
     0     -0.8493231     23  2.500                                                                 
     1     -2.7211652     23  2.500                                                                 
     1     27.2116520     23  2.500                                                                 
     3     -1.3605826     23  2.500                                                                 
  local pseudopotential read in
  partial core-charges read in
  partial kinetic energy density read in
  atomic valenz-charges read in
  non local Contribution for L=           2  read in
    real space projection operators read in
  non local Contribution for L=           2  read in
    real space projection operators read in
  non local Contribution for L=           0  read in
    real space projection operators read in
  non local Contribution for L=           0  read in
    real space projection operators read in
  non local Contribution for L=           1  read in
    real space projection operators read in
  non local Contribution for L=           1  read in
    real space projection operators read in
    PAW grid and wavefunctions read in
 
   number of l-projection  operators is LMAX  =           6
   number of lm-projection operators is LMMAX =          18
 
 Optimization of the real space projectors (new method)

 maximal supplied QI-value         = 25.13
 optimisation between [QCUT,QGAM] = [ 10.05, 20.36] = [ 28.30,116.06] Ry 
 Optimized for a Real-space Cutoff    1.30 Angstroem

   l    n(q)    QCUT    max X(q) W(low)/X(q) W(high)/X(q)  e(spline) 
   0      8    10.053   115.676    0.49E-03    0.72E-03    0.18E-06
   0      8    10.053    87.132    0.49E-03    0.71E-03    0.18E-06
   1      7    10.053     4.429    0.32E-03    0.31E-03    0.18E-06
   1      7    10.053     2.733    0.23E-03    0.19E-03    0.20E-06
 Optimization of the real space projectors (new method)

 maximal supplied QI-value         = 25.13
 optimisation between [QCUT,QGAM] = [ 10.05, 20.36] = [ 28.30,116.06] Ry 
 Optimized for a Real-space Cutoff    1.65 Angstroem

   l    n(q)    QCUT    max X(q) W(low)/X(q) W(high)/X(q)  e(spline) 
   0     10    10.053    79.467    0.76E-04    0.72E-04    0.56E-06
   0     10    10.053    66.151    0.76E-04    0.72E-04    0.55E-06
   1     10    10.053     8.350    0.25E-03    0.92E-03    0.41E-05
   1     10    10.053     5.531    0.27E-03    0.10E-02    0.45E-05
 Optimization of the real space projectors (new method)

 maximal supplied QI-value         = 15.12
 optimisation between [QCUT,QGAM] = [ 10.13, 20.41] = [ 28.73,116.64] Ry 
 Optimized for a Real-space Cutoff    1.51 Angstroem

   l    n(q)    QCUT    max X(q) W(low)/X(q) W(high)/X(q)  e(spline) 
   2      8    10.129    60.898    0.46E-03    0.46E-03    0.14E-06
   2      8    10.129    58.894    0.47E-03    0.47E-03    0.14E-06
   0      9    10.129   109.617    0.16E-03    0.11E-03    0.54E-07
   0      9    10.129    75.026    0.15E-03    0.11E-03    0.52E-07
   1      9    10.129    16.344    0.96E-04    0.15E-03    0.14E-06
   1      9    10.129    10.160    0.81E-04    0.12E-03    0.11E-06
  PAW_PBE C 08Apr2002                   :
 energy of atom  1       EATOM= -147.1560
 kinetic energy error for atom=    0.0288 (will be added to EATOM!!)
  PAW_PBE N 08Apr2002                   :
 energy of atom  2       EATOM= -264.5486
 kinetic energy error for atom=    0.0736 (will be added to EATOM!!)
  PAW_PBE Au 04Oct2007                  :
 energy of atom  3       EATOM= -926.0867
 kinetic energy error for atom=    0.0062 (will be added to EATOM!!)
 
 
 POSCAR: C  N  Au
  positions in cartesian coordinates
  No initial velocities read in
 exchange correlation table for  LEXCH =        8
   RHO(1)=    0.500       N(1)  =     2000
   RHO(2)=  100.500       N(2)  =     4000

 VTST: version 4.2, (08/11/21)

 CHAIN: initializing optimizer
 
 OPT: Using VASP Conjugate-Gradient optimizer
 CHAIN: Read ICHAIN            0
 
 POSCAR: C  N  Au
  positions in cartesian coordinates
  No initial velocities read in
 


--------------------------------------------------------------------------------------------------------


 ion  position               nearest neighbor table
   1  0.066  0.404  0.133-  25 1.33  27 1.33  31 1.39
   2  0.981  0.234  0.133-  29 1.32  26 1.33  31 1.39
   3  0.226  0.398  0.133-  30 1.33  27 1.33  40 1.48
   4  0.816  0.576  0.134-  44 1.33  45 1.35  32 1.45
   5  0.150  0.234  0.133-  28 1.32  30 1.33  31 1.39
   6  0.905  0.398  0.133-  26 1.33  25 1.33  32 1.47
   7  0.566  0.401  0.133-  35 1.33  33 1.33  39 1.37  57 2.75
   8  0.480  0.233  0.133-  37 1.32  34 1.33  39 1.40
   9  0.727  0.398  0.133-  38 1.33  35 1.35  32 1.45
  10  0.315  0.576  0.134-  53 1.33  52 1.35  40 1.45
  11  0.651  0.233  0.133-  36 1.32  38 1.33  39 1.40
  12  0.404  0.398  0.134-  34 1.33  33 1.35  40 1.45
  13  0.816  0.905  0.133-  43 1.32  41 1.33  47 1.40
  14  0.733  0.736  0.133-  45 1.33  42 1.33  47 1.37  57 2.77
  15  0.977  0.898  0.133-  46 1.34  43 1.34  56 1.46
  16  0.901  0.734  0.133-  46 1.32  44 1.33  47 1.40
  17  0.654  0.899  0.134-  41 1.33  42 1.35  48 1.45
  18  0.315  0.905  0.133-  49 1.32  51 1.33  55 1.40
  19  0.230  0.734  0.133-  50 1.32  53 1.33  55 1.40
  20  0.477  0.899  0.134-  51 1.33  54 1.35  48 1.45
  21  0.398  0.736  0.133-  52 1.33  54 1.33  55 1.37  57 2.74
  22  0.154  0.899  0.133-  50 1.34  49 1.34  56 1.46
  23  0.065  0.077  0.133-  29 1.33  28 1.33  56 1.46
  24  0.566  0.076  0.133-  37 1.34  36 1.34  48 1.46
  25  0.984  0.457  0.133-   1 1.33   6 1.33
  26  0.901  0.290  0.133-   2 1.33   6 1.33
  27  0.147  0.457  0.133-   1 1.33   3 1.33
  28  0.149  0.127  0.133-   5 1.32  23 1.33
  29  0.982  0.127  0.133-   2 1.32  23 1.33
  30  0.231  0.290  0.133-   5 1.33   3 1.33
  31  0.066  0.291  0.133-   1 1.39   5 1.39   2 1.39
  32  0.815  0.458  0.133-   4 1.45   9 1.45   6 1.47
  33  0.485  0.456  0.134-   7 1.33  12 1.35  57 2.36
  34  0.401  0.290  0.134-   8 1.33  12 1.33
  35  0.646  0.456  0.134-   7 1.33   9 1.35  57 2.38
  36  0.649  0.126  0.133-  11 1.32  24 1.34
  37  0.482  0.126  0.133-   8 1.32  24 1.34
  38  0.730  0.290  0.134-  11 1.33   9 1.33
  39  0.566  0.290  0.133-   7 1.37   8 1.40  11 1.40
  40  0.316  0.458  0.133-  10 1.45  12 1.45   3 1.48
  41  0.734  0.956  0.134-  13 1.33  17 1.33
  42  0.652  0.789  0.134-  14 1.33  17 1.35  57 2.38
  43  0.897  0.957  0.133-  13 1.32  15 1.34
  44  0.898  0.627  0.134-  16 1.33   4 1.33
  45  0.732  0.628  0.134-  14 1.33   4 1.35  57 2.39
  46  0.981  0.790  0.133-  16 1.32  15 1.34
  47  0.816  0.792  0.133-  14 1.37  13 1.40  16 1.40
  48  0.565  0.957  0.133-  20 1.45  17 1.45  24 1.46
  49  0.234  0.957  0.133-  18 1.32  22 1.34
  50  0.150  0.790  0.133-  19 1.32  22 1.34
  51  0.397  0.956  0.134-  18 1.33  20 1.33
  52  0.399  0.629  0.134-  21 1.33  10 1.35  57 2.35
  53  0.233  0.627  0.134-  19 1.33  10 1.33
  54  0.479  0.789  0.134-  21 1.33  20 1.35  57 2.36
  55  0.314  0.792  0.133-  21 1.37  18 1.40  19 1.40
  56  0.065  0.958  0.133-  22 1.46  15 1.46  23 1.46
  57  0.564  0.624  0.137-  52 2.35  33 2.36  54 2.36  42 2.38  35 2.38  45 2.39  21 2.74   7 2.75
                            14 2.77
 
  LATTYP: Found a simple orthorhombic cell.
 ALAT       =    12.3019443187
 B/A-ratio  =     1.1547820380
 C/A-ratio  =     1.2193194516
  
  Lattice vectors:
  
 A1 = (   0.0000000000, -12.3019443187,   0.0000000000)
 A2 = (  14.2060643322,   0.0000000000,   0.0000000000)
 A3 = (   0.0000000000,   0.0000000000,  15.0000000000)


Analysis of symmetry for initial positions (statically):
=====================================================================
 Subroutine PRICEL returns:
 Original cell was already a primitive cell.
 

 Routine SETGRP: Setting up the symmetry group for a 
 simple orthorhombic supercell.


 Subroutine GETGRP returns: Found  1 space group operations
 (whereof  1 operations were pure point group operations)
 out of a pool of  8 trial point group operations.


The static configuration has the point symmetry C_1 .


Analysis of symmetry for dynamics (positions and initial velocities):
=====================================================================
 Subroutine PRICEL returns:
 Original cell was already a primitive cell.
 

 Routine SETGRP: Setting up the symmetry group for a 
 simple orthorhombic supercell.


 Subroutine GETGRP returns: Found  1 space group operations
 (whereof  1 operations were pure point group operations)
 out of a pool of  8 trial point group operations.


The dynamic configuration has the point symmetry C_1 .


 Subroutine INISYM returns: Found  1 space group operations
 (whereof  1 operations are pure point group operations),
 and found     1 'primitive' translations


----------------------------------------------------------------------------------------

                                     Primitive cell                                     

  volume of cell :    2621.4332

  direct lattice vectors                    reciprocal lattice vectors
    14.206064332  0.000000000  0.000000000     0.070392473  0.000000000  0.000000000
     0.000000000 12.301944319  0.000000000     0.000000000  0.081287963  0.000000000
     0.000000000  0.000000000 15.000000000     0.000000000  0.000000000  0.066666667

  length of vectors
    14.206064332 12.301944319 15.000000000     0.070392473  0.081287963  0.066666667

  position of ions in fractional coordinates (direct lattice)
     0.065529235  0.404282237  0.133328831
     0.980735063  0.234486534  0.133312505
     0.225968488  0.398007423  0.133326927
     0.815677134  0.575981502  0.133532706
     0.150327391  0.234489072  0.133307555
     0.905105668  0.398012154  0.133328883
     0.565636000  0.400604596  0.133292902
     0.480032749  0.233399150  0.133191182
     0.726999594  0.398166055  0.133491426
     0.315303449  0.576044428  0.133527046
     0.651138453  0.233328856  0.133187340
     0.404179461  0.398309286  0.133528911
     0.815931831  0.905241227  0.133221785
     0.733126834  0.736133884  0.133367616
     0.976534045  0.898492509  0.133309971
     0.901300943  0.734284177  0.133173972
     0.654360767  0.898693939  0.133519079
     0.314963862  0.905446831  0.133200544
     0.229581881  0.734364644  0.133160120
     0.476521177  0.898895762  0.133500490
     0.397654077  0.736413117  0.133290114
     0.154351035  0.898550683  0.133325631
     0.065476293  0.076898475  0.133313670
     0.565525173  0.076362738  0.133314068
     0.983860967  0.456732302  0.133316568
     0.900513234  0.290052123  0.133280115
     0.147218914  0.456730850  0.133304340
     0.148799782  0.126829434  0.133286961
     0.982170530  0.126819644  0.133295271
     0.230593732  0.290044664  0.133283595
     0.065531261  0.291231028  0.133349583
     0.815214505  0.457923502  0.133370479
     0.485379059  0.455962223  0.133727606
     0.400765775  0.290455134  0.133597090
     0.645890395  0.455834349  0.133688615
     0.649158742  0.126118557  0.133419558
     0.481927033  0.126180434  0.133408328
     0.730446883  0.290290815  0.133578592
     0.565590134  0.289633462  0.132592387
     0.315901674  0.458006144  0.133387856
     0.733551173  0.956139981  0.133617287
     0.651569445  0.788863889  0.133722144
     0.897217997  0.957091439  0.133441068
     0.898348406  0.626533913  0.133512795
     0.731943047  0.628297315  0.133848471
     0.980717750  0.789927915  0.133385637
     0.816444021  0.791705291  0.132653305
     0.565463827  0.957298147  0.133351265
     0.233655124  0.957193320  0.133468823
     0.150161843  0.789980794  0.133438657
     0.397333924  0.956353629  0.133639266
     0.399002064  0.628553289  0.133811538
     0.232638641  0.626608723  0.133556841
     0.479195328  0.789086106  0.133666598
     0.314416586  0.791891828  0.132532095
     0.065443803  0.957877428  0.133311231
     0.564130240  0.624365632  0.137312762

  ion indices of the primitive-cell ions
   primitive index   ion index
                 1           1
                 2           2
                 3           3
                 4           4
                 5           5
                 6           6
                 7           7
                 8           8
                 9           9
                10          10
                11          11
                12          12
                13          13
                14          14
                15          15
                16          16
                17          17
                18          18
                19          19
                20          20
                21          21
                22          22
                23          23
                24          24
                25          25
                26          26
                27          27
                28          28
                29          29
                30          30
                31          31
                32          32
                33          33
                34          34
                35          35
                36          36
                37          37
                38          38
                39          39
                40          40
                41          41
                42          42
                43          43
                44          44
                45          45
                46          46
                47          47
                48          48
                49          49
                50          50
                51          51
                52          52
                53          53
                54          54
                55          55
                56          56
                57          57

----------------------------------------------------------------------------------------

 
 
 KPOINTS: K-POINTS                                

Automatic generation of k-mesh.
 Grid dimensions read from file:
 generate k-points for:    2    2    1

 Generating k-lattice:

  Cartesian coordinates                     Fractional coordinates (reciprocal lattice)
     0.035196237  0.000000000  0.000000000     0.500000000  0.000000000  0.000000000
     0.000000000  0.040643982  0.000000000     0.000000000  0.500000000  0.000000000
     0.000000000  0.000000000  0.066666667     0.000000000  0.000000000  1.000000000

  Length of vectors
     0.035196237  0.040643982  0.066666667

  Shift w.r.t. Gamma in fractional coordinates (k-lattice)
     0.000000000  0.000000000  0.000000000

 
 Subroutine IBZKPT returns following result:
 ===========================================
 
 Found      4 irreducible k-points:
 
 Following reciprocal coordinates:
            Coordinates               Weight
  0.000000  0.000000  0.000000      1.000000
  0.500000  0.000000  0.000000      1.000000
  0.000000  0.500000  0.000000      1.000000
  0.500000  0.500000  0.000000      1.000000
 
 Following cartesian coordinates:
            Coordinates               Weight
  0.000000  0.000000  0.000000      1.000000
  0.035196  0.000000  0.000000      1.000000
  0.000000  0.040644  0.000000      1.000000
  0.035196  0.040644  0.000000      1.000000
 


--------------------------------------------------------------------------------------------------------




 Dimension of arrays:
   k-points           NKPTS =      4   k-points in BZ     NKDIM =      4   number of bands    NBANDS=    164
   number of dos      NEDOS =    301   number of ions     NIONS =     57
   non local maximal  LDIM  =      6   non local SUM 2l+1 LMDIM =     18
   total plane-waves  NPLWV = 336000
   max r-space proj   IRMAX =   2454   max aug-charges    IRDMAX=   8037
   dimension x,y,z NGX =    70 NGY =   60 NGZ =   80
   dimension x,y,z NGXF=   140 NGYF=  120 NGZF=  160
   support grid    NGXF=   140 NGYF=  120 NGZF=  160
   ions per type =              24  32   1
   NGX,Y,Z   is equivalent  to a cutoff of   8.19,  8.11,  8.87 a.u.
   NGXF,Y,Z  is equivalent  to a cutoff of  16.38, 16.22, 17.73 a.u.

 SYSTEM =  slab_Cel1-OPT                           
 POSCAR =  C  N  Au                                

 Startparameter for this run:
   NWRITE =      2    write-flag & timer
   PREC   = n         normal or accurate (medium, high low for compatibility)
   ISTART =      0    job   : 0-new  1-cont  2-samecut
   ICHARG =      2    charge: 1-file 2-atom 10-const
   ISPIN  =      1    spin polarized calculation?
   LNONCOLLINEAR =      F non collinear calculations
   LSORBIT =      F    spin-orbit coupling
   INIWAV =      1    electr: 0-lowe 1-rand  2-diag
   LASPH  =      F    aspherical Exc in radial PAW
 Electronic Relaxation 1
   ENCUT  =  400.0 eV  29.40 Ry    5.42 a.u.  23.17 20.06 24.46*2*pi/ulx,y,z
   ENINI  =  400.0     initial cutoff
   ENAUG  =  644.9 eV  augmentation charge cutoff
   NELM   =    200;   NELMIN=  2; NELMDL= -5     # of ELM steps 
   EDIFF  = 0.1E-04   stopping-criterion for ELM
   LREAL  =      T    real-space projection
   NLSPLINE    = F    spline interpolate recip. space projectors
   LCOMPAT=      F    compatible to vasp.4.4
   GGA_COMPAT  = T    GGA compatible to vasp.4.4-vasp.4.6
   LMAXPAW     = -100 max onsite density
   LMAXMIX     =    2 max onsite mixed and CHGCAR
   VOSKOWN=      0    Vosko Wilk Nusair interpolation
   ROPT   =   -0.00050  -0.00050  -0.00050
 Ionic relaxation
   EDIFFG = -.5E-01   stopping-criterion for IOM
   NSW    =   1000    number of steps for IOM
   NBLOCK =      1;   KBLOCK =   1000    inner block; outer block 
   IBRION =      2    ionic relax: 0-MD 1-quasi-New 2-CG
   NFREE  =      1    steps in history (QN), initial steepest desc. (CG)
   ISIF   =      3    stress and relaxation
   IWAVPR =     11    prediction:  0-non 1-charg 2-wave 3-comb
   ISYM   =      2    0-nonsym 1-usesym 2-fastsym
   LCORR  =      T    Harris-Foulkes like correction to forces

   POTIM  = 0.1000    time-step for ionic-motion
   TEIN   =    0.0    initial temperature
   TEBEG  =    0.0;   TEEND  =   0.0 temperature during run
   SMASS  =  -3.00    Nose mass-parameter (am)
   estimated Nose-frequenzy (Omega)   =  0.10E-29 period in steps = 0.63E+47 mass=  -0.461E-26a.u.
   SCALEE = 1.0000    scale energy and forces
   NPACO  =    256;   APACO  = 10.0  distance and # of slots for P.C.
   PSTRESS=    0.0 pullay stress

  Mass of Ions in am
   POMASS =  12.01 14.00196.97
  Ionic Valenz
   ZVAL   =   4.00  5.00 11.00
  Atomic Wigner-Seitz radii
   RWIGS  =  -1.00 -1.00 -1.00
  virtual crystal weights 
   VCA    =   1.00  1.00  1.00
   NELECT =     267.0000    total number of electrons
   NUPDOWN=      -1.0000    fix difference up-down

 DOS related values:
   EMIN   =  10.00;   EMAX   =-10.00  energy-range for DOS
   EFERMI =   0.00
   ISMEAR =     0;   SIGMA  =   0.10  broadening in eV -4-tet -1-fermi 0-gaus

 Electronic relaxation 2 (details)
   IALGO  =     38    algorithm
   LDIAG  =      T    sub-space diagonalisation (order eigenvalues)
   LSUBROT=      F    optimize rotation matrix (better conditioning)
   TURBO    =      0    0=normal 1=particle mesh
   IRESTART =      0    0=no restart 2=restart with 2 vectors
   NREBOOT  =      0    no. of reboots
   NMIN     =      0    reboot dimension
   EREF     =   0.00    reference energy to select bands
   IMIX   =      4    mixing-type and parameters
     AMIX     =   0.40;   BMIX     =  1.00
     AMIX_MAG =   1.60;   BMIX_MAG =  1.00
     AMIN     =   0.10
     WC   =   100.;   INIMIX=   1;  MIXPRE=   1;  MAXMIX= -45

 Intra band minimization:
   WEIMIN = 0.0010     energy-eigenvalue tresh-hold
   EBREAK =  0.15E-07  absolut break condition
   DEPER  =   0.30     relativ break condition  

   TIME   =   0.40     timestep for ELM

  volume/ion in A,a.u.               =      45.99       310.36
  Fermi-wavevector in a.u.,A,eV,Ry     =   0.764538  1.444767  7.952852  0.584518
  Thomas-Fermi vector in A             =   1.864461
 
 Write flags
   LWAVE        =      F    write WAVECAR
   LDOWNSAMPLE  =      F    k-point downsampling of WAVECAR
   LCHARG       =      F    write CHGCAR
   LVTOT        =      F    write LOCPOT, total local potential
   LVHAR        =      F    write LOCPOT, Hartree potential only
   LELF         =      F    write electronic localiz. function (ELF)
   LORBIT       =      0    0 simple, 1 ext, 2 COOP (PROOUT), +10 PAW based schemes


 Dipole corrections
   LMONO  =      F    monopole corrections only (constant potential shift)
   LDIPOL =      T    correct potential (dipole corrections)
   IDIPOL =      3    1-x, 2-y, 3-z, 4-all directions 
   EPSILON=  1.0000000 bulk dielectric constant

 Exchange correlation treatment:
   GGA     =    --    GGA type
   LEXCH   =     8    internal setting for exchange type
   LIBXC   =     F    Libxc                    
   VOSKOWN =     0    Vosko Wilk Nusair interpolation
   LHFCALC =     F    Hartree Fock is set to
   LHFONE  =     F    Hartree Fock one center treatment
   AEXX    =    0.0000 exact exchange contribution

 Linear response parameters
   LEPSILON=     F    determine dielectric tensor
   LRPA    =     F    only Hartree local field effects (RPA)
   LNABLA  =     F    use nabla operator in PAW spheres
   LVEL    =     F    velocity operator in full k-point grid
   CSHIFT  =0.1000    complex shift for real part using Kramers Kronig
   OMEGAMAX=  -1.0    maximum frequency
   DEG_THRESHOLD= 0.2000000E-02 threshold for treating states as degnerate
   RTIME   =   -0.100 relaxation time in fs
  (WPLASMAI=    0.000 imaginary part of plasma frequency in eV, 0.658/RTIME)
   DFIELD  = 0.0000000 0.0000000 0.0000000 field for delta impulse in time
 
  Optional k-point grid parameters
   LKPOINTS_OPT  =     F    use optional k-point grid
   KPOINTS_OPT_MODE=     1    mode for optional k-point grid
 
 Orbital magnetization related:
   ORBITALMAG=     F  switch on orbital magnetization
   LCHIMAG   =     F  perturbation theory with respect to B field
   DQ        =  0.001000  dq finite difference perturbation B field
   LLRAUG    =     F  two centre corrections for induced B field



--------------------------------------------------------------------------------------------------------


 conjugate gradient relaxation of ions
 charge density and potential will be updated during run
 non-spin polarized calculation
 Variant of blocked Davidson
 Davidson routine will perform the subspace rotation
 perform sub-space diagonalisation
    after iterative eigenvector-optimisation
 modified Broyden-mixing scheme, WC =      100.0
 initial mixing is a Kerker type mixing with AMIX =  0.4000 and BMIX =      1.0000
 Hartree-type preconditioning will be used
 using additional bands           30
 real space projection scheme for non local part
 use partial core corrections
 calculate Harris-corrections to forces 
   (improved forces if not selfconsistent)
 use gradient corrections 
 use of overlap-Matrix (Vanderbilt PP)
 Gauss-broadening in eV      SIGMA  =   0.10


--------------------------------------------------------------------------------------------------------


  energy-cutoff  :      400.00
  volume of cell :     2621.43
      direct lattice vectors                 reciprocal lattice vectors
    14.206064332  0.000000000  0.000000000     0.070392473  0.000000000  0.000000000
     0.000000000 12.301944319  0.000000000     0.000000000  0.081287963  0.000000000
     0.000000000  0.000000000 15.000000000     0.000000000  0.000000000  0.066666667

  length of vectors
    14.206064332 12.301944319 15.000000000     0.070392473  0.081287963  0.066666667


 
 k-points in units of 2pi/SCALE and weight: K-POINTS                                
   0.00000000  0.00000000  0.00000000       0.250
   0.03519624  0.00000000  0.00000000       0.250
   0.00000000  0.04064398  0.00000000       0.250
   0.03519624  0.04064398  0.00000000       0.250
 
 k-points in reciprocal lattice and weights: K-POINTS                                
   0.00000000  0.00000000  0.00000000       0.250
   0.50000000  0.00000000  0.00000000       0.250
   0.00000000  0.50000000  0.00000000       0.250
   0.50000000  0.50000000  0.00000000       0.250
 
 position of ions in fractional coordinates (direct lattice) 
   0.06552924  0.40428224  0.13332883
   0.98073506  0.23448653  0.13331251
   0.22596849  0.39800742  0.13332693
   0.81567713  0.57598150  0.13353271
   0.15032739  0.23448907  0.13330756
   0.90510567  0.39801215  0.13332888
   0.56563600  0.40060460  0.13329290
   0.48003275  0.23339915  0.13319118
   0.72699959  0.39816605  0.13349143
   0.31530345  0.57604443  0.13352705
   0.65113845  0.23332886  0.13318734
   0.40417946  0.39830929  0.13352891
   0.81593183  0.90524123  0.13322179
   0.73312683  0.73613388  0.13336762
   0.97653404  0.89849251  0.13330997
   0.90130094  0.73428418  0.13317397
   0.65436077  0.89869394  0.13351908
   0.31496386  0.90544683  0.13320054
   0.22958188  0.73436464  0.13316012
   0.47652118  0.89889576  0.13350049
   0.39765408  0.73641312  0.13329011
   0.15435104  0.89855068  0.13332563
   0.06547629  0.07689847  0.13331367
   0.56552517  0.07636274  0.13331407
   0.98386097  0.45673230  0.13331657
   0.90051323  0.29005212  0.13328011
   0.14721891  0.45673085  0.13330434
   0.14879978  0.12682943  0.13328696
   0.98217053  0.12681964  0.13329527
   0.23059373  0.29004466  0.13328360
   0.06553126  0.29123103  0.13334958
   0.81521451  0.45792350  0.13337048
   0.48537906  0.45596222  0.13372761
   0.40076577  0.29045513  0.13359709
   0.64589040  0.45583435  0.13368861
   0.64915874  0.12611856  0.13341956
   0.48192703  0.12618043  0.13340833
   0.73044688  0.29029081  0.13357859
   0.56559013  0.28963346  0.13259239
   0.31590167  0.45800614  0.13338786
   0.73355117  0.95613998  0.13361729
   0.65156945  0.78886389  0.13372214
   0.89721800  0.95709144  0.13344107
   0.89834841  0.62653391  0.13351279
   0.73194305  0.62829732  0.13384847
   0.98071775  0.78992791  0.13338564
   0.81644402  0.79170529  0.13265331
   0.56546383  0.95729815  0.13335126
   0.23365512  0.95719332  0.13346882
   0.15016184  0.78998079  0.13343866
   0.39733392  0.95635363  0.13363927
   0.39900206  0.62855329  0.13381154
   0.23263864  0.62660872  0.13355684
   0.47919533  0.78908611  0.13366660
   0.31441659  0.79189183  0.13253209
   0.06544380  0.95787743  0.13331123
   0.56413024  0.62436563  0.13731276
 
 position of ions in cartesian coordinates  (Angst):
   0.93091253  4.97345757  1.99993246
  13.93238540  2.88464028  1.99968758
   3.21012288  4.89626515  1.99990391
  11.58756184  7.08569236  2.00299060
   2.13556059  2.88467151  1.99961333
  12.85798934  4.89632336  1.99993325
   8.03546141  4.92821543  1.99939354
   6.81937611  2.87126335  1.99786773
  10.32780300  4.89821664  2.00237138
   4.47922107  7.08646647  2.00290568
   9.25011475  2.87039860  1.99781009
   5.74179943  4.89997866  2.00293366
  11.59118008 11.13622717  1.99832678
  10.41484697  9.05587805  2.00051424
  13.87270546 11.05320482  1.99964956
  12.80393918  9.03312305  1.99760958
   9.29589115 11.05568280  2.00278619
   4.47439688 11.13875650  1.99800817
   3.26145497  9.03411296  1.99740180
   6.76949050 11.05816561  2.00250735
   5.64909941  9.05931316  1.99935171
   2.19272074 11.05392047  1.99988447
   0.93016043  0.94600075  1.99970505
   8.03388699  0.93941015  1.99971102
  13.97679220  5.61869535  1.99974852
  12.79274893  3.56820507  1.99920172
   2.09140136  5.61867749  1.99956510
   2.11385928  1.56024864  1.99930442
  13.95277773  1.56012820  1.99942906
   3.27582939  3.56811331  1.99925393
   0.93094132  3.58270789  2.00024375
  11.58098971  5.63334942  2.00055718
   6.89532614  5.60922188  2.00591409
   5.69330438  3.57316288  2.00395636
   9.17556051  5.60764878  2.00532922
   9.22199085  1.55150347  2.00129337
   6.84628644  1.55226467  2.00112492
  10.37677540  3.57114144  2.00367887
   8.03480983  3.56305472  1.98888580
   4.48771951  5.63436608  2.00081784
  10.42087515 11.76238081  2.00425930
   9.25623745  9.70455963  2.00583217
  12.74593658 11.77408559  2.00161602
  12.76199524  7.70758531  2.00269192
  10.39803001  7.72927859  2.00772706
  13.93213945  9.71764922  2.00078455
  11.59845628  9.73951441  1.98979958
   8.03301551 11.77662850  2.00026897
   3.31931973 11.77533893  2.00203234
   2.13320880  9.71829974  2.00157985
   5.64455129 11.76500909  2.00458900
   5.66824898  7.73242756  2.00717307
   3.30487950  7.70850563  2.00335261
   6.80747966  9.70729334  2.00499897
   4.46662225  9.74180917  1.98798142
   0.92969887 11.78375478  1.99966847
   8.01407048  7.68091124  2.05969143
 


--------------------------------------------------------------------------------------------------------


 k-point   1 :   0.0000 0.0000 0.0000  plane waves:   47567
 k-point   2 :   0.5000 0.0000 0.0000  plane waves:   47614
 k-point   3 :   0.0000 0.5000 0.0000  plane waves:   47620
 k-point   4 :   0.5000 0.5000 0.0000  plane waves:   47640

 maximum and minimum number of plane-waves per node :      3998     3933

 maximum number of plane-waves:     47640
 maximum index in each direction: 
   IXMAX=   23   IYMAX=   20   IZMAX=   24
   IXMIN=  -23   IYMIN=  -20   IZMIN=  -24


 real space projection operators:
  total allocation   :       6645.84 KBytes
  max/ min on nodes  :        584.17        476.72


 parallel 3D FFT for wavefunctions:
    minimum data exchange during FFTs selected (reduces bandwidth)
 parallel 3D FFT for charge:
    minimum data exchange during FFTs selected (reduces bandwidth)


 total amount of memory used by VASP MPI-rank0    51476. kBytes
=======================================================================

   base      :      30000. kBytes
   nonlr-proj:       3043. kBytes
   fftplans  :       2857. kBytes
   grid      :       4878. kBytes
   one-center:         77. kBytes
   wavefun   :      10621. kBytes
 
     INWAV:  cpu time      0.0000: real time      0.0000
 Broyden mixing: mesh for mixing (old mesh)
   NGX = 47   NGY = 41   NGZ = 49
  (NGX  =140   NGY  =120   NGZ  =160)
  gives a total of  94423 points

 initial charge density was supplied:
 charge density of overlapping atoms calculated
 number of electron     267.0000000 magnetization 
 keeping initial charge density in first step


--------------------------------------------------------------------------------------------------------


 Maximum index for non-local projection operator          236
 Maximum index for augmentation-charges          147 (set IRDMAX)


--------------------------------------------------------------------------------------------------------


 First call to EWALD:  gamma=   0.129
 Maximum number of real-space cells 3x 3x 3
 Maximum number of reciprocal cells 3x 3x 3

    FEWALD:  cpu time      0.0027: real time      0.0027


--------------------------------------- Iteration      1(   1)  ---------------------------------------


    POTLOK:  cpu time      0.0352: real time      0.0387
    SETDIJ:  cpu time      0.0035: real time      0.0052
     EDDAV:  cpu time      1.7128: real time      1.7151
       DOS:  cpu time      0.0008: real time      0.0008
    --------------------------------------------
      LOOP:  cpu time      1.7523: real time      1.7597

 eigenvalue-minimisations  :  1536
 total energy-change (2. order) : 0.2449192E+04  (-0.9346761E+04)
 number of electron     267.0000000 magnetization 
 augmentation part      267.0000000 magnetization 

 DIPCOR: dipole corrections for dipol
 direction  3 min pos   110,
 dipolmoment           0.000000      0.000000      0.000440 electrons x Angstroem
 Tr[quadrupol]     -8076.013849

 energy correction for charged system         0.000000 eV
 dipol+quadrupol energy correction           -0.000000 eV
 added-field ion interaction          0.006110 eV  (added to PSCEN)


 Free energy of the ion-electron system (eV)
  ---------------------------------------------------
  alpha Z        PSCENC =       131.22751481
  Ewald energy   TEWEN  =     28039.58296201
  -Hartree energ DENC   =    -38355.09308442
  -exchange      EXHF   =         0.00000000
  -V(xc)+E(xc)   XCENC  =       971.42810703
  PAW double counting   =     10036.47402805   -10065.16388987
  entropy T*S    EENTRO =        -0.08770196
  eigenvalues    EBANDS =     -1229.50977644
  atomic energy  EATOM  =     12920.33396893
  Solvation  Ediel_sol  =         0.00000000
  ---------------------------------------------------
  free energy    TOTEN  =      2449.19212814 eV

  energy without entropy =     2449.27983010  energy(sigma->0) =     2449.23597912


--------------------------------------------------------------------------------------------------------




--------------------------------------- Iteration      1(   2)  ---------------------------------------


     EDDAV:  cpu time      1.9588: real time      1.9600
       DOS:  cpu time      0.0006: real time      0.0006
    --------------------------------------------
      LOOP:  cpu time      1.9594: real time      1.9607

 eigenvalue-minimisations  :  1912
 total energy-change (2. order) :-0.2435575E+04  (-0.2320951E+04)
 number of electron     267.0000000 magnetization 
 augmentation part      267.0000000 magnetization 

 DIPCOR: dipole corrections for dipol
 direction  3 min pos   110,
 dipolmoment           0.000000      0.000000      0.000440 electrons x Angstroem
 Tr[quadrupol]     -8076.013849

 energy correction for charged system         0.000000 eV
 dipol+quadrupol energy correction           -0.000000 eV
 added-field ion interaction          0.006110 eV  (added to PSCEN)


 Free energy of the ion-electron system (eV)
  ---------------------------------------------------
  alpha Z        PSCENC =       131.22751481
  Ewald energy   TEWEN  =     28039.58296201
  -Hartree energ DENC   =    -38355.09308442
  -exchange      EXHF   =         0.00000000
  -V(xc)+E(xc)   XCENC  =       971.42810703
  PAW double counting   =     10036.47402805   -10065.16388987
  entropy T*S    EENTRO =        -0.02301757
  eigenvalues    EBANDS =     -3665.14916364
  atomic energy  EATOM  =     12920.33396893
  Solvation  Ediel_sol  =         0.00000000
  ---------------------------------------------------
  free energy    TOTEN  =        13.61742533 eV

  energy without entropy =       13.64044290  energy(sigma->0) =       13.62893411


--------------------------------------------------------------------------------------------------------




--------------------------------------- Iteration      1(   3)  ---------------------------------------


     EDDAV:  cpu time      1.7031: real time      1.7036
       DOS:  cpu time      0.0011: real time      0.0011
    --------------------------------------------
      LOOP:  cpu time      1.7042: real time      1.7047

 eigenvalue-minimisations  :  1600
 total energy-change (2. order) :-0.5035694E+03  (-0.4980665E+03)
 number of electron     267.0000000 magnetization 
 augmentation part      267.0000000 magnetization 

 DIPCOR: dipole corrections for dipol
 direction  3 min pos   110,
 dipolmoment           0.000000      0.000000      0.000440 electrons x Angstroem
 Tr[quadrupol]     -8076.013849

 energy correction for charged system         0.000000 eV
 dipol+quadrupol energy correction           -0.000000 eV
 added-field ion interaction          0.006110 eV  (added to PSCEN)


 Free energy of the ion-electron system (eV)
  ---------------------------------------------------
  alpha Z        PSCENC =       131.22751481
  Ewald energy   TEWEN  =     28039.58296201
  -Hartree energ DENC   =    -38355.09308442
  -exchange      EXHF   =         0.00000000
  -V(xc)+E(xc)   XCENC  =       971.42810703
  PAW double counting   =     10036.47402805   -10065.16388987
  entropy T*S    EENTRO =        -0.08246546
  eigenvalues    EBANDS =     -4168.65908123
  atomic energy  EATOM  =     12920.33396893
  Solvation  Ediel_sol  =         0.00000000
  ---------------------------------------------------
  free energy    TOTEN  =      -489.95194016 eV

  energy without entropy =     -489.86947470  energy(sigma->0) =     -489.91070743


--------------------------------------------------------------------------------------------------------




--------------------------------------- Iteration      1(   4)  ---------------------------------------


     EDDAV:  cpu time      1.6875: real time      1.6909
       DOS:  cpu time      0.0006: real time      0.0006
    --------------------------------------------
      LOOP:  cpu time      1.6881: real time      1.6915

 eigenvalue-minimisations  :  1528
 total energy-change (2. order) :-0.1771006E+02  (-0.1711494E+02)
 number of electron     267.0000000 magnetization 
 augmentation part      267.0000000 magnetization 

 DIPCOR: dipole corrections for dipol
 direction  3 min pos   110,
 dipolmoment           0.000000      0.000000      0.000440 electrons x Angstroem
 Tr[quadrupol]     -8076.013849

 energy correction for charged system         0.000000 eV
 dipol+quadrupol energy correction           -0.000000 eV
 added-field ion interaction          0.006110 eV  (added to PSCEN)


 Free energy of the ion-electron system (eV)
  ---------------------------------------------------
  alpha Z        PSCENC =       131.22751481
  Ewald energy   TEWEN  =     28039.58296201
  -Hartree energ DENC   =    -38355.09308442
  -exchange      EXHF   =         0.00000000
  -V(xc)+E(xc)   XCENC  =       971.42810703
  PAW double counting   =     10036.47402805   -10065.16388987
  entropy T*S    EENTRO =        -0.10196823
  eigenvalues    EBANDS =     -4186.34963601
  atomic energy  EATOM  =     12920.33396893
  Solvation  Ediel_sol  =         0.00000000
  ---------------------------------------------------
  free energy    TOTEN  =      -507.66199771 eV

  energy without entropy =     -507.56002947  energy(sigma->0) =     -507.61101359


--------------------------------------------------------------------------------------------------------




--------------------------------------- Iteration      1(   5)  ---------------------------------------


     EDDAV:  cpu time      1.8469: real time      1.8492
       DOS:  cpu time      0.0007: real time      0.0007
    CHARGE:  cpu time      0.0451: real time      0.0452
    MIXING:  cpu time      0.0020: real time      0.0022
    --------------------------------------------
      LOOP:  cpu time      1.8947: real time      1.8972

 eigenvalue-minimisations  :  1792
 total energy-change (2. order) :-0.6655032E+00  (-0.6567964E+00)
 number of electron     266.9999885 magnetization 
 augmentation part       15.3039613 magnetization 

 DIPCOR: dipole corrections for dipol
 direction  3 min pos   110,
 dipolmoment           0.000000      0.000000      0.000440 electrons x Angstroem
 Tr[quadrupol]     -8076.013849

 energy correction for charged system         0.000000 eV
 dipol+quadrupol energy correction           -0.000000 eV
 added-field ion interaction          0.006110 eV  (added to PSCEN)


 Broyden mixing:
  rms(total) = 0.41983E+01    rms(broyden)= 0.41945E+01
  rms(prec ) = 0.46363E+01
  weight for this iteration     100.00

 Free energy of the ion-electron system (eV)
  ---------------------------------------------------
  alpha Z        PSCENC =       131.22751481
  Ewald energy   TEWEN  =     28039.58296201
  -Hartree energ DENC   =    -38355.09308442
  -exchange      EXHF   =         0.00000000
  -V(xc)+E(xc)   XCENC  =       971.42810703
  PAW double counting   =     10036.47402805   -10065.16388987
  entropy T*S    EENTRO =        -0.10186943
  eigenvalues    EBANDS =     -4187.01523797
  atomic energy  EATOM  =     12920.33396893
  Solvation  Ediel_sol  =         0.00000000
  ---------------------------------------------------
  free energy    TOTEN  =      -508.32750087 eV

  energy without entropy =     -508.22563144  energy(sigma->0) =     -508.27656615


--------------------------------------------------------------------------------------------------------




--------------------------------------- Iteration      1(   6)  ---------------------------------------


    POTLOK:  cpu time      0.0304: real time      0.0308
    SETDIJ:  cpu time      0.0033: real time      0.0049
     EDDAV:  cpu time      1.6070: real time      1.6077
       DOS:  cpu time      0.0007: real time      0.0006
    CHARGE:  cpu time      0.0436: real time      0.0436
    MIXING:  cpu time      0.0015: real time      0.0015
    --------------------------------------------
      LOOP:  cpu time      1.6864: real time      1.6892

 eigenvalue-minimisations  :  1520
 total energy-change (2. order) : 0.3173552E+02  (-0.9488877E+01)
 number of electron     266.9999861 magnetization 
 augmentation part       14.0776414 magnetization 

 DIPCOR: dipole corrections for dipol
 direction  3 min pos   110,
 dipolmoment           0.000000      0.000000     -0.056635 electrons x Angstroem
 Tr[quadrupol]     -8077.320257

 energy correction for charged system         0.000000 eV
 dipol+quadrupol energy correction           -0.000117 eV
 added-field ion interaction         -0.786387 eV  (added to PSCEN)


 Broyden mixing:
  rms(total) = 0.23052E+01    rms(broyden)= 0.23043E+01
  rms(prec ) = 0.24091E+01
  weight for this iteration     100.00

 eigenvalues of (default mixing * dielectric matrix)
  average eigenvalue GAMMA=   1.2437
  1.2437

 Free energy of the ion-electron system (eV)
  ---------------------------------------------------
  alpha Z        PSCENC =       130.43490146
  Ewald energy   TEWEN  =     28039.58296201
  -Hartree energ DENC   =    -38692.24125673
  -exchange      EXHF   =         0.00000000
  -V(xc)+E(xc)   XCENC  =       990.05325788
  PAW double counting   =     15847.70999889   -15882.37816557
  entropy T*S    EENTRO =        -0.07237608
  eigenvalues    EBANDS =     -3830.01526985
  atomic energy  EATOM  =     12920.33396893
  Solvation  Ediel_sol  =         0.00000000
  ---------------------------------------------------
  free energy    TOTEN  =      -476.59197907 eV

  energy without entropy =     -476.51960299  energy(sigma->0) =     -476.55579103


--------------------------------------------------------------------------------------------------------




--------------------------------------- Iteration      1(   7)  ---------------------------------------


    POTLOK:  cpu time      0.0297: real time      0.0298
    SETDIJ:  cpu time      0.0033: real time      0.0033
     EDDAV:  cpu time      1.6482: real time      1.6482
       DOS:  cpu time      0.0006: real time      0.0006
    CHARGE:  cpu time      0.0450: real time      0.0450
    MIXING:  cpu time      0.0014: real time      0.0014
    --------------------------------------------
      LOOP:  cpu time      1.7281: real time      1.7283

 eigenvalue-minimisations  :  1536
 total energy-change (2. order) : 0.3483624E+01  (-0.1212155E+01)
 number of electron     266.9999861 magnetization 
 augmentation part       13.9360225 magnetization 

 DIPCOR: dipole corrections for dipol
 direction  3 min pos   104,
 dipolmoment           0.000000      0.000000     -0.018289 electrons x Angstroem
 Tr[quadrupol]     -8078.481449

 energy correction for charged system         0.000000 eV
 dipol+quadrupol energy correction           -0.000012 eV
 added-field ion interaction         -0.054351 eV  (added to PSCEN)


 Broyden mixing:
  rms(total) = 0.12887E+01    rms(broyden)= 0.12885E+01
  rms(prec ) = 0.13395E+01
  weight for this iteration     100.00

 eigenvalues of (default mixing * dielectric matrix)
  average eigenvalue GAMMA=   1.5987
  1.0301  2.1672

 Free energy of the ion-electron system (eV)
  ---------------------------------------------------
  alpha Z        PSCENC =       131.16704258
  Ewald energy   TEWEN  =     28039.58296201
  -Hartree energ DENC   =    -38873.04337400
  -exchange      EXHF   =         0.00000000
  -V(xc)+E(xc)   XCENC  =       997.49072349
  PAW double counting   =     21301.21986523   -21338.66039253
  entropy T*S    EENTRO =        -0.07508558
  eigenvalues    EBANDS =     -3651.12406544
  atomic energy  EATOM  =     12920.33396893
  Solvation  Ediel_sol  =         0.00000000
  ---------------------------------------------------
  free energy    TOTEN  =      -473.10835533 eV

  energy without entropy =     -473.03326974  energy(sigma->0) =     -473.07081254


--------------------------------------------------------------------------------------------------------




--------------------------------------- Iteration      1(   8)  ---------------------------------------


    POTLOK:  cpu time      0.0307: real time      0.0322
    SETDIJ:  cpu time      0.0028: real time      0.0044
     EDDAV:  cpu time      1.6446: real time      1.6448
       DOS:  cpu time      0.0007: real time      0.0007
    CHARGE:  cpu time      0.0441: real time      0.0441
    MIXING:  cpu time      0.0014: real time      0.0014
    --------------------------------------------
      LOOP:  cpu time      1.7243: real time      1.7275

 eigenvalue-minimisations  :  1488
 total energy-change (2. order) : 0.1189627E+01  (-0.3808886E+00)
 number of electron     266.9999865 magnetization 
 augmentation part       13.8585118 magnetization 

 DIPCOR: dipole corrections for dipol
 direction  3 min pos   107,
 dipolmoment           0.000000      0.000000     -0.048001 electrons x Angstroem
 Tr[quadrupol]     -8079.999837

 energy correction for charged system         0.000000 eV
 dipol+quadrupol energy correction           -0.000084 eV
 added-field ion interaction         -0.404575 eV  (added to PSCEN)


 Broyden mixing:
  rms(total) = 0.31871E+00    rms(broyden)= 0.31851E+00
  rms(prec ) = 0.35413E+00
  weight for this iteration     100.00

 eigenvalues of (default mixing * dielectric matrix)
  average eigenvalue GAMMA=   1.5194
  2.4806  1.0388  1.0388

 Free energy of the ion-electron system (eV)
  ---------------------------------------------------
  alpha Z        PSCENC =       130.81674664
  Ewald energy   TEWEN  =     28039.58296201
  -Hartree energ DENC   =    -39027.95364695
  -exchange      EXHF   =         0.00000000
  -V(xc)+E(xc)   XCENC  =      1003.20314623
  PAW double counting   =     27355.26096021   -27395.30774862
  entropy T*S    EENTRO =        -0.06966519
  eigenvalues    EBANDS =     -3497.78545159
  atomic energy  EATOM  =     12920.33396893
  Solvation  Ediel_sol  =         0.00000000
  ---------------------------------------------------
  free energy    TOTEN  =      -471.91872832 eV

  energy without entropy =     -471.84906313  energy(sigma->0) =     -471.88389572


--------------------------------------------------------------------------------------------------------




--------------------------------------- Iteration      1(   9)  ---------------------------------------


    POTLOK:  cpu time      0.0306: real time      0.0324
    SETDIJ:  cpu time      0.0030: real time      0.0045
     EDDAV:  cpu time      1.7120: real time      1.7200
       DOS:  cpu time      0.0006: real time      0.0006
    CHARGE:  cpu time      0.0530: real time      0.0530
    MIXING:  cpu time      0.0013: real time      0.0013
    --------------------------------------------
      LOOP:  cpu time      1.8005: real time      1.8118

 eigenvalue-minimisations  :  1648
 total energy-change (2. order) : 0.1254914E+00  (-0.3985627E-01)
 number of electron     266.9999864 magnetization 
 augmentation part       13.7962315 magnetization 

 DIPCOR: dipole corrections for dipol
 direction  3 min pos   108,
 dipolmoment           0.000000      0.000000     -0.038347 electrons x Angstroem
 Tr[quadrupol]     -8080.784752

 energy correction for charged system         0.000000 eV
 dipol+quadrupol energy correction           -0.000053 eV
 added-field ion interaction         -0.392953 eV  (added to PSCEN)


 Broyden mixing:
  rms(total) = 0.11915E+00    rms(broyden)= 0.11898E+00
  rms(prec ) = 0.15508E+00
  weight for this iteration     100.00

 eigenvalues of (default mixing * dielectric matrix)
  average eigenvalue GAMMA=   1.4258
  2.4217  1.3591  0.9611  0.9611

 Free energy of the ion-electron system (eV)
  ---------------------------------------------------
  alpha Z        PSCENC =       130.82839929
  Ewald energy   TEWEN  =     28039.58296201
  -Hartree energ DENC   =    -39063.87393196
  -exchange      EXHF   =         0.00000000
  -V(xc)+E(xc)   XCENC  =      1004.13714690
  PAW double counting   =     28595.51729765   -28635.81125294
  entropy T*S    EENTRO =        -0.07376583
  eigenvalues    EBANDS =     -3462.43406102
  atomic energy  EATOM  =     12920.33396893
  Solvation  Ediel_sol  =         0.00000000
  ---------------------------------------------------
  free energy    TOTEN  =      -471.79323696 eV

  energy without entropy =     -471.71947114  energy(sigma->0) =     -471.75635405


--------------------------------------------------------------------------------------------------------




--------------------------------------- Iteration      1(  10)  ---------------------------------------


    POTLOK:  cpu time      0.0301: real time      0.0303
    SETDIJ:  cpu time      0.0033: real time      0.0033
     EDDAV:  cpu time      1.6918: real time      1.6918
       DOS:  cpu time      0.0007: real time      0.0007
    CHARGE:  cpu time      0.0436: real time      0.0436
    MIXING:  cpu time      0.0013: real time      0.0013
    --------------------------------------------
      LOOP:  cpu time      1.7709: real time      1.7711

 eigenvalue-minimisations  :  1624
 total energy-change (2. order) : 0.2325122E-01  (-0.1125466E-01)
 number of electron     266.9999863 magnetization 
 augmentation part       13.8009184 magnetization 

 DIPCOR: dipole corrections for dipol
 direction  3 min pos   103,
 dipolmoment           0.000000      0.000000      0.003466 electrons x Angstroem
 Tr[quadrupol]     -8081.370821

 energy correction for charged system         0.000000 eV
 dipol+quadrupol energy correction           -0.000000 eV
 added-field ion interaction          0.003995 eV  (added to PSCEN)


 Broyden mixing:
  rms(total) = 0.65690E-01    rms(broyden)= 0.65552E-01
  rms(prec ) = 0.10004E+00
  weight for this iteration     100.00

 eigenvalues of (default mixing * dielectric matrix)
  average eigenvalue GAMMA=   1.3662
  2.3690  1.8212  0.9726  0.9726  0.6954

 Free energy of the ion-electron system (eV)
  ---------------------------------------------------
  alpha Z        PSCENC =       131.22540028
  Ewald energy   TEWEN  =     28039.58296201
  -Hartree energ DENC   =    -39076.33750896
  -exchange      EXHF   =         0.00000000
  -V(xc)+E(xc)   XCENC  =      1004.01776351
  PAW double counting   =     28667.73704415   -28707.89275477
  entropy T*S    EENTRO =        -0.07218723
  eigenvalues    EBANDS =     -3450.36467366
  atomic energy  EATOM  =     12920.33396893
  Solvation  Ediel_sol  =         0.00000000
  ---------------------------------------------------
  free energy    TOTEN  =      -471.76998574 eV

  energy without entropy =     -471.69779851  energy(sigma->0) =     -471.73389213


--------------------------------------------------------------------------------------------------------




--------------------------------------- Iteration      1(  11)  ---------------------------------------


    POTLOK:  cpu time      0.0303: real time      0.0304
    SETDIJ:  cpu time      0.0032: real time      0.0032
     EDDAV:  cpu time      1.6067: real time      1.6068
       DOS:  cpu time      0.0006: real time      0.0006
    CHARGE:  cpu time      0.0437: real time      0.0437
    MIXING:  cpu time      0.0013: real time      0.0013
    --------------------------------------------
      LOOP:  cpu time      1.6859: real time      1.6861

 eigenvalue-minimisations  :  1504
 total energy-change (2. order) : 0.1275034E-01  (-0.2544112E-02)
 number of electron     266.9999863 magnetization 
 augmentation part       13.8070765 magnetization 

 DIPCOR: dipole corrections for dipol
 direction  3 min pos   104,
 dipolmoment           0.000000      0.000000      0.003742 electrons x Angstroem
 Tr[quadrupol]     -8081.961267

 energy correction for charged system         0.000000 eV
 dipol+quadrupol energy correction           -0.000001 eV
 added-field ion interaction          0.011121 eV  (added to PSCEN)


 Broyden mixing:
  rms(total) = 0.31179E-01    rms(broyden)= 0.31128E-01
  rms(prec ) = 0.64148E-01
  weight for this iteration     100.00

 eigenvalues of (default mixing * dielectric matrix)
  average eigenvalue GAMMA=   1.3626
  2.3858  2.1169  1.0522  1.0522  0.9454  0.6229

 Free energy of the ion-electron system (eV)
  ---------------------------------------------------
  alpha Z        PSCENC =       131.23252590
  Ewald energy   TEWEN  =     28039.58296201
  -Hartree energ DENC   =    -39089.77854101
  -exchange      EXHF   =         0.00000000
  -V(xc)+E(xc)   XCENC  =      1004.00292767
  PAW double counting   =     28706.65267926   -28746.73731290
  entropy T*S    EENTRO =        -0.07401020
  eigenvalues    EBANDS =     -3436.97243506
  atomic energy  EATOM  =     12920.33396893
  Solvation  Ediel_sol  =         0.00000000
  ---------------------------------------------------
  free energy    TOTEN  =      -471.75723541 eV

  energy without entropy =     -471.68322520  energy(sigma->0) =     -471.72023031


--------------------------------------------------------------------------------------------------------




--------------------------------------- Iteration      1(  12)  ---------------------------------------


    POTLOK:  cpu time      0.0308: real time      0.0310
    SETDIJ:  cpu time      0.0033: real time      0.0033
     EDDAV:  cpu time      1.6116: real time      1.6116
       DOS:  cpu time      0.0007: real time      0.0007
    CHARGE:  cpu time      0.0436: real time      0.0436
    MIXING:  cpu time      0.0014: real time      0.0014
    --------------------------------------------
      LOOP:  cpu time      1.6912: real time      1.6915

 eigenvalue-minimisations  :  1520
 total energy-change (2. order) : 0.5802099E-02  (-0.1197670E-02)
 number of electron     266.9999863 magnetization 
 augmentation part       13.8084906 magnetization 

 DIPCOR: dipole corrections for dipol
 direction  3 min pos   103,
 dipolmoment           0.000000      0.000000      0.008692 electrons x Angstroem
 Tr[quadrupol]     -8082.782219

 energy correction for charged system         0.000000 eV
 dipol+quadrupol energy correction           -0.000003 eV
 added-field ion interaction          0.010020 eV  (added to PSCEN)


 Broyden mixing:
  rms(total) = 0.19721E-01    rms(broyden)= 0.19708E-01
  rms(prec ) = 0.45551E-01
  weight for this iteration     100.00

 eigenvalues of (default mixing * dielectric matrix)
  average eigenvalue GAMMA=   1.3732
  2.3432  2.3432  1.3333  0.9879  0.9879  0.9910  0.6260

 Free energy of the ion-electron system (eV)
  ---------------------------------------------------
  alpha Z        PSCENC =       131.23142290
  Ewald energy   TEWEN  =     28039.58296201
  -Hartree energ DENC   =    -39109.98300811
  -exchange      EXHF   =         0.00000000
  -V(xc)+E(xc)   XCENC  =      1004.14858493
  PAW double counting   =     28741.01279446   -28781.07195345
  entropy T*S    EENTRO =        -0.07410971
  eigenvalues    EBANDS =     -3416.93209527
  atomic energy  EATOM  =     12920.33396893
  Solvation  Ediel_sol  =         0.00000000
  ---------------------------------------------------
  free energy    TOTEN  =      -471.75143331 eV

  energy without entropy =     -471.67732360  energy(sigma->0) =     -471.71437845


--------------------------------------------------------------------------------------------------------




--------------------------------------- Iteration      1(  13)  ---------------------------------------


    POTLOK:  cpu time      0.0309: real time      0.0311
    SETDIJ:  cpu time      0.0032: real time      0.0032
     EDDAV:  cpu time      1.5798: real time      1.5798
       DOS:  cpu time      0.0007: real time      0.0007
    CHARGE:  cpu time      0.0455: real time      0.0455
    MIXING:  cpu time      0.0059: real time      0.0059
    --------------------------------------------
      LOOP:  cpu time      1.6660: real time      1.6662

 eigenvalue-minimisations  :  1472
 total energy-change (2. order) : 0.9055987E-03  (-0.5169199E-03)
 number of electron     266.9999863 magnetization 
 augmentation part       13.8037787 magnetization 

 DIPCOR: dipole corrections for dipol
 direction  3 min pos   103,
 dipolmoment           0.000000      0.000000      0.012363 electrons x Angstroem
 Tr[quadrupol]     -8083.754776

 energy correction for charged system         0.000000 eV
 dipol+quadrupol energy correction           -0.000006 eV
 added-field ion interaction          0.014252 eV  (added to PSCEN)


 Broyden mixing:
  rms(total) = 0.10796E-01    rms(broyden)= 0.10787E-01
  rms(prec ) = 0.29423E-01
  weight for this iteration     100.00

 eigenvalues of (default mixing * dielectric matrix)
  average eigenvalue GAMMA=   1.5239
  3.2729  2.5040  1.8941  1.0051  1.0051  1.0391  0.8396  0.6316

 Free energy of the ion-electron system (eV)
  ---------------------------------------------------
  alpha Z        PSCENC =       131.23565177
  Ewald energy   TEWEN  =     28039.58296201
  -Hartree energ DENC   =    -39131.47832938
  -exchange      EXHF   =         0.00000000
  -V(xc)+E(xc)   XCENC  =      1004.35259663
  PAW double counting   =     28683.52804850   -28723.57713578
  entropy T*S    EENTRO =        -0.07380302
  eigenvalues    EBANDS =     -3395.65448736
  atomic energy  EATOM  =     12920.33396893
  Solvation  Ediel_sol  =         0.00000000
  ---------------------------------------------------
  free energy    TOTEN  =      -471.75052771 eV

  energy without entropy =     -471.67672469  energy(sigma->0) =     -471.71362620


--------------------------------------------------------------------------------------------------------




--------------------------------------- Iteration      1(  14)  ---------------------------------------


    POTLOK:  cpu time      0.0421: real time      0.0437
    SETDIJ:  cpu time      0.0073: real time      0.0074
     EDDAV:  cpu time      1.5783: real time      1.5809
       DOS:  cpu time      0.0007: real time      0.0007
    CHARGE:  cpu time      0.0455: real time      0.0456
    MIXING:  cpu time      0.0016: real time      0.0017
    --------------------------------------------
      LOOP:  cpu time      1.6756: real time      1.6799

 eigenvalue-minimisations  :  1372
 total energy-change (2. order) :-0.2458874E-02  (-0.8613723E-03)
 number of electron     266.9999863 magnetization 
 augmentation part       13.7984599 magnetization 

 DIPCOR: dipole corrections for dipol
 direction  3 min pos   114,
 dipolmoment           0.000000      0.000000      0.168611 electrons x Angstroem
 Tr[quadrupol]     -8085.255936

 energy correction for charged system         0.000000 eV
 dipol+quadrupol energy correction           -0.001033 eV
 added-field ion interaction          3.567935 eV  (added to PSCEN)


 Broyden mixing:
  rms(total) = 0.84978E-02    rms(broyden)= 0.84849E-02
  rms(prec ) = 0.17342E-01
  weight for this iteration     100.00

 eigenvalues of (default mixing * dielectric matrix)
  average eigenvalue GAMMA=   1.5111
  3.6017  2.5060  1.8396  1.0342  1.0342  1.0266  1.0266  0.8993  0.6318

 Free energy of the ion-electron system (eV)
  ---------------------------------------------------
  alpha Z        PSCENC =       134.78830734
  Ewald energy   TEWEN  =     28039.58296201
  -Hartree energ DENC   =    -39157.01593889
  -exchange      EXHF   =         0.00000000
  -V(xc)+E(xc)   XCENC  =      1004.58251806
  PAW double counting   =     28658.85863035   -28698.90674174
  entropy T*S    EENTRO =        -0.07388278
  eigenvalues    EBANDS =     -3373.90280987
  atomic energy  EATOM  =     12920.33396893
  Solvation  Ediel_sol  =         0.00000000
  ---------------------------------------------------
  free energy    TOTEN  =      -471.75298658 eV

  energy without entropy =     -471.67910380  energy(sigma->0) =     -471.71604519


--------------------------------------------------------------------------------------------------------




--------------------------------------- Iteration      1(  15)  ---------------------------------------


    POTLOK:  cpu time      0.0317: real time      0.0336
    SETDIJ:  cpu time      0.0028: real time      0.0042
     EDDAV:  cpu time      1.6331: real time      1.6333
       DOS:  cpu time      0.0007: real time      0.0007
    CHARGE:  cpu time      0.0435: real time      0.0435
    MIXING:  cpu time      0.0015: real time      0.0015
    --------------------------------------------
      LOOP:  cpu time      1.7132: real time      1.7168

 eigenvalue-minimisations  :  1544
 total energy-change (2. order) :-0.2956900E-02  (-0.5663345E-04)
 number of electron     266.9999863 magnetization 
 augmentation part       13.7980270 magnetization 

 DIPCOR: dipole corrections for dipol
 direction  3 min pos   119,
 dipolmoment           0.000000      0.000000      0.239731 electrons x Angstroem
 Tr[quadrupol]     -8085.855452

 energy correction for charged system         0.000000 eV
 dipol+quadrupol energy correction           -0.002088 eV
 added-field ion interaction          7.253102 eV  (added to PSCEN)


 Broyden mixing:
  rms(total) = 0.56435E-02    rms(broyden)= 0.56416E-02
  rms(prec ) = 0.13138E-01
  weight for this iteration     100.00

 eigenvalues of (default mixing * dielectric matrix)
  average eigenvalue GAMMA=   1.6575
  4.6107  2.5457  1.9548  1.9548  1.0240  1.0240  0.9939  0.9939  0.6333  0.8400

 Free energy of the ion-electron system (eV)
  ---------------------------------------------------
  alpha Z        PSCENC =       138.47241895
  Ewald energy   TEWEN  =     28039.58296201
  -Hartree energ DENC   =    -39162.21542788
  -exchange      EXHF   =         0.00000000
  -V(xc)+E(xc)   XCENC  =      1004.59221720
  PAW double counting   =     28657.56469731   -28697.61060538
  entropy T*S    EENTRO =        -0.07387781
  eigenvalues    EBANDS =     -3372.40229680
  atomic energy  EATOM  =     12920.33396893
  Solvation  Ediel_sol  =         0.00000000
  ---------------------------------------------------
  free energy    TOTEN  =      -471.75594348 eV

  energy without entropy =     -471.68206567  energy(sigma->0) =     -471.71900458


--------------------------------------------------------------------------------------------------------




--------------------------------------- Iteration      1(  16)  ---------------------------------------


    POTLOK:  cpu time      0.0295: real time      0.0299
    SETDIJ:  cpu time      0.0033: real time      0.0033
     EDDAV:  cpu time      1.5378: real time      1.5493
       DOS:  cpu time      0.0007: real time      0.0007
    CHARGE:  cpu time      0.0437: real time      0.0437
    MIXING:  cpu time      0.0016: real time      0.0016
    --------------------------------------------
      LOOP:  cpu time      1.6166: real time      1.6285

 eigenvalue-minimisations  :  1440
 total energy-change (2. order) :-0.4078451E-02  (-0.2481620E-03)
 number of electron     266.9999863 magnetization 
 augmentation part       13.7973977 magnetization 

 DIPCOR: dipole corrections for dipol
 direction  3 min pos   119,
 dipolmoment           0.000000      0.000000      0.190228 electrons x Angstroem
 Tr[quadrupol]     -8086.503764

 energy correction for charged system         0.000000 eV
 dipol+quadrupol energy correction           -0.001315 eV
 added-field ion interaction          5.755401 eV  (added to PSCEN)


 Broyden mixing:
  rms(total) = 0.50473E-02    rms(broyden)= 0.50437E-02
  rms(prec ) = 0.89067E-02
  weight for this iteration     100.00

 eigenvalues of (default mixing * dielectric matrix)
  average eigenvalue GAMMA=   1.6254
  5.0291  2.5465  2.0753  2.0753  0.9855  0.9855  0.6327  0.9381  0.8758  0.8680
  0.8680

 Free energy of the ion-electron system (eV)
  ---------------------------------------------------
  alpha Z        PSCENC =       136.97549195
  Ewald energy   TEWEN  =     28039.58296201
  -Hartree energ DENC   =    -39170.53386949
  -exchange      EXHF   =         0.00000000
  -V(xc)+E(xc)   XCENC  =      1004.59909925
[...]
    135      -1.7582      0.00002
    136      -1.7405      0.00001
    137      -1.6087      0.00000
    138      -1.0487      0.00000
    139      -0.9708      0.00000
    140      -0.9497      0.00000
    141      -0.8908      0.00000
    142      -0.8108      0.00000
    143      -0.2012      0.00000
    144      -0.1694      0.00000
    145      -0.1276      0.00000
    146      -0.0483      0.00000
    147       1.1327      0.00000
    148       1.1486      0.00000
    149       1.2171      0.00000
    150       1.2282      0.00000
    151       1.7375      0.00000
    152       1.8029      0.00000
    153       1.8894      0.00000
    154       1.9130      0.00000
    155       1.9712      0.00000
    156       2.0192      0.00000
    157       2.0355      0.00000
    158       2.0977      0.00000
    159       2.3460      0.00000
    160       2.3721      0.00000
    161       2.4408      0.00000
    162       2.4575      0.00000
    163       2.4968      0.00000
    164       2.5069      0.00000


--------------------------------------------------------------------------------------------------------


 soft charge-density along one line, spin component           1
         0         1         2         3         4         5         6         7         8         9
 total charge-density along one line
 
 pseudopotential strength for first ion, spin component:           1
 10.346  13.762  -0.003   0.001   0.000   0.008  -0.003  -0.000
 13.762  18.304  -0.004   0.001   0.000   0.010  -0.004  -0.000
 -0.003  -0.004  -4.474   0.001   0.000   8.754  -0.002  -0.000
  0.001   0.001   0.001  -4.460   0.000  -0.002   8.732  -0.000
  0.000   0.000   0.000   0.000  -4.472  -0.000  -0.000   8.748
  0.008   0.010   8.754  -0.002  -0.000 -19.274   0.004   0.000
 -0.003  -0.004  -0.002   8.732  -0.000   0.004 -19.238   0.000
 -0.000  -0.000  -0.000  -0.000   8.748   0.000   0.000 -19.257
 total augmentation occupancy for first ion, spin component:           1
  9.077  -4.312   0.105  -0.020   0.003   0.015  -0.004   0.000
 -4.312   2.184  -0.027  -0.003  -0.002  -0.006   0.002  -0.000
  0.105  -0.027   1.695  -0.033  -0.000   0.181  -0.008  -0.000
 -0.020  -0.003  -0.033   1.201  -0.004  -0.008   0.076  -0.001
  0.003  -0.002  -0.000  -0.004   1.975  -0.000  -0.001   0.197
  0.015  -0.006   0.181  -0.008  -0.000   0.021  -0.001  -0.000
 -0.004   0.002  -0.008   0.076  -0.001  -0.001   0.005  -0.000
  0.000  -0.000  -0.000  -0.001   0.197  -0.000  -0.000   0.023


------------------------ aborting loop because EDIFF is reached ----------------------------------------


    CHARGE:  cpu time      0.0529: real time      0.0529
    FORLOC:  cpu time      0.0122: real time      0.0122
    FORNL :  cpu time      0.2400: real time      0.2400
    STRESS:  cpu time      0.7314: real time      0.7314
    FORCOR:  cpu time      0.0398: real time      0.0398
    FORHAR:  cpu time      0.0175: real time      0.0175
    MIXING:  cpu time      0.0015: real time      0.0015
    OFIELD:  cpu time      0.0000: real time      0.0000

  FORCE on cell =-STRESS in cart. coord.  units (eV):
  Direction    XX          YY          ZZ          XY          YZ          ZX
  --------------------------------------------------------------------------------------
  Alpha Z   131.85901   131.85901   131.85901
  Ewald   36777.86465 36796.14408-45683.62150     3.15552    47.07442   -24.88873
  Hartree 37126.98669 37132.97125-35236.39646     1.76406    26.10368   -10.66565
  E(xc)   -1092.06098 -1091.95937 -1126.41112     0.01816     0.11213    -0.07449
  Local  -77147.29244-77167.72862 77072.02193    -4.39028   -71.87229    34.22533
  n-local  -515.37961  -516.31095  -481.16635    -0.28717    -0.26564     0.19852
  augment    91.45028    91.18007    94.39918    -0.05934    -0.01180     0.01138
  Kinetic  4627.59247  4624.72856  5209.38509    -0.60753    -1.21883     1.15030
  Fock        0.00000     0.00000     0.00000     0.00000     0.00000     0.00000
  -------------------------------------------------------------------------------------
  Total       1.02008     0.88404   -19.93022    -0.40656    -0.07833    -0.04335
  in kB       0.62649     0.54293   -12.24021    -0.24969    -0.04811    -0.02663
  external pressure =       -3.69 kB  Pullay stress =        0.00 kB


 VOLUME and BASIS-vectors are now :
 -----------------------------------------------------------------------------
  energy-cutoff  :      400.00
  volume of cell :     2608.76
      direct lattice vectors                 reciprocal lattice vectors
    14.177074379  0.000000000  0.000000000     0.070536415  0.000000000  0.000000000
     0.000000000 12.267491810  0.000000000     0.000000000  0.081516256  0.000000000
     0.000000000  0.000000000 15.000000000     0.000000000  0.000000000  0.066666667

  length of vectors
    14.177074379 12.267491810 15.000000000     0.070536415  0.081516256  0.066666667


 FORCES acting on ions
    electron-ion (+dipol)            ewald-force                    non-local-force                 convergence-correction
 -----------------------------------------------------------------------------------------------
   0.343E+00 -.610E+02 -.574E+01   -.365E+00 0.637E+02 0.475E+01   0.248E-01 -.269E+01 0.950E+00   -.162E-04 -.209E-03 0.227E-03
   0.563E+02 0.367E+02 -.284E+01   -.586E+02 -.382E+02 0.179E+01   0.229E+01 0.135E+01 0.987E+00   0.969E-05 -.467E-04 -.795E-05
   -.249E+02 -.111E+02 0.381E+01   0.218E+02 0.924E+01 -.344E+01   0.331E+01 0.189E+01 -.446E+00   0.880E-04 -.201E-03 0.190E-03
   -.372E+02 0.459E+02 -.167E+01   0.379E+02 -.429E+02 0.101E+01   -.974E+00 -.314E+01 0.713E+00   -.278E-04 0.176E-03 -.134E-03
   -.555E+02 0.369E+02 -.159E+01   0.578E+02 -.384E+02 0.532E+00   -.226E+01 0.135E+01 0.987E+00   0.265E-04 -.206E-04 0.510E-04
   0.246E+02 -.118E+02 0.373E+01   -.215E+02 0.991E+01 -.338E+01   -.333E+01 0.184E+01 -.418E+00   -.104E-03 -.285E-04 0.100E-03
   0.407E+00 -.445E+01 0.606E+02   -.408E+00 0.619E+01 -.594E+02   -.893E-02 -.195E+01 -.113E+01   0.464E-04 0.101E-03 0.979E-04
   0.618E+02 0.418E+02 0.964E+01   -.635E+02 -.430E+02 -.873E+01   0.188E+01 0.116E+01 -.944E+00   -.100E-03 -.341E-04 -.798E-03
   -.581E+02 0.418E+01 0.181E+01   0.558E+02 -.630E+01 -.242E+01   0.239E+01 0.227E+01 0.652E+00   0.582E-04 0.208E-03 -.101E-03
   0.378E+02 0.455E+02 -.180E+01   -.386E+02 -.424E+02 0.112E+01   0.101E+01 -.323E+01 0.725E+00   0.701E-04 -.170E-03 0.207E-04
   -.620E+02 0.419E+02 0.896E+01   0.637E+02 -.431E+02 -.805E+01   -.189E+01 0.108E+01 -.932E+00   0.780E-04 0.100E-04 -.861E-03
   0.562E+02 0.379E+01 0.748E+00   -.539E+02 -.591E+01 -.136E+01   -.239E+01 0.223E+01 0.679E+00   -.645E-04 0.532E-04 0.170E-05
   -.122E+02 -.767E+02 0.877E+01   0.124E+02 0.788E+02 -.759E+01   -.159E+00 -.213E+01 -.117E+01   -.115E-03 -.237E-03 -.117E-02
   0.229E+01 -.328E+00 0.572E+02   -.385E+01 -.577E+00 -.559E+02   0.161E+01 0.108E+01 -.120E+01   0.190E-03 0.288E-03 -.226E-03
   -.344E+02 -.300E+02 -.102E+01   0.312E+02 0.285E+02 0.287E+00   0.321E+01 0.149E+01 0.831E+00   -.211E-03 0.106E-04 -.104E-02
   -.697E+02 0.294E+02 0.164E+02   0.715E+02 -.305E+02 -.151E+02   -.185E+01 0.105E+01 -.140E+01   -.395E-03 0.104E-03 -.773E-03
   0.242E+02 -.477E+02 0.570E+01   -.213E+02 0.468E+02 -.629E+01   -.289E+01 0.976E+00 0.645E+00   0.780E-04 -.438E-04 -.844E-03
   0.114E+02 -.756E+02 0.788E+01   -.115E+02 0.776E+02 -.666E+01   0.394E-01 -.204E+01 -.119E+01   0.125E-03 0.921E-04 -.103E-02
   0.694E+02 0.297E+02 0.147E+02   -.710E+02 -.308E+02 -.133E+02   0.177E+01 0.105E+01 -.145E+01   0.178E-04 0.236E-04 -.654E-03
   -.242E+02 -.496E+02 0.694E+01   0.212E+02 0.487E+02 -.752E+01   0.303E+01 0.102E+01 0.627E+00   0.315E-03 0.589E-04 -.759E-03
   -.283E+01 0.454E+00 0.663E+02   0.439E+01 -.134E+01 -.651E+02   -.161E+01 0.107E+01 -.129E+01   0.154E-03 0.153E-03 -.168E-04
   0.354E+02 -.289E+02 -.168E+01   -.323E+02 0.273E+02 0.860E+00   -.321E+01 0.154E+01 0.941E+00   -.201E-03 0.119E-03 -.977E-03
   -.152E+00 0.371E+02 0.106E+02   0.187E+00 -.336E+02 -.102E+02   -.566E-01 -.328E+01 -.516E+00   -.739E-04 -.388E-04 -.373E-03
   0.287E-01 0.353E+02 0.535E+01   -.281E-01 -.316E+02 -.595E+01   -.131E-01 -.392E+01 0.680E+00   0.440E-04 -.406E-03 -.128E-02
   -.336E+02 -.181E+03 0.266E+02   0.334E+02 0.219E+03 -.285E+02   0.700E-01 -.379E+02 0.186E+01   -.303E-03 -.267E-05 0.220E-03
   0.142E+03 0.124E+03 0.385E+02   -.174E+03 -.143E+03 -.413E+02   0.325E+02 0.186E+02 0.265E+01   -.196E-04 -.269E-04 0.187E-04
   0.337E+02 -.180E+03 0.333E+02   -.334E+02 0.218E+03 -.357E+02   -.176E+00 -.378E+02 0.229E+01   0.154E-03 -.158E-03 0.296E-03
   -.173E+03 0.704E+02 0.464E+02   0.205E+03 -.890E+02 -.496E+02   -.322E+02 0.185E+02 0.302E+01   -.144E-03 -.471E-04 -.213E-03
   0.173E+03 0.702E+02 0.365E+02   -.206E+03 -.888E+02 -.389E+02   0.321E+02 0.185E+02 0.226E+01   0.122E-03 -.193E-03 -.315E-03
   -.142E+03 0.125E+03 0.358E+02   0.174E+03 -.143E+03 -.383E+02   -.326E+02 0.188E+02 0.241E+01   0.581E-04 -.107E-03 0.116E-03
   -.886E-01 0.382E+01 -.741E+02   0.904E-01 -.371E+01 0.783E+02   0.538E-02 -.140E+00 -.409E+01   0.357E-04 -.190E-03 0.252E-03
   -.200E+02 0.194E+02 -.377E+01   0.199E+02 -.200E+02 0.399E+01   0.205E-01 0.538E+00 -.224E+00   -.813E-05 0.390E-03 0.550E-04
   0.332E+02 -.907E+02 0.518E+02   -.338E+02 0.123E+03 -.530E+02   0.665E+00 -.320E+02 0.133E+01   0.483E-04 0.219E-03 0.402E-03
   0.156E+03 0.132E+03 -.759E+02   -.188E+03 -.151E+03 0.831E+02   0.316E+02 0.187E+02 -.717E+01   -.318E-03 0.444E-04 -.707E-03
   -.334E+02 -.919E+02 0.609E+02   0.341E+02 0.124E+03 -.626E+02   -.731E+00 -.323E+02 0.173E+01   0.924E-04 0.346E-03 0.351E-03
   -.176E+03 0.717E+02 -.263E+02   0.207E+03 -.908E+02 0.301E+02   -.317E+02 0.191E+02 -.377E+01   0.174E-03 -.567E-03 -.168E-02
   0.176E+03 0.722E+02 -.230E+02   -.208E+03 -.914E+02 0.267E+02   0.317E+02 0.190E+02 -.360E+01   -.152E-03 -.375E-03 -.160E-02
   -.157E+03 0.133E+03 -.789E+02   0.188E+03 -.151E+03 0.864E+02   -.315E+02 0.188E+02 -.744E+01   0.270E-03 0.140E-03 -.873E-03
   -.226E+00 0.448E+02 0.137E+03   0.263E+00 -.484E+02 -.145E+03   0.532E-02 0.350E+01 0.764E+01   0.420E-05 0.132E-03 -.368E-03
   0.203E+02 0.193E+02 -.441E+01   -.203E+02 -.197E+02 0.463E+01   0.823E-01 0.399E+00 -.209E+00   0.610E-05 -.507E-04 0.205E-03
   -.380E+02 -.200E+03 -.647E+02   0.376E+02 0.237E+03 0.714E+02   0.430E+00 -.365E+02 -.672E+01   -.105E-03 -.402E-03 -.173E-02
   0.926E+02 0.174E+02 0.389E+02   -.120E+03 -.332E+02 -.392E+02   0.273E+02 0.159E+02 0.429E+00   0.183E-03 0.228E-03 -.235E-03
   0.177E+02 -.194E+03 -.681E+02   -.179E+02 0.230E+03 0.747E+02   0.316E+00 -.369E+02 -.642E+01   -.104E-03 -.289E-03 -.170E-02
   -.196E+03 0.666E+02 -.643E+02   0.229E+03 -.841E+02 0.708E+02   -.327E+02 0.174E+02 -.637E+01   -.484E-03 0.182E-03 -.792E-03
   0.641E+02 0.763E+02 0.243E+02   -.919E+02 -.936E+02 -.235E+02   0.277E+02 0.175E+02 -.751E+00   0.156E-03 0.202E-03 0.157E-03
   -.154E+03 0.106E+03 -.180E+02   0.187E+03 -.124E+03 0.207E+02   -.324E+02 0.174E+02 -.273E+01   -.453E-03 0.207E-03 -.125E-02
   -.377E+02 -.258E+02 0.156E+03   0.403E+02 0.278E+02 -.165E+03   -.250E+01 -.187E+01 0.861E+01   -.113E-03 0.111E-03 -.652E-03
   0.664E+00 -.360E+02 0.152E+02   -.843E+00 0.375E+02 -.162E+02   0.195E+00 -.150E+01 0.102E+01   0.347E-03 -.335E-03 -.120E-02
   -.177E+02 -.193E+03 -.722E+02   0.178E+02 0.230E+03 0.790E+02   -.314E+00 -.366E+02 -.667E+01   -.101E-03 0.197E-03 -.155E-02
   0.155E+03 0.106E+03 -.284E+02   -.187E+03 -.124E+03 0.319E+02   0.322E+02 0.174E+02 -.348E+01   -.206E-03 0.152E-03 -.123E-02
   0.372E+02 -.200E+03 -.813E+02   -.369E+02 0.236E+03 0.896E+02   -.367E+00 -.364E+02 -.821E+01   0.300E-03 0.654E-04 -.166E-02
   -.660E+02 0.756E+02 0.411E+02   0.940E+02 -.929E+02 -.413E+02   -.279E+02 0.175E+02 0.133E+00   0.230E-03 -.182E-03 0.405E-03
   0.195E+03 0.667E+02 -.785E+02   -.227E+03 -.842E+02 0.862E+02   0.325E+02 0.175E+02 -.757E+01   0.956E-04 -.154E-03 -.682E-03
   -.942E+02 0.195E+02 0.641E+02   0.122E+03 -.356E+02 -.658E+02   -.277E+02 0.161E+02 0.164E+01   0.496E-03 0.183E-03 -.292E-04
   0.397E+02 -.267E+02 0.166E+03   -.426E+02 0.289E+02 -.175E+03   0.271E+01 -.196E+01 0.911E+01   0.753E-04 0.169E-03 -.283E-03
   0.497E+00 -.108E+01 0.976E+01   -.512E+00 0.524E+00 -.103E+02   -.459E-02 0.647E+00 0.590E+00   -.296E-03 0.253E-04 -.973E-03
   0.301E+01 0.898E+01 -.462E+03   -.298E+01 -.868E+01 0.462E+03   -.706E-01 -.306E+00 -.316E+00   0.386E-03 0.111E-03 0.126E-02
 -----------------------------------------------------------------------------------------------
   0.689E+00 0.453E+00 0.317E+02   0.281E-12 -.121E-12 0.171E-12   -.681E+00 -.495E+00 -.316E+02   0.420E-03 -.138E-04 -.263E-01
 
 
 POSITION                                       TOTAL-FORCE (eV/Angst)
 -----------------------------------------------------------------------------------
      0.93309      4.97289      1.99743         0.002254      0.003410     -0.035361
     13.91301      2.88816      1.98375        -0.045807     -0.116339     -0.060432
      3.19489      4.88688      1.97167         0.217916      0.037163     -0.074077
     11.63216      7.06603      2.02498        -0.231756     -0.094660      0.050699
      2.12765      2.88570      1.97791         0.061840     -0.140865     -0.072559
     12.84885      4.89250      1.97464        -0.218037     -0.002834     -0.067503
      8.02120      4.90805      1.85065        -0.009937     -0.209822      0.006228
      6.79644      2.85748      1.98959         0.126654     -0.017596     -0.036812
     10.32496      4.87059      2.01251         0.072553      0.151762      0.043749
      4.40262      7.06658      2.01951         0.178923     -0.121423      0.052782
      9.24068      2.85671      1.99323        -0.159053     -0.112462     -0.025049
      5.71692      4.87738      2.01483        -0.071493      0.114236      0.067206
     11.55852     11.10682      2.00476         0.058263     -0.010746      0.015075
     10.42154      9.01066      1.87489         0.050232      0.176095      0.014928
     13.83632     11.05938      2.03728         0.038866     -0.059039      0.101463
     12.80017      9.02665      1.96888        -0.068591     -0.022433     -0.036658
      9.26759     10.99896      2.01559         0.000945      0.064665      0.054272
      4.46687     11.10327      2.00959        -0.098607     -0.029882      0.032238
      3.22684      9.02108      1.97676         0.098329      0.000105     -0.010657
      6.75200     10.99861      2.00686         0.016728      0.143782      0.040948
      5.60523      9.01091      1.83557        -0.049983      0.191139     -0.039641
      2.18955     11.05270      2.04457        -0.042991     -0.070423      0.122300
      0.93168      0.94806      1.94904        -0.022184      0.193228     -0.062096
      8.01515      0.92992      2.02101        -0.012655     -0.234698      0.083130
     13.95989      5.62240      1.94622        -0.147771     -0.130818     -0.080381
     12.77895      3.56868      1.92083        -0.117447      0.009484     -0.120878
      2.08476      5.61769      1.93348         0.155838     -0.113140     -0.099281
      2.10801      1.56493      1.89767         0.228590     -0.110452     -0.140821
     13.93389      1.56772      1.91758        -0.267993     -0.118034     -0.119593
      3.26412      3.56287      1.92278         0.115654      0.043769     -0.111221
      0.93252      3.58428      2.10047         0.007130     -0.029235      0.121768
     11.59012      5.61764      2.01530        -0.080089     -0.051176      0.002997
      6.87084      5.57669      1.92232         0.103453     -0.018368      0.069869
      5.67396      3.55181      2.14671         0.175774      0.248337      0.016046
      9.17518      5.56840      1.90674        -0.058970      0.038903      0.017644
      9.20480      1.53926      2.06775        -0.188254     -0.014243      0.070409
      6.82625      1.54117      2.06120         0.178184     -0.088882      0.048726
     10.36606      3.54674      2.15342        -0.160748      0.176910      0.049120
      8.01822      3.54293      1.75874         0.042860     -0.117975     -0.075971
      4.45117      5.61741      2.01394         0.077131     -0.045901      0.016232
     10.38501     11.70467      2.13819         0.043478     -0.041172      0.000239
      9.25401      9.64867      1.95760         0.068211      0.055711      0.103443
     12.69881     11.76055      2.14517         0.172695     -0.066283      0.141394
     12.79561      7.70884      2.12298        -0.203998     -0.080830      0.071427
     10.44755      7.69149      1.97805        -0.108500      0.189933      0.002329
     13.90766      9.73232      2.04552         0.021248     -0.025024     -0.018544
     11.59050      9.71509      1.73576         0.141881      0.124693     -0.085293
      8.01156     11.72023      1.99707         0.016901     -0.019178      0.077096
      3.32597     11.75291      2.15557        -0.183725     -0.053668      0.151175
      2.11973      9.72506      2.06842        -0.038532      0.004378      0.017302
      5.63716     11.70256      2.16746        -0.020515     -0.086024      0.029607
      5.58507      7.69052      1.93569         0.071895      0.252311     -0.061834
      3.23752      7.70477      2.14902         0.318186     -0.071878      0.091337
      6.76994      9.65551      1.90053        -0.054136      0.051095     -0.007918
      4.43239      9.71255      1.71329        -0.139703      0.168677     -0.027339
      0.92684     11.77489      1.99534        -0.019740      0.089191      0.062092
      8.01553      7.66127      2.64685        -0.041402     -0.003473     -0.375353
 -----------------------------------------------------------------------------------
    total drift:                                0.008686     -0.041696     -0.009193


--------------------------------------------------------------------------------------------------------



  FREE ENERGIE OF THE ION-ELECTRON SYSTEM (eV)
  ---------------------------------------------------
  free  energy   TOTEN  =      -472.15674795 eV

  energy  without entropy=     -472.08517936  energy(sigma->0) =     -472.12096366
 
 d Force = 0.3155596E-01[ 0.237E-01, 0.394E-01]  d Energy = 0.3105181E-01 0.504E-03
 d Force = 0.2156796E+02[ 0.225E+02, 0.207E+02]  d Ewald  =-0.1283669E+00 0.217E+02


--------------------------------------------------------------------------------------------------------


    POTLOK:  cpu time      0.0339: real time      0.0342


--------------------------------------------------------------------------------------------------------


 stress matrix after NEB project (eV)
      1.02008     -0.40656     -0.04335
     -0.40656      0.88404     -0.07833
     -0.04335     -0.07833    -19.93022
  FORCES: max atom, RMS     0.377646    0.189151
  FORCE total and by dimension    1.428058    0.375353
  Stress total and by dimension   19.984554   19.930220
 Conjugate gradient step on ions:
 trial-energy change:   -0.031052  1 .order   -0.031027   -0.038876   -0.023178
  (g-gl).g = 0.304E-01      g.g   = 0.367E-01  gl.gl    = 0.282E-01
 g(Force)  = 0.361E-01   g(Stress)= 0.619E-03 ortho     =-0.810E-03
 gamma     =   1.07844
 trial     =   1.08559
 opt step  =   2.68845  (harmonic =   2.68845) maximal distance =0.05434331
 next E    =  -472.173834   (d E  =  -0.04814)


--------------------------------------------------------------------------------------------------------


    WAVPRE:  cpu time      0.0204: real time      0.0229
    FEWALD:  cpu time      0.0007: real time      0.0007
    GENKIN:  cpu time      0.0068: real time      0.0068

 real space projection operators:
  total allocation   :       6685.86 KBytes
  max/ min on nodes  :        588.00        478.77

    ORTHCH:  cpu time      0.1222: real time      0.1222
     LOOP+:  cpu time     16.1707: real time     16.1916

