<?xml version="1.0" encoding="ISO-8859-1"?>
<modeling>
 <generator>
  <i name="program" type="string">vasp </i>
  <i name="version" type="string">6.3.2  </i>
  <i name="subversion" type="string">27Jun22 (build May 04 2024 18:40:40) complex                          parallel </i>
  <i name="platform" type="string">LinuxIFC </i>
  <i name="date" type="string">2024 09 02 </i>
  <i name="time" type="string">21:16:41 </i>
 </generator>
 <incar>
  <i type="string" name="SYSTEM">slab_Cel1-OPT</i>
  <i type="int" name="ISTART">     0</i>
  <i type="string" name="PREC">N</i>
  <i type="string" name="ALGO">N</i>
  <i type="int" name="ICHARG">     2</i>
  <i type="int" name="NELM">   200</i>
  <i type="int" name="IBRION">     2</i>
  <i name="EDIFF">      0.00001000</i>
  <i name="EDIFFG">     -0.05000000</i>
  <i type="int" name="NSW">  1000</i>
  <i type="int" name="ISIF">     3</i>
  <i name="ENCUT">    400.00000000</i>
  <i name="POTIM">      0.10000000</i>
  <i type="string" name="LREAL">AUTO</i>
  <i type="int" name="ISMEAR">     0</i>
  <i name="SIGMA">      0.10000000</i>
  <i type="logical" name="LWAVE"> F  </i>
  <i type="logical" name="LCHARG"> F  </i>
  <i type="logical" name="LELF"> F  </i>
  <i type="logical" name="LAECHG"> F  </i>
  <i type="logical" name="LDIPOL"> T  </i>
  <i type="int" name="IDIPOL">     3</i>
 </incar>
 <primitive_cell>
  <structure name="primitive_cell" >
   <crystal>
    <varray name="basis" >
     <v>      14.20606433       0.00000000       0.00000000 </v>
     <v>       0.00000000      12.30194432       0.00000000 </v>
     <v>       0.00000000       0.00000000      15.00000000 </v>
    </varray>
    <i name="volume">   2621.43318603 </i>
    <varray name="rec_basis" >
     <v>       0.07039247       0.00000000       0.00000000 </v>
     <v>       0.00000000       0.08128796       0.00000000 </v>
     <v>       0.00000000       0.00000000       0.06666667 </v>
    </varray>
   </crystal>
   <varray name="positions" >
    <v>       0.06552924       0.40428224       0.13332883 </v>
    <v>       0.98073506       0.23448653       0.13331251 </v>
    <v>       0.22596849       0.39800742       0.13332693 </v>
    <v>       0.81567713       0.57598150       0.13353271 </v>
    <v>       0.15032739       0.23448907       0.13330756 </v>
    <v>       0.90510567       0.39801215       0.13332888 </v>
    <v>       0.56563600       0.40060460       0.13329290 </v>
    <v>       0.48003275       0.23339915       0.13319118 </v>
    <v>       0.72699959       0.39816605       0.13349143 </v>
    <v>       0.31530345       0.57604443       0.13352705 </v>
    <v>       0.65113845       0.23332886       0.13318734 </v>
    <v>       0.40417946       0.39830929       0.13352891 </v>
    <v>       0.81593183       0.90524123       0.13322179 </v>
    <v>       0.73312683       0.73613388       0.13336762 </v>
    <v>       0.97653404       0.89849251       0.13330997 </v>
    <v>       0.90130094       0.73428418       0.13317397 </v>
    <v>       0.65436077       0.89869394       0.13351908 </v>
    <v>       0.31496386       0.90544683       0.13320054 </v>
    <v>       0.22958188       0.73436464       0.13316012 </v>
    <v>       0.47652118       0.89889576       0.13350049 </v>
    <v>       0.39765408       0.73641312       0.13329011 </v>
    <v>       0.15435104       0.89855068       0.13332563 </v>
    <v>       0.06547629       0.07689847       0.13331367 </v>
    <v>       0.56552517       0.07636274       0.13331407 </v>
    <v>       0.98386097       0.45673230       0.13331657 </v>
    <v>       0.90051323       0.29005212       0.13328011 </v>
    <v>       0.14721891       0.45673085       0.13330434 </v>
    <v>       0.14879978       0.12682943       0.13328696 </v>
    <v>       0.98217053       0.12681964       0.13329527 </v>
    <v>       0.23059373       0.29004466       0.13328360 </v>
    <v>       0.06553126       0.29123103       0.13334958 </v>
    <v>       0.81521451       0.45792350       0.13337048 </v>
    <v>       0.48537906       0.45596222       0.13372761 </v>
    <v>       0.40076577       0.29045513       0.13359709 </v>
    <v>       0.64589040       0.45583435       0.13368861 </v>
    <v>       0.64915874       0.12611856       0.13341956 </v>
    <v>       0.48192703       0.12618043       0.13340833 </v>
    <v>       0.73044688       0.29029081       0.13357859 </v>
    <v>       0.56559013       0.28963346       0.13259239 </v>
    <v>       0.31590167       0.45800614       0.13338786 </v>
    <v>       0.73355117       0.95613998       0.13361729 </v>
    <v>       0.65156945       0.78886389       0.13372214 </v>
    <v>       0.89721800       0.95709144       0.13344107 </v>
    <v>       0.89834841       0.62653391       0.13351279 </v>
    <v>       0.73194305       0.62829732       0.13384847 </v>
    <v>       0.98071775       0.78992791       0.13338564 </v>
    <v>       0.81644402       0.79170529       0.13265331 </v>
    <v>       0.56546383       0.95729815       0.13335126 </v>
    <v>       0.23365512       0.95719332       0.13346882 </v>
    <v>       0.15016184       0.78998079       0.13343866 </v>
    <v>       0.39733392       0.95635363       0.13363927 </v>
    <v>       0.39900206       0.62855329       0.13381154 </v>
    <v>       0.23263864       0.62660872       0.13355684 </v>
    <v>       0.47919533       0.78908611       0.13366660 </v>
    <v>       0.31441659       0.79189183       0.13253209 </v>
    <v>       0.06544380       0.95787743       0.13331123 </v>
    <v>       0.56413024       0.62436563       0.13731276 </v>
   </varray>
  </structure>
  <varray name="primitive_index" >
   <v type="int" >        1 </v>
   <v type="int" >        2 </v>
   <v type="int" >        3 </v>
   <v type="int" >        4 </v>
   <v type="int" >        5 </v>
   <v type="int" >        6 </v>
   <v type="int" >        7 </v>
   <v type="int" >        8 </v>
   <v type="int" >        9 </v>
   <v type="int" >       10 </v>
   <v type="int" >       11 </v>
   <v type="int" >       12 </v>
   <v type="int" >       13 </v>
   <v type="int" >       14 </v>
   <v type="int" >       15 </v>
   <v type="int" >       16 </v>
   <v type="int" >       17 </v>
   <v type="int" >       18 </v>
   <v type="int" >       19 </v>
   <v type="int" >       20 </v>
   <v type="int" >       21 </v>
   <v type="int" >       22 </v>
   <v type="int" >       23 </v>
   <v type="int" >       24 </v>
   <v type="int" >       25 </v>
   <v type="int" >       26 </v>
   <v type="int" >       27 </v>
   <v type="int" >       28 </v>
   <v type="int" >       29 </v>
   <v type="int" >       30 </v>
   <v type="int" >       31 </v>
   <v type="int" >       32 </v>
   <v type="int" >       33 </v>
   <v type="int" >       34 </v>
   <v type="int" >       35 </v>
   <v type="int" >       36 </v>
   <v type="int" >       37 </v>
   <v type="int" >       38 </v>
   <v type="int" >       39 </v>
   <v type="int" >       40 </v>
   <v type="int" >       41 </v>
   <v type="int" >       42 </v>
   <v type="int" >       43 </v>
   <v type="int" >       44 </v>
   <v type="int" >       45 </v>
   <v type="int" >       46 </v>
   <v type="int" >       47 </v>
   <v type="int" >       48 </v>
   <v type="int" >       49 </v>
   <v type="int" >       50 </v>
   <v type="int" >       51 </v>
   <v type="int" >       52 </v>
   <v type="int" >       53 </v>
   <v type="int" >       54 </v>
   <v type="int" >       55 </v>
   <v type="int" >       56 </v>
   <v type="int" >       57 </v>
  </varray>
 </primitive_cell>
 <kpoints>
  <generation param="Gamma">
   <v type="int" name="divisions">       2        2        1 </v>
   <v name="usershift">      0.00000000       0.00000000       0.00000000 </v>
   <v name="genvec1">      0.50000000       0.00000000       0.00000000 </v>
   <v name="genvec2">      0.00000000       0.50000000       0.00000000 </v>
   <v name="genvec3">      0.00000000       0.00000000       1.00000000 </v>
   <v name="shift">      0.00000000       0.00000000       0.00000000 </v>
  </generation>
  <varray name="kpointlist" >
   <v>       0.00000000       0.00000000       0.00000000 </v>
   <v>       0.50000000       0.00000000       0.00000000 </v>
   <v>       0.00000000       0.50000000       0.00000000 </v>
   <v>       0.50000000       0.50000000       0.00000000 </v>
  </varray>
  <varray name="weights" >
   <v>       0.25000000 </v>
   <v>       0.25000000 </v>
   <v>       0.25000000 </v>
   <v>       0.25000000 </v>
  </varray>
 </kpoints>
 <parameters>
  <separator name="general" >
   <i type="string" name="SYSTEM">slab_Cel1-OPT</i>
   <i type="logical" name="LCOMPAT"> F  </i>
  </separator>
  <separator name="electronic" >
   <i type="string" name="PREC">n</i>
   <i name="ENMAX">    400.00000000</i>
   <i name="ENAUG">    644.87300000</i>
   <i name="EDIFF">      0.00001000</i>
   <i type="int" name="IALGO">    38</i>
   <i type="int" name="IWAVPR">    11</i>
   <i type="int" name="NBANDS">   164</i>
   <i type="int" name="NBANDSLOW">    -1</i>
   <i type="int" name="NBANDSHIGH">    -1</i>
   <i name="NELECT">    267.00000000</i>
   <i type="int" name="TURBO">     0</i>
   <i type="int" name="IRESTART">     0</i>
   <i type="int" name="NREBOOT">     0</i>
   <i type="int" name="NMIN">     0</i>
   <i name="EREF">      0.00000000</i>
   <separator name="electronic smearing" >
    <i type="int" name="ISMEAR">     0</i>
    <i name="SIGMA">      0.10000000</i>
    <i name="KSPACING">      0.50000000</i>
    <i type="logical" name="KGAMMA"> T  </i>
    <i type="logical" name="KBLOWUP"> T  </i>
   </separator>
   <separator name="electronic projectors" >
    <i type="logical" name="LREAL"> T  </i>
    <v name="ROPT">     -0.00050000     -0.00050000     -0.00050000</v>
    <i type="int" name="LMAXPAW">  -100</i>
    <i type="int" name="LMAXMIX">     2</i>
    <i type="logical" name="NLSPLINE"> F  </i>
   </separator>
   <separator name="electronic startup" >
    <i type="int" name="ISTART">     0</i>
    <i type="int" name="ICHARG">     2</i>
    <i type="int" name="INIWAV">     1</i>
   </separator>
   <separator name="electronic spin" >
    <i type="int" name="ISPIN">     1</i>
    <i type="logical" name="LNONCOLLINEAR"> F  </i>
    <v name="MAGMOM">      1.00000000      1.00000000      1.00000000      1.00000000      1.00000000      1.00000000      1.00000000      1.00000000      1.00000000      1.00000000      1.00000000      1.00000000      1.00000000      1.00000000      1.00000000      1.00000000      1.00000000      1.00000000      1.00000000      1.00000000
      1.00000000      1.00000000      1.00000000      1.00000000      1.00000000      1.00000000      1.00000000      1.00000000      1.00000000      1.00000000      1.00000000      1.00000000      1.00000000      1.00000000      1.00000000      1.00000000      1.00000000      1.00000000      1.00000000      1.00000000
      1.00000000      1.00000000      1.00000000      1.00000000      1.00000000      1.00000000      1.00000000      1.00000000      1.00000000      1.00000000      1.00000000      1.00000000      1.00000000      1.00000000      1.00000000      1.00000000      1.00000000</v>
    <i name="NUPDOWN">     -1.00000000</i>
    <i type="logical" name="LSORBIT"> F  </i>
    <v name="SAXIS">      0.00000000      0.00000000      1.00000000</v>
    <i type="logical" name="LSPIRAL"> F  </i>
    <v name="QSPIRAL">      0.00000000      0.00000000      0.00000000</v>
    <i type="logical" name="LZEROZ"> F  </i>
   </separator>
   <separator name="electronic exchange-correlation" >
    <i type="logical" name="LASPH"> F  </i>
    <i type="logical" name="LMETAGGA"> F  </i>
   </separator>
   <separator name="electronic convergence" >
    <i type="int" name="NELM">   200</i>
    <i type="int" name="NELMDL">    -5</i>
    <i type="int" name="NELMIN">     2</i>
    <i name="ENINI">    400.00000000</i>
    <separator name="electronic convergence detail" >
     <i type="logical" name="LDIAG"> T  </i>
     <i type="logical" name="LSUBROT"> F  </i>
     <i name="WEIMIN">      0.00100000</i>
     <i name="EBREAK">      0.00000002</i>
     <i name="DEPER">      0.30000000</i>
     <i type="int" name="NRMM">     4</i>
     <i name="TIME">      0.40000000</i>
    </separator>
   </separator>
   <separator name="electronic mixer" >
    <i name="AMIX">      0.40000000</i>
    <i name="BMIX">      1.00000000</i>
    <i name="AMIN">      0.10000000</i>
    <i name="AMIX_MAG">      1.60000000</i>
    <i name="BMIX_MAG">      1.00000000</i>
    <separator name="electronic mixer details" >
     <i type="int" name="IMIX">     4</i>
     <i type="logical" name="MIXFIRST"> F  </i>
     <i type="int" name="MAXMIX">   -45</i>
     <i name="WC">    100.00000000</i>
     <i type="int" name="INIMIX">     1</i>
     <i type="int" name="MIXPRE">     1</i>
     <i type="int" name="MREMOVE">     5</i>
    </separator>
   </separator>
   <separator name="electronic dipolcorrection" >
    <i type="logical" name="LDIPOL"> T  </i>
    <i type="logical" name="LMONO"> F  </i>
    <i type="int" name="IDIPOL">     3</i>
    <i name="EPSILON">      1.00000000</i>
    <v name="DIPOL">   -100.00000000   -100.00000000   -100.00000000</v>
    <i name="EFIELD">      0.00000000</i>
   </separator>
  </separator>
  <separator name="grids" >
   <i type="int" name="NGX">    70</i>
   <i type="int" name="NGY">    60</i>
   <i type="int" name="NGZ">    80</i>
   <i type="int" name="NGXF">   140</i>
   <i type="int" name="NGYF">   120</i>
   <i type="int" name="NGZF">   160</i>
   <i type="logical" name="ADDGRID"> F  </i>
  </separator>
  <separator name="ionic" >
   <i type="int" name="NSW">  1000</i>
   <i type="int" name="IBRION">     2</i>
   <i type="int" name="MDALGO">     0</i>
   <i type="int" name="ISIF">     3</i>
   <i name="PSTRESS">      0.00000000</i>
   <i name="EDIFFG">     -0.05000000</i>
   <i type="int" name="NFREE">     1</i>
   <i name="POTIM">      0.10000000</i>
   <i name="SMASS">     -3.00000000</i>
   <i name="SCALEE">      1.00000000</i>
  </separator>
  <separator name="ionic md" >
   <i name="TEBEG">      0.00010000</i>
   <i name="TEEND">      0.00010000</i>
   <i type="int" name="NBLOCK">     1</i>
   <i type="int" name="KBLOCK">  1000</i>
   <i type="int" name="NPACO">   256</i>
   <i name="APACO">     10.00000000</i>
  </separator>
  <separator name="symmetry" >
   <i type="int" name="ISYM">     2</i>
   <i name="SYMPREC">      0.00001000</i>
  </separator>
  <separator name="dos" >
   <i type="int" name="LORBIT">     0</i>
   <v name="RWIGS">     -1.00000000     -1.00000000     -1.00000000</v>
   <i type="int" name="NEDOS">   301</i>
   <i name="EMIN">     10.00000000</i>
   <i name="EMAX">    -10.00000000</i>
   <i name="EFERMI">      0.00000000</i>
  </separator>
  <separator name="writing" >
   <i type="int" name="NWRITE">     2</i>
   <i type="logical" name="LWAVE"> F  </i>
   <i type="logical" name="LDOWNSAMPLE"> F  </i>
   <i type="logical" name="LCHARG"> F  </i>
   <i type="logical" name="LPARD"> F  </i>
   <i type="logical" name="LVTOT"> F  </i>
   <i type="logical" name="LVHAR"> F  </i>
   <i type="logical" name="LELF"> F  </i>
   <i type="logical" name="LOPTICS"> F  </i>
   <v name="STM">      0.00000000      0.00000000      0.00000000      0.00000000      0.00000000      0.00000000      0.00000000</v>
  </separator>
  <separator name="performance" >
   <i type="int" name="NPAR">     4</i>
   <i type="int" name="NSIM">     4</i>
   <i type="int" name="NBLK">    -1</i>
   <i type="logical" name="LPLANE"> T  </i>
   <i type="logical" name="LSCALAPACK"> T  </i>
   <i type="logical" name="LSCAAWARE"> F  </i>
   <i type="logical" name="LSCALU"> F  </i>
   <i type="logical" name="LASYNC"> F  </i>
   <i type="logical" name="LORBITALREAL"> F  </i>
  </separator>
  <separator name="miscellaneous" >
   <i type="int" name="IDIOT">     3</i>
   <i type="int" name="PHON_NSTRUCT">    -1</i>
   <i type="logical" name="LMUSIC"> F  </i>
   <v name="POMASS">     12.01100000     14.00100000    196.96600000</v>
   <v name="DARWINR">      0.00000000      0.00000000      0.00000000</v>
   <v name="DARWINV">      1.00000000      1.00000000      1.00000000</v>
   <i type="logical" name="LCORR"> T  </i>
  </separator>
  <i type="logical" name="GGA_COMPAT"> T  </i>
  <i type="logical" name="LBERRY"> F  </i>
  <i type="int" name="ICORELEVEL">     0</i>
  <i type="logical" name="LDAU"> F  </i>
  <i type="int" name="I_CONSTRAINED_M">     0</i>
  <separator name="electronic exchange-correlation" >
   <i type="string" name="GGA">--</i>
   <i type="int" name="VOSKOWN">     0</i>
   <i type="logical" name="LHFCALC"> F  </i>
   <i type="string" name="PRECFOCK"></i>
   <i type="logical" name="LSYMGRAD"> F  </i>
   <i type="logical" name="LHFONE"> F  </i>
   <i type="logical" name="LRHFCALC"> F  </i>
   <i type="logical" name="LTHOMAS"> F  </i>
   <i type="logical" name="LMODELHF"> F  </i>
   <i type="logical" name="LFOCKACE"> F  </i>
   <i name="ENCUT4O">     -1.00000000</i>
   <i type="int" name="EXXOEP">     0</i>
   <i type="int" name="FOURORBIT">     0</i>
   <i name="AEXX">      0.00000000</i>
   <i name="HFALPHA">      0.00000000</i>
   <i name="MCALPHA">      0.00000000</i>
   <i name="ALDAX">      1.00000000</i>
   <i name="AGGAX">      1.00000000</i>
   <i name="ALDAC">      1.00000000</i>
   <i name="AGGAC">      1.00000000</i>
   <i type="int" name="NKREDX">     1</i>
   <i type="int" name="NKREDY">     1</i>
   <i type="int" name="NKREDZ">     1</i>
   <i type="logical" name="SHIFTRED"> F  </i>
   <i type="logical" name="ODDONLY"> F  </i>
   <i type="logical" name="EVENONLY"> F  </i>
   <i type="int" name="LMAXFOCK">     0</i>
   <i type="int" name="NMAXFOCKAE">     0</i>
   <i type="logical" name="LFOCKAEDFT"> F  </i>
   <i name="HFSCREEN">      0.00000000</i>
   <i name="HFSCREENC">      0.00000000</i>
   <i type="int" name="NBANDSGWLOW">     0</i>
  </separator>
  <separator name="vdW DFT" >
   <i type="logical" name="LUSE_VDW"> F  </i>
   <i name="Zab_VDW">     -0.84910000</i>
   <i name="PARAM1">      0.12340000</i>
   <i name="PARAM2">      1.00000000</i>
   <i name="PARAM3">      0.00000000</i>
  </separator>
  <separator name="model GW" >
   <i type="int" name="MODEL_GW">     0</i>
   <i name="MODEL_EPS0">     27.59403354</i>
   <i name="MODEL_ALPHA">      1.00000000</i>
  </separator>
  <separator name="linear response parameters" >
   <i type="logical" name="LEPSILON"> F  </i>
   <i type="logical" name="LRPA"> F  </i>
   <i type="logical" name="LNABLA"> F  </i>
   <i type="logical" name="LVEL"> F  </i>
   <i name="CSHIFT">      0.10000000</i>
   <i name="OMEGAMAX">     -1.00000000</i>
   <i name="DEG_THRESHOLD">      0.00200000</i>
   <i name="RTIME">     -0.10000000</i>
   <i name="WPLASMAI">      0.00000000</i>
   <v name="DFIELD">      0.00000000      0.00000000      0.00000000</v>
   <v name="WPLASMA">      0.00000000      0.00000000      0.00000000      0.00000000      0.00000000      0.00000000      0.00000000      0.00000000      0.00000000</v>
  </separator>
  <separator name="orbital magnetization" >
   <i type="logical" name="NUCIND"> F  </i>
   <v name="MAGPOS">      0.00000000      0.00000000      0.00000000</v>
   <i type="logical" name="LNICSALL"> T  </i>
   <i type="logical" name="ORBITALMAG"> F  </i>
   <i type="logical" name="LMAGBLOCH"> F  </i>
   <i type="logical" name="LCHIMAG"> F  </i>
   <i type="logical" name="LGAUGE"> T  </i>
   <i type="int" name="MAGATOM">     0</i>
   <v name="MAGDIPOL">      0.00000000      0.00000000      0.00000000</v>
   <v name="AVECCONST">      0.00000000      0.00000000      0.00000000</v>
  </separator>
  <separator name="response functions" >
   <i type="logical" name="LFINITE_TEMPERATURE"> F  </i>
   <i type="logical" name="LADDER"> F  </i>
   <i type="logical" name="LRPAFORCE"> F  </i>
   <i type="logical" name="LFXC"> F  </i>
   <i type="logical" name="LHARTREE"> T  </i>
   <i type="int" name="IBSE">     0</i>
   <v type="int" name="KPOINT">    -1     0     0     0</v>
   <i type="logical" name="LTCTC"> F  </i>
   <i type="logical" name="LTCTE"> F  </i>
   <i type="logical" name="LTETE"> F  </i>
   <i type="logical" name="LTRIPLET"> F  </i>
   <i type="logical" name="LFXCEPS"> F  </i>
   <i type="logical" name="LFXHEG"> F  </i>
   <i type="int" name="NATURALO">     2</i>
   <i type="logical" name="LHOLEGF"> F  </i>
   <i type="logical" name="L2ORDER"> F  </i>
   <i type="logical" name="LDMP1"> F  </i>
   <i type="logical" name="LMP2LT"> F  </i>
   <i type="logical" name="LSMP2LT"> F  </i>
   <i type="logical" name="LGWLF"> F  </i>
   <i name="ENCUTGW">     -2.00000000</i>
   <i name="ENCUTGWSOFT">     -2.00000000</i>
   <i name="ENCUTLF">     -1.00000000</i>
   <i type="logical" name="LESF_SPLINES"> F  </i>
   <i type="int" name="LMAXMP2">    -1</i>
   <i name="SCISSOR">      0.00000000</i>
   <i type="int" name="NOMEGA">     0</i>
   <i type="int" name="NOMEGAR">     0</i>
   <i type="int" name="NBANDSGW">    -1</i>
   <i type="int" name="NBANDSO">    -1</i>
   <i type="int" name="NBANDSV">    -1</i>
   <i type="int" name="NELMGW">     1</i>
   <i type="int" name="NELMHF">     1</i>
   <i type="int" name="DIM">     3</i>
   <i type="int" name="IESPILON">     4</i>
   <i type="int" name="ANTIRES">     0</i>
   <i name="OMEGAMAX">    -30.00000000</i>
   <i name="OMEGAMIN">    -30.00000000</i>
   <i name="OMEGATL">   -200.00000000</i>
   <i type="int" name="OMEGAGRID">     0</i>
   <i name="CSHIFT">     -0.10000000</i>
   <i type="logical" name="LSELFENERGY"> F  </i>
   <i type="logical" name="LSPECTRAL"> F  </i>
   <i type="logical" name="LSPECTRALGW"> F  </i>
   <i type="logical" name="LSINGLES"> F  </i>
   <i type="logical" name="LFERMIGW"> F  </i>
   <i type="logical" name="ODDONLYGW"> F  </i>
   <i type="logical" name="EVENONLYGW"> F  </i>
   <i type="int" name="NKREDLFX">     1</i>
   <i type="int" name="NKREDLFY">     1</i>
   <i type="int" name="NKREDLFZ">     1</i>
   <i type="int" name="MAXMEM">  2800</i>
   <i type="int" name="TELESCOPE">     0</i>
   <i type="int" name="NTAUPAR">    -1</i>
   <i type="int" name="NOMEGAPAR">    -1</i>
   <i name="DAMP_NEWTON">      0.80000001</i>
   <i name="LAMBDA">      1.00000000</i>
  </separator>
  <separator name="External order field" >
   <i name="OFIELD_KAPPA">      0.00000000</i>
   <v name="OFIELD_K">      0.00000000      0.00000000      0.00000000</v>
   <i name="OFIELD_Q6_NEAR">      0.00000000</i>
   <i name="OFIELD_Q6_FAR">      0.00000000</i>
   <i name="OFIELD_A">      0.00000000</i>
  </separator>
  <separator name="optional k-points parameters" >
   <i type="int" name="KPOINTS_OPT_MODE">     1</i>
   <i type="logical" name="LKPOINTS_OPT"> F  </i>
  </separator>
  <separator name="solvation model" >
   <i type="logical" name="LSOL"> F  </i>
  </separator>
 </parameters>
 <atominfo>
  <atoms>      57 </atoms>
  <types>       3 </types>
  <array name="atoms" >
   <dimension dim="1">ion</dimension>
   <field type="string">element</field>
   <field type="int">atomtype</field>
   <set>
    <rc><c>C </c><c>   1</c></rc>
    <rc><c>C </c><c>   1</c></rc>
    <rc><c>C </c><c>   1</c></rc>
    <rc><c>C </c><c>   1</c></rc>
    <rc><c>C </c><c>   1</c></rc>
    <rc><c>C </c><c>   1</c></rc>
    <rc><c>C </c><c>   1</c></rc>
    <rc><c>C </c><c>   1</c></rc>
    <rc><c>C </c><c>   1</c></rc>
    <rc><c>C </c><c>   1</c></rc>
    <rc><c>C </c><c>   1</c></rc>
    <rc><c>C </c><c>   1</c></rc>
    <rc><c>C </c><c>   1</c></rc>
    <rc><c>C </c><c>   1</c></rc>
    <rc><c>C </c><c>   1</c></rc>
    <rc><c>C </c><c>   1</c></rc>
    <rc><c>C </c><c>   1</c></rc>
    <rc><c>C </c><c>   1</c></rc>
    <rc><c>C </c><c>   1</c></rc>
    <rc><c>C </c><c>   1</c></rc>
    <rc><c>C </c><c>   1</c></rc>
    <rc><c>C </c><c>   1</c></rc>
    <rc><c>C </c><c>   1</c></rc>
    <rc><c>C </c><c>   1</c></rc>
    <rc><c>N </c><c>   2</c></rc>
    <rc><c>N </c><c>   2</c></rc>
    <rc><c>N </c><c>   2</c></rc>
    <rc><c>N </c><c>   2</c></rc>
    <rc><c>N </c><c>   2</c></rc>
    <rc><c>N </c><c>   2</c></rc>
    <rc><c>N </c><c>   2</c></rc>
    <rc><c>N </c><c>   2</c></rc>
    <rc><c>N </c><c>   2</c></rc>
    <rc><c>N </c><c>   2</c></rc>
    <rc><c>N </c><c>   2</c></rc>
    <rc><c>N </c><c>   2</c></rc>
    <rc><c>N </c><c>   2</c></rc>
    <rc><c>N </c><c>   2</c></rc>
    <rc><c>N </c><c>   2</c></rc>
    <rc><c>N </c><c>   2</c></rc>
    <rc><c>N </c><c>   2</c></rc>
    <rc><c>N </c><c>   2</c></rc>
    <rc><c>N </c><c>   2</c></rc>
    <rc><c>N </c><c>   2</c></rc>
    <rc><c>N </c><c>   2</c></rc>
    <rc><c>N </c><c>   2</c></rc>
    <rc><c>N </c><c>   2</c></rc>
    <rc><c>N </c><c>   2</c></rc>
    <rc><c>N </c><c>   2</c></rc>
    <rc><c>N </c><c>   2</c></rc>
    <rc><c>N </c><c>   2</c></rc>
    <rc><c>N </c><c>   2</c></rc>
    <rc><c>N </c><c>   2</c></rc>
    <rc><c>N </c><c>   2</c></rc>
    <rc><c>N </c><c>   2</c></rc>
    <rc><c>N </c><c>   2</c></rc>
    <rc><c>Au</c><c>   3</c></rc>
   </set>
  </array>
  <array name="atomtypes" >
   <dimension dim="1">type</dimension>
   <field type="int">atomspertype</field>
   <field type="string">element</field>
   <field>mass</field>
   <field>valence</field>
   <field type="string">pseudopotential</field>
   <set>
    <rc><c>  24</c><c>C </c><c>     12.01100000</c><c>      4.00000000</c><c>  PAW_PBE C 08Apr2002                   </c></rc>
    <rc><c>  32</c><c>N </c><c>     14.00100000</c><c>      5.00000000</c><c>  PAW_PBE N 08Apr2002                   </c></rc>
    <rc><c>   1</c><c>Au</c><c>    196.96600000</c><c>     11.00000000</c><c>  PAW_PBE Au 04Oct2007                  </c></rc>
   </set>
  </array>
 </atominfo>
 <structure name="initialpos" >
  <crystal>
   <varray name="basis" >
    <v>      14.20606433       0.00000000       0.00000000 </v>
    <v>       0.00000000      12.30194432       0.00000000 </v>
    <v>       0.00000000       0.00000000      15.00000000 </v>
   </varray>
   <i name="volume">   2621.43318603 </i>
   <varray name="rec_basis" >
    <v>       0.07039247       0.00000000       0.00000000 </v>
    <v>       0.00000000       0.08128796       0.00000000 </v>
    <v>       0.00000000       0.00000000       0.06666667 </v>
   </varray>
  </crystal>
  <varray name="positions" >
   <v>       0.06552924       0.40428224       0.13332883 </v>
   <v>       0.98073506       0.23448653       0.13331251 </v>
   <v>       0.22596849       0.39800742       0.13332693 </v>
   <v>       0.81567713       0.57598150       0.13353271 </v>
   <v>       0.15032739       0.23448907       0.13330756 </v>
   <v>       0.90510567       0.39801215       0.13332888 </v>
   <v>       0.56563600       0.40060460       0.13329290 </v>
   <v>       0.48003275       0.23339915       0.13319118 </v>
   <v>       0.72699959       0.39816605       0.13349143 </v>
   <v>       0.31530345       0.57604443       0.13352705 </v>
   <v>       0.65113845       0.23332886       0.13318734 </v>
   <v>       0.40417946       0.39830929       0.13352891 </v>
   <v>       0.81593183       0.90524123       0.13322179 </v>
   <v>       0.73312683       0.73613388       0.13336762 </v>
   <v>       0.97653404       0.89849251       0.13330997 </v>
   <v>       0.90130094       0.73428418       0.13317397 </v>
   <v>       0.65436077       0.89869394       0.13351908 </v>
   <v>       0.31496386       0.90544683       0.13320054 </v>
   <v>       0.22958188       0.73436464       0.13316012 </v>
   <v>       0.47652118       0.89889576       0.13350049 </v>
   <v>       0.39765408       0.73641312       0.13329011 </v>
   <v>       0.15435104       0.89855068       0.13332563 </v>
   <v>       0.06547629       0.07689847       0.13331367 </v>
   <v>       0.56552517       0.07636274       0.13331407 </v>
   <v>       0.98386097       0.45673230       0.13331657 </v>
   <v>       0.90051323       0.29005212       0.13328011 </v>
   <v>       0.14721891       0.45673085       0.13330434 </v>
   <v>       0.14879978       0.12682943       0.13328696 </v>
   <v>       0.98217053       0.12681964       0.13329527 </v>
   <v>       0.23059373       0.29004466       0.13328360 </v>
   <v>       0.06553126       0.29123103       0.13334958 </v>
   <v>       0.81521451       0.45792350       0.13337048 </v>
   <v>       0.48537906       0.45596222       0.13372761 </v>
   <v>       0.40076577       0.29045513       0.13359709 </v>
   <v>       0.64589040       0.45583435       0.13368861 </v>
   <v>       0.64915874       0.12611856       0.13341956 </v>
   <v>       0.48192703       0.12618043       0.13340833 </v>
   <v>       0.73044688       0.29029081       0.13357859 </v>
   <v>       0.56559013       0.28963346       0.13259239 </v>
   <v>       0.31590167       0.45800614       0.13338786 </v>
   <v>       0.73355117       0.95613998       0.13361729 </v>
   <v>       0.65156945       0.78886389       0.13372214 </v>
   <v>       0.89721800       0.95709144       0.13344107 </v>
   <v>       0.89834841       0.62653391       0.13351279 </v>
   <v>       0.73194305       0.62829732       0.13384847 </v>
   <v>       0.98071775       0.78992791       0.13338564 </v>
   <v>       0.81644402       0.79170529       0.13265331 </v>
   <v>       0.56546383       0.95729815       0.13335126 </v>
   <v>       0.23365512       0.95719332       0.13346882 </v>
   <v>       0.15016184       0.78998079       0.13343866 </v>
   <v>       0.39733392       0.95635363       0.13363927 </v>
   <v>       0.39900206       0.62855329       0.13381154 </v>
   <v>       0.23263864       0.62660872       0.13355684 </v>
   <v>       0.47919533       0.78908611       0.13366660 </v>
   <v>       0.31441659       0.79189183       0.13253209 </v>
   <v>       0.06544380       0.95787743       0.13331123 </v>
   <v>       0.56413024       0.62436563       0.13731276 </v>
  </varray>
 </structure>
 <calculation>
  <scstep>
   <time name="dav">    1.71    1.72</time>
   <time name="total">    1.75    1.76</time>
   <dipole>
    <v name="dipole">      0.00000000       0.00000000       0.00044001 </v>
    <i name="Tr[quadrupol]">  -8076.01384883 </i>
    <i name="Echarged">      0.00000000 </i>
    <i name="Edipol_quadrupol">      0.00000000 </i>
    <i name="Eion">      0.00000000 </i>
   </dipole>
   <energy>
    <i name="alphaZ">    131.22751481 </i>
    <i name="ewald">  28039.58296201 </i>
    <i name="hartreedc"> -38355.09308442 </i>
    <i name="XCdc">    971.42810703 </i>
    <i name="pawpsdc">  10036.47402805 </i>
    <i name="pawaedc"> -10065.16388987 </i>
    <i name="eentropy">     -0.08770196 </i>
    <i name="bandstr">  -1229.50977644 </i>
    <i name="atom">  12920.33396893 </i>
    <i name="e_fr_energy">   2449.19212814 </i>
    <i name="e_wo_entrp">   2449.27983010 </i>
    <i name="e_0_energy">   2449.23597912 </i>
   </energy>
  </scstep>
  <scstep>
   <time name="dav">    1.96    1.96</time>
   <time name="total">    1.96    1.96</time>
   <dipole>
    <v name="dipole">      0.00000000       0.00000000       0.00044001 </v>
    <i name="Tr[quadrupol]">  -8076.01384883 </i>
    <i name="Echarged">      0.00000000 </i>
    <i name="Edipol_quadrupol">      0.00000000 </i>
    <i name="Eion">      0.00000000 </i>
   </dipole>
   <energy>
    <i name="e_fr_energy">     13.61742533 </i>
    <i name="e_wo_entrp">     13.64044290 </i>
    <i name="e_0_energy">     13.62893411 </i>
   </energy>
  </scstep>
  <scstep>
   <time name="dav">    1.70    1.70</time>
   <time name="total">    1.70    1.70</time>
   <dipole>
    <v name="dipole">      0.00000000       0.00000000       0.00044001 </v>
    <i name="Tr[quadrupol]">  -8076.01384883 </i>
    <i name="Echarged">      0.00000000 </i>
    <i name="Edipol_quadrupol">      0.00000000 </i>
    <i name="Eion">      0.00000000 </i>
   </dipole>
   <energy>
    <i name="e_fr_energy">   -489.95194016 </i>
    <i name="e_wo_entrp">   -489.86947470 </i>
    <i name="e_0_energy">   -489.91070743 </i>
   </energy>
  </scstep>
  <scstep>
   <time name="dav">    1.69    1.69</time>
   <time name="total">    1.69    1.69</time>
   <dipole>
    <v name="dipole">      0.00000000       0.00000000       0.00044001 </v>
    <i name="Tr[quadrupol]">  -8076.01384883 </i>
    <i name="Echarged">      0.00000000 </i>
    <i name="Edipol_quadrupol">      0.00000000 </i>
    <i name="Eion">      0.00000000 </i>
   </dipole>
   <energy>
    <i name="e_fr_energy">   -507.66199771 </i>
    <i name="e_wo_entrp">   -507.56002947 </i>
    <i name="e_0_energy">   -507.61101359 </i>
   </energy>
  </scstep>
  <scstep>
   <time name="dav">    1.85    1.85</time>
   <time name="total">    1.89    1.90</time>
   <dipole>
    <v name="dipole">      0.00000000       0.00000000       0.00044001 </v>
    <i name="Tr[quadrupol]">  -8076.01384883 </i>
    <i name="Echarged">      0.00000000 </i>
    <i name="Edipol_quadrupol">      0.00000000 </i>
    <i name="Eion">      0.00000000 </i>
   </dipole>
   <energy>
    <i name="e_fr_energy">   -508.32750087 </i>
    <i name="e_wo_entrp">   -508.22563144 </i>
    <i name="e_0_energy">   -508.27656615 </i>
   </energy>
  </scstep>
  <scstep>
   <time name="dav">    1.61    1.61</time>
   <time name="total">    1.69    1.69</time>
   <dipole>
    <v name="dipole">      0.00000000       0.00000000      -0.05663532 </v>
    <i name="Tr[quadrupol]">  -8077.32025721 </i>
    <i name="Echarged">      0.00000000 </i>
    <i name="Edipol_quadrupol">      0.00000000 </i>
    <i name="Eion">      0.00000000 </i>
   </dipole>
   <energy>
    <i name="e_fr_energy">   -476.59197907 </i>
    <i name="e_wo_entrp">   -476.51960299 </i>
    <i name="e_0_energy">   -476.55579103 </i>
   </energy>
  </scstep>
  <scstep>
   <time name="dav">    1.65    1.65</time>
   <time name="total">    1.73    1.73</time>
   <dipole>
    <v name="dipole">      0.00000000       0.00000000      -0.01828942 </v>
    <i name="Tr[quadrupol]">  -8078.48144882 </i>
    <i name="Echarged">      0.00000000 </i>
    <i name="Edipol_quadrupol">      0.00000000 </i>
    <i name="Eion">      0.00000000 </i>
   </dipole>
   <energy>
    <i name="e_fr_energy">   -473.10835533 </i>
    <i name="e_wo_entrp">   -473.03326974 </i>
    <i name="e_0_energy">   -473.07081254 </i>
   </energy>
  </scstep>
  <scstep>
   <time name="dav">    1.64    1.64</time>
   <time name="total">    1.72    1.73</time>
   <dipole>
    <v name="dipole">      0.00000000       0.00000000      -0.04800140 </v>
    <i name="Tr[quadrupol]">  -8079.99983665 </i>
    <i name="Echarged">      0.00000000 </i>
    <i name="Edipol_quadrupol">      0.00000000 </i>
    <i name="Eion">      0.00000000 </i>
   </dipole>
   <energy>
    <i name="e_fr_energy">   -471.91872832 </i>
    <i name="e_wo_entrp">   -471.84906313 </i>
    <i name="e_0_energy">   -471.88389572 </i>
   </energy>
  </scstep>
  <scstep>
   <time name="dav">    1.71    1.72</time>
   <time name="total">    1.80    1.81</time>
   <dipole>
    <v name="dipole">      0.00000000       0.00000000      -0.03834694 </v>
    <i name="Tr[quadrupol]">  -8080.78475183 </i>
    <i name="Echarged">      0.00000000 </i>
    <i name="Edipol_quadrupol">      0.00000000 </i>
    <i name="Eion">      0.00000000 </i>
   </dipole>
   <energy>
    <i name="e_fr_energy">   -471.79323696 </i>
    <i name="e_wo_entrp">   -471.71947114 </i>
    <i name="e_0_energy">   -471.75635405 </i>
   </energy>
  </scstep>
  <scstep>
   <time name="dav">    1.69    1.69</time>
   <time name="total">    1.77    1.77</time>
   <dipole>
    <v name="dipole">      0.00000000       0.00000000       0.00346589 </v>
    <i name="Tr[quadrupol]">  -8081.37082124 </i>
    <i name="Echarged">      0.00000000 </i>
    <i name="Edipol_quadrupol">      0.00000000 </i>
    <i name="Eion">      0.00000000 </i>
   </dipole>
   <energy>
    <i name="e_fr_energy">   -471.76998574 </i>
    <i name="e_wo_entrp">   -471.69779851 </i>
    <i name="e_0_energy">   -471.73389213 </i>
   </energy>
  </scstep>
  <scstep>
   <time name="dav">    1.61    1.61</time>
   <time name="total">    1.69    1.69</time>
   <dipole>
    <v name="dipole">      0.00000000       0.00000000       0.00374236 </v>
    <i name="Tr[quadrupol]">  -8081.96126736 </i>
    <i name="Echarged">      0.00000000 </i>
    <i name="Edipol_quadrupol">      0.00000000 </i>
    <i name="Eion">      0.00000000 </i>
   </dipole>
   <energy>
    <i name="e_fr_energy">   -471.75723541 </i>
    <i name="e_wo_entrp">   -471.68322520 </i>
    <i name="e_0_energy">   -471.72023031 </i>
   </energy>
  </scstep>
  <scstep>
   <time name="dav">    1.61    1.61</time>
   <time name="total">    1.69    1.69</time>
   <dipole>
    <v name="dipole">      0.00000000       0.00000000       0.00869228 </v>
    <i name="Tr[quadrupol]">  -8082.78221855 </i>
    <i name="Echarged">      0.00000000 </i>
    <i name="Edipol_quadrupol">      0.00000000 </i>
    <i name="Eion">      0.00000000 </i>
   </dipole>
   <energy>
    <i name="e_fr_energy">   -471.75143331 </i>
    <i name="e_wo_entrp">   -471.67732360 </i>
    <i name="e_0_energy">   -471.71437845 </i>
   </energy>
  </scstep>
  <scstep>
   <time name="dav">    1.58    1.58</time>
   <time name="total">    1.67    1.67</time>
   <dipole>
    <v name="dipole">      0.00000000       0.00000000       0.01236308 </v>
    <i name="Tr[quadrupol]">  -8083.75477613 </i>
    <i name="Echarged">      0.00000000 </i>
    <i name="Edipol_quadrupol">      0.00000000 </i>
    <i name="Eion">      0.00000000 </i>
   </dipole>
   <energy>
    <i name="e_fr_energy">   -471.75052771 </i>
    <i name="e_wo_entrp">   -471.67672469 </i>
    <i name="e_0_energy">   -471.71362620 </i>
   </energy>
  </scstep>
  <scstep>
   <time name="dav">    1.58    1.58</time>
   <time name="total">    1.68    1.68</time>
   <dipole>
    <v name="dipole">      0.00000000       0.00000000       0.16861130 </v>
    <i name="Tr[quadrupol]">  -8085.25593589 </i>
    <i name="Echarged">      0.00000000 </i>
    <i name="Edipol_quadrupol">      0.00000000 </i>
    <i name="Eion">      0.00000000 </i>
   </dipole>
   <energy>
    <i name="e_fr_energy">   -471.75298658 </i>
    <i name="e_wo_entrp">   -471.67910380 </i>
    <i name="e_0_energy">   -471.71604519 </i>
   </energy>
  </scstep>
  <scstep>
   <time name="dav">    1.63    1.63</time>
   <time name="total">    1.71    1.72</time>
   <dipole>
    <v name="dipole">      0.00000000       0.00000000       0.23973059 </v>
    <i name="Tr[quadrupol]">  -8085.85545241 </i>
    <i name="Echarged">      0.00000000 </i>
    <i name="Edipol_quadrupol">      0.00000000 </i>
    <i name="Eion">      0.00000000 </i>
   </dipole>
   <energy>
    <i name="e_fr_energy">   -471.75594348 </i>
    <i name="e_wo_entrp">   -471.68206567 </i>
    <i name="e_0_energy">   -471.71900458 </i>
   </energy>
  </scstep>
  <scstep>
   <time name="dav">    1.54    1.55</time>
   <time name="total">    1.62    1.63</time>
   <dipole>
    <v name="dipole">      0.00000000       0.00000000       0.19022838 </v>
    <i name="Tr[quadrupol]">  -8086.50376377 </i>
    <i name="Echarged">      0.00000000 </i>
    <i name="Edipol_quadrupol">      0.00000000 </i>
    <i name="Eion">      0.00000000 </i>
   </dipole>
   <energy>
    <i name="e_fr_energy">   -471.76002193 </i>
    <i name="e_wo_entrp">   -471.68612627 </i>
    <i name="e_0_energy">   -471.72307410 </i>
   </energy>
  </scstep>
  <scstep>
   <time name="dav">    1.67    1.67</time>
   <time name="total">    1.75    1.75</time>
   <dipole>
    <v name="dipole">      0.00000000       0.00000000       0.16192494 </v>
    <i name="Tr[quadrupol]">  -8086.63660118 </i>
    <i name="Echarged">      0.00000000 </i>
    <i name="Edipol_quadrupol">      0.00000000 </i>
    <i name="Eion">      0.00000000 </i>
   </dipole>
   <energy>
    <i name="e_fr_energy">   -471.76131903 </i>
    <i name="e_wo_entrp">   -471.68741614 </i>
    <i name="e_0_energy">   -471.72436759 </i>
   </energy>
  </scstep>
  <scstep>
   <time name="dav">    1.49    1.49</time>
   <time name="total">    1.57    1.57</time>
   <dipole>
    <v name="dipole">      0.00000000       0.00000000       0.12613869 </v>
    <i name="Tr[quadrupol]">  -8086.79426394 </i>
    <i name="Echarged">      0.00000000 </i>
    <i name="Edipol_quadrupol">      0.00000000 </i>
    <i name="Eion">      0.00000000 </i>
   </dipole>
   <energy>
    <i name="e_fr_energy">   -471.76341906 </i>
    <i name="e_wo_entrp">   -471.68952031 </i>
    <i name="e_0_energy">   -471.72646968 </i>
   </energy>
  </scstep>
  <scstep>
   <time name="dav">    1.57    1.57</time>
   <time name="total">    1.64    1.64</time>
   <dipole>
    <v name="dipole">      0.00000000       0.00000000       0.07711760 </v>
    <i name="Tr[quadrupol]">  -8087.01567319 </i>
    <i name="Echarged">      0.00000000 </i>
    <i name="Edipol_quadrupol">      0.00000000 </i>
    <i name="Eion">      0.00000000 </i>
   </dipole>
   <energy>
    <i name="e_fr_energy">   -471.76662390 </i>
    <i name="e_wo_entrp">   -471.69273035 </i>
    <i name="e_0_energy">   -471.72967712 </i>
   </energy>
  </scstep>
  <scstep>
   <time name="dav">    1.48    1.48</time>
   <time name="total">    1.56    1.56</time>
   <dipole>
    <v name="dipole">      0.00000000       0.00000000       0.04397650 </v>
    <i name="Tr[quadrupol]">  -8087.12501485 </i>
    <i name="Echarged">      0.00000000 </i>
    <i name="Edipol_quadrupol">      0.00000000 </i>
    <i name="Eion">      0.00000000 </i>
   </dipole>
   <energy>
    <i name="e_fr_energy">   -471.76831239 </i>
    <i name="e_wo_entrp">   -471.69440505 </i>
    <i name="e_0_energy">   -471.73135872 </i>
   </energy>
  </scstep>
  <scstep>
   <time name="dav">    1.38    1.38</time>
   <time name="total">    1.46    1.46</time>
   <dipole>
    <v name="dipole">      0.00000000       0.00000000       0.01781886 </v>
    <i name="Tr[quadrupol]">  -8087.21428314 </i>
    <i name="Echarged">      0.00000000 </i>
    <i name="Edipol_quadrupol">      0.00000000 </i>
    <i name="Eion">      0.00000000 </i>
   </dipole>
   <energy>
    <i name="e_fr_energy">   -471.76939342 </i>
    <i name="e_wo_entrp">   -471.69548577 </i>
    <i name="e_0_energy">   -471.73243960 </i>
   </energy>
  </scstep>
  <scstep>
   <time name="dav">    1.20    1.20</time>
   <time name="total">    1.29    1.29</time>
   <dipole>
    <v name="dipole">      0.00000000       0.00000000       0.01081026 </v>
    <i name="Tr[quadrupol]">  -8087.23622014 </i>
    <i name="Echarged">      0.00000000 </i>
    <i name="Edipol_quadrupol">      0.00000000 </i>
    <i name="Eion">      0.00000000 </i>
   </dipole>
   <energy>
    <i name="e_fr_energy">   -471.76961592 </i>
    <i name="e_wo_entrp">   -471.69570660 </i>
    <i name="e_0_energy">   -471.73266126 </i>
   </energy>
  </scstep>
  <scstep>
   <time name="dav">    1.12    1.12</time>
   <time name="total">    1.20    1.20</time>
   <dipole>
    <v name="dipole">      0.00000000       0.00000000       0.00654926 </v>
    <i name="Tr[quadrupol]">  -8087.25423303 </i>
    <i name="Echarged">      0.00000000 </i>
    <i name="Edipol_quadrupol">      0.00000000 </i>
    <i name="Eion">      0.00000000 </i>
   </dipole>
   <energy>
    <i name="e_fr_energy">   -471.76976519 </i>
    <i name="e_wo_entrp">   -471.69586069 </i>
    <i name="e_0_energy">   -471.73281294 </i>
   </energy>
  </scstep>
  <scstep>
   <time name="dav">    1.14    1.14</time>
   <time name="total">    1.22    1.22</time>
   <dipole>
    <v name="dipole">      0.00000000       0.00000000       0.00558359 </v>
    <i name="Tr[quadrupol]">  -8087.26189541 </i>
    <i name="Echarged">      0.00000000 </i>
    <i name="Edipol_quadrupol">      0.00000000 </i>
    <i name="Eion">      0.00000000 </i>
   </dipole>
   <energy>
    <i name="e_fr_energy">   -471.76979011 </i>
    <i name="e_wo_entrp">   -471.69588444 </i>
    <i name="e_0_energy">   -471.73283727 </i>
   </energy>
  </scstep>
  <scstep>
   <time name="dav">    1.08    1.08</time>
   <time name="total">    1.12    1.12</time>
   <dipole>
    <v name="dipole">      0.00000000       0.00000000       0.00636678 </v>
    <i name="Tr[quadrupol]">  -8087.26626273 </i>
    <i name="Echarged">      0.00000000 </i>
    <i name="Edipol_quadrupol">      0.00000000 </i>
    <i name="Eion">      0.00000000 </i>
   </dipole>
   <energy>
    <i name="alphaZ">    131.32138779 </i>
    <i name="ewald">  28039.58296201 </i>
    <i name="hartreedc"> -39176.47566142 </i>
    <i name="XCdc">   1004.58557980 </i>
    <i name="pawpsdc">  28659.90634329 </i>
    <i name="pawaedc"> -28699.95350034 </i>
    <i name="eentropy">     -0.07390649 </i>
    <i name="bandstr">  -3350.99696942 </i>
    <i name="atom">  12920.33396893 </i>
    <i name="e_fr_energy">   -471.76979586 </i>
    <i name="e_wo_entrp">   -471.69588936 </i>
    <i name="e_0_energy">   -471.73284261 </i>
   </energy>
  </scstep>
  <structure>
   <crystal>
    <varray name="basis" >
     <v>      14.20606433       0.00000000       0.00000000 </v>
     <v>       0.00000000      12.30194432       0.00000000 </v>
     <v>       0.00000000       0.00000000      15.00000000 </v>
    </varray>
    <i name="volume">   2621.43318603 </i>
    <varray name="rec_basis" >
     <v>       0.07039247       0.00000000       0.00000000 </v>
     <v>       0.00000000       0.08128796       0.00000000 </v>
     <v>       0.00000000       0.00000000       0.06666667 </v>
    </varray>
   </crystal>
   <varray name="positions" >
    <v>       0.06552924       0.40428224       0.13332883 </v>
    <v>       0.98073506       0.23448653       0.13331251 </v>
    <v>       0.22596849       0.39800742       0.13332693 </v>
    <v>       0.81567713       0.57598150       0.13353271 </v>
    <v>       0.15032739       0.23448907       0.13330756 </v>
    <v>       0.90510567       0.39801215       0.13332888 </v>
    <v>       0.56563600       0.40060460       0.13329290 </v>
    <v>       0.48003275       0.23339915       0.13319118 </v>
    <v>       0.72699959       0.39816605       0.13349143 </v>
    <v>       0.31530345       0.57604443       0.13352705 </v>
    <v>       0.65113845       0.23332886       0.13318734 </v>
    <v>       0.40417946       0.39830929       0.13352891 </v>
    <v>       0.81593183       0.90524123       0.13322179 </v>
    <v>       0.73312683       0.73613388       0.13336762 </v>
    <v>       0.97653404       0.89849251       0.13330997 </v>
    <v>       0.90130094       0.73428418       0.13317397 </v>
    <v>       0.65436077       0.89869394       0.13351908 </v>
    <v>       0.31496386       0.90544683       0.13320054 </v>
    <v>       0.22958188       0.73436464       0.13316012 </v>
    <v>       0.47652118       0.89889576       0.13350049 </v>
    <v>       0.39765408       0.73641312       0.13329011 </v>
    <v>       0.15435104       0.89855068       0.13332563 </v>
    <v>       0.06547629       0.07689847       0.13331367 </v>
    <v>       0.56552517       0.07636274       0.13331407 </v>
    <v>       0.98386097       0.45673230       0.13331657 </v>
    <v>       0.90051323       0.29005212       0.13328011 </v>
    <v>       0.14721891       0.45673085       0.13330434 </v>
    <v>       0.14879978       0.12682943       0.13328696 </v>
    <v>       0.98217053       0.12681964       0.13329527 </v>
    <v>       0.23059373       0.29004466       0.13328360 </v>
    <v>       0.06553126       0.29123103       0.13334958 </v>
    <v>       0.81521451       0.45792350       0.13337048 </v>
    <v>       0.48537906       0.45596222       0.13372761 </v>
    <v>       0.40076577       0.29045513       0.13359709 </v>
    <v>       0.64589040       0.45583435       0.13368861 </v>
    <v>       0.64915874       0.12611856       0.13341956 </v>
    <v>       0.48192703       0.12618043       0.13340833 </v>
    <v>       0.73044688       0.29029081       0.13357859 </v>
    <v>       0.56559013       0.28963346       0.13259239 </v>
    <v>       0.31590167       0.45800614       0.13338786 </v>
    <v>       0.73355117       0.95613998       0.13361729 </v>
    <v>       0.65156945       0.78886389       0.13372214 </v>
    <v>       0.89721800       0.95709144       0.13344107 </v>
    <v>       0.89834841       0.62653391       0.13351279 </v>
    <v>       0.73194305       0.62829732       0.13384847 </v>
    <v>       0.98071775       0.78992791       0.13338564 </v>
    <v>       0.81644402       0.79170529       0.13265331 </v>
    <v>       0.56546383       0.95729815       0.13335126 </v>
    <v>       0.23365512       0.95719332       0.13346882 </v>
    <v>       0.15016184       0.78998079       0.13343866 </v>
    <v>       0.39733392       0.95635363       0.13363927 </v>
    <v>       0.39900206       0.62855329       0.13381154 </v>
    <v>       0.23263864       0.62660872       0.13355684 </v>
    <v>       0.47919533       0.78908611       0.13366660 </v>
    <v>       0.31441659       0.79189183       0.13253209 </v>
    <v>       0.06544380       0.95787743       0.13331123 </v>
    <v>       0.56413024       0.62436563       0.13731276 </v>
   </varray>
  </structure>
  <varray name="forces" >
   <v>       0.00342240      -0.00083402      -0.00102110 </v>
   <v>       0.01107067       0.01744275      -0.00155458 </v>
   <v>       0.00512538       0.00543536       0.00105204 </v>
   <v>       0.09494155       0.00382917       0.00624963 </v>
   <v>      -0.01005780       0.01075073      -0.00237994 </v>
   <v>      -0.00066621       0.00598926       0.00064905 </v>
   <v>       0.01515459      -0.27051874      -0.00891982 </v>
   <v>      -0.01186630       0.02434554      -0.00498325 </v>
   <v>       0.04641437      -0.08408588       0.00434015 </v>
   <v>      -0.10158038       0.00653288       0.00604817 </v>
   <v>       0.01033710       0.02999551      -0.00496529 </v>
   <v>      -0.04812707      -0.07683622       0.00419146 </v>
   <v>      -0.01286459      -0.00387375      -0.00208688 </v>
   <v>       0.22855856       0.11637847      -0.00606736 </v>
   <v>      -0.02083826       0.00542778      -0.00030253 </v>
   <v>      -0.00534440      -0.01280414      -0.00586296 </v>
   <v>       0.04612850       0.06451879       0.00451446 </v>
   <v>       0.00878598      -0.00609462      -0.00309698 </v>
   <v>       0.00540748      -0.01384800      -0.00514599 </v>
   <v>      -0.06199388       0.07283149       0.00436114 </v>
   <v>      -0.25659081       0.14589994      -0.01083310 </v>
   <v>       0.01722529       0.00313307       0.00011365 </v>
   <v>       0.00020692      -0.00342956      -0.00179266 </v>
   <v>       0.00171459       0.03525780       0.00153321 </v>
   <v>       0.00032671      -0.00458158      -0.00266768 </v>
   <v>       0.02469805       0.01166755      -0.00473466 </v>
   <v>       0.00178316      -0.01002872      -0.00343211 </v>
   <v>      -0.01398939       0.00847903      -0.00521397 </v>
   <v>       0.01065891       0.01107505      -0.00441190 </v>
   <v>      -0.02249512       0.00650036      -0.00473350 </v>
   <v>      -0.00005221      -0.00148316       0.00570067 </v>
   <v>      -0.02593965       0.00697998       0.00187473 </v>
   <v>      -0.35040516      -0.82765298      -0.03338992 </v>
   <v>      -0.01485449      -0.01735557       0.01787941 </v>
   <v>       0.34156174      -0.77611289      -0.03349925 </v>
   <v>      -0.00113181      -0.00292026       0.00199150 </v>
   <v>      -0.00603155       0.00834787       0.00252509 </v>
   <v>       0.02070939      -0.02065796       0.01842334 </v>
   <v>      -0.00554626       0.06674624      -0.01694506 </v>
   <v>       0.03485872       0.01139766       0.00132378 </v>
   <v>      -0.01851243       0.01111675       0.01753039 </v>
   <v>       0.51796773       0.64019901      -0.02971791 </v>
   <v>      -0.02689891       0.00721637       0.00642058 </v>
   <v>       0.01502419      -0.00131781       0.01343004 </v>
   <v>       0.79752978       0.08786689      -0.02037533 </v>
   <v>       0.00194498       0.00506113       0.00192256 </v>
   <v>      -0.06889224      -0.03609790      -0.01853733 </v>
   <v>      -0.00212118      -0.01737520       0.00053503 </v>
   <v>       0.01422281       0.00409579       0.00686392 </v>
   <v>      -0.00452573      -0.00532407       0.00374296 </v>
   <v>       0.00825063       0.02033808       0.01928351 </v>
   <v>      -0.90904896       0.08105295      -0.02769326 </v>
   <v>      -0.01640743      -0.00190179       0.01530328 </v>
   <v>      -0.53026049       0.70444944      -0.03642620 </v>
   <v>       0.06810295      -0.04621736      -0.02186946 </v>
   <v>       0.00015733      -0.01448899       0.00006513 </v>
   <v>       0.19475225       0.01548245       0.15479109 </v>
  </varray>
  <varray name="stress" >
   <v>       4.04958389      -0.16935006       0.01052931 </v>
   <v>      -0.16935006       4.07119336       0.00085118 </v>
   <v>       0.01052933       0.00085117     -12.34741454 </v>
  </varray>
  <energy>
   <i name="e_fr_energy">   -471.76979586 </i>
   <i name="e_wo_entrp">   -471.69588936 </i>
   <i name="e_0_energy">   -471.73284261 </i>
  </energy>
  <time name="totalsc">   41.84   41.91</time>
 </calculation>
 <calculation>
  <scstep>
   <time name="dav">    1.51    1.51</time>
   <time name="total">    1.58    1.59</time>
   <dipole>
    <v name="dipole">      0.00000000       0.00000000       0.00808744 </v>
    <i name="Tr[quadrupol]">  -8101.71871935 </i>
    <i name="Echarged">      0.00000000 </i>
    <i name="Edipol_quadrupol">      0.00000000 </i>
    <i name="Eion">      0.00000000 </i>
   </dipole>
   <energy>
    <i name="alphaZ">    131.05352621 </i>
    <i name="ewald">  27960.08786229 </i>
    <i name="hartreedc"> -39093.88536396 </i>
    <i name="XCdc">   1003.94249518 </i>
    <i name="pawpsdc">  28660.12177055 </i>
    <i name="pawaedc"> -28700.16896941 </i>
    <i name="eentropy">     -0.07415797 </i>
    <i name="bandstr">  -3353.23120005 </i>
    <i name="atom">  12920.33396893 </i>
    <i name="e_fr_energy">   -471.82006823 </i>
    <i name="e_wo_entrp">   -471.74591026 </i>
    <i name="e_0_energy">   -471.78298925 </i>
   </energy>
  </scstep>
  <scstep>
   <time name="dav">    1.55    1.55</time>
   <time name="total">    1.64    1.65</time>
   <dipole>
    <v name="dipole">      0.00000000       0.00000000       0.00856001 </v>
    <i name="Tr[quadrupol]">  -8101.71951522 </i>
    <i name="Echarged">      0.00000000 </i>
    <i name="Edipol_quadrupol">      0.00000000 </i>
    <i name="Eion">      0.00000000 </i>
   </dipole>
   <energy>
    <i name="e_fr_energy">   -471.82034153 </i>
    <i name="e_wo_entrp">   -471.74623480 </i>
    <i name="e_0_energy">   -471.78328816 </i>
   </energy>
  </scstep>
  <scstep>
   <time name="dav">    1.52    1.52</time>
   <time name="total">    1.60    1.60</time>
   <dipole>
    <v name="dipole">      0.00000000       0.00000000       0.00900396 </v>
    <i name="Tr[quadrupol]">  -8101.71819740 </i>
    <i name="Echarged">      0.00000000 </i>
    <i name="Edipol_quadrupol">      0.00000000 </i>
    <i name="Eion">      0.00000000 </i>
   </dipole>
   <energy>
    <i name="e_fr_energy">   -471.81949610 </i>
    <i name="e_wo_entrp">   -471.74526827 </i>
    <i name="e_0_energy">   -471.78238219 </i>
   </energy>
  </scstep>
  <scstep>
   <time name="dav">    1.57    1.58</time>
   <time name="total">    1.65    1.65</time>
   <dipole>
    <v name="dipole">      0.00000000       0.00000000       0.00967997 </v>
    <i name="Tr[quadrupol]">  -8101.71583573 </i>
    <i name="Echarged">      0.00000000 </i>
    <i name="Edipol_quadrupol">      0.00000000 </i>
    <i name="Eion">      0.00000000 </i>
   </dipole>
   <energy>
    <i name="e_fr_energy">   -471.81929878 </i>
    <i name="e_wo_entrp">   -471.74518419 </i>
    <i name="e_0_energy">   -471.78224148 </i>
   </energy>
  </scstep>
  <scstep>
   <time name="dav">    1.53    1.53</time>
   <time name="total">    1.61    1.61</time>
   <dipole>
    <v name="dipole">      0.00000000       0.00000000       0.01011337 </v>
    <i name="Tr[quadrupol]">  -8101.71543288 </i>
    <i name="Echarged">      0.00000000 </i>
    <i name="Edipol_quadrupol">      0.00000000 </i>
    <i name="Eion">      0.00000000 </i>
   </dipole>
   <energy>
    <i name="e_fr_energy">   -471.81928200 </i>
    <i name="e_wo_entrp">   -471.74517739 </i>
    <i name="e_0_energy">   -471.78222969 </i>
   </energy>
  </scstep>
  <scstep>
   <time name="dav">    1.23    1.23</time>
   <time name="total">    1.26    1.26</time>
   <dipole>
    <v name="dipole">      0.00000000       0.00000000       0.01049835 </v>
    <i name="Tr[quadrupol]">  -8101.71553142 </i>
    <i name="Echarged">      0.00000000 </i>
    <i name="Edipol_quadrupol">      0.00000000 </i>
    <i name="Eion">      0.00000000 </i>
   </dipole>
   <energy>
    <i name="alphaZ">    131.12943028 </i>
    <i name="ewald">  27960.08786229 </i>
    <i name="hartreedc"> -39096.27146456 </i>
    <i name="XCdc">   1004.15786765 </i>
    <i name="pawpsdc">  28573.18498113 </i>
    <i name="pawaedc"> -28613.15776048 </i>
    <i name="eentropy">     -0.07411730 </i>
    <i name="bandstr">  -3351.21004879 </i>
    <i name="atom">  12920.33396893 </i>
    <i name="e_fr_energy">   -471.81928085 </i>
    <i name="e_wo_entrp">   -471.74516355 </i>
    <i name="e_0_energy">   -471.78222220 </i>
   </energy>
  </scstep>
  <structure>
   <crystal>
    <varray name="basis" >
     <v>      14.22199737       0.00000000       0.00000000 </v>
     <v>       0.00000000      12.31581539       0.00000000 </v>
     <v>       0.00000000       0.00000000      15.00000000 </v>
    </varray>
    <i name="volume">   2627.33241236 </i>
    <varray name="rec_basis" >
     <v>       0.07031361       0.00000000       0.00000000 </v>
     <v>       0.00000000       0.08119641       0.00000000 </v>
     <v>       0.00000000       0.00000000       0.06666667 </v>
    </varray>
   </crystal>
   <varray name="positions" >
    <v>       0.06553156       0.40428158       0.13332817 </v>
    <v>       0.98074258       0.23450021       0.13331151 </v>
    <v>       0.22597197       0.39801169       0.13332760 </v>
    <v>       0.81574162       0.57598450       0.13353673 </v>
    <v>       0.15032056       0.23449750       0.13330602 </v>
    <v>       0.90510522       0.39801685       0.13332930 </v>
    <v>       0.56564629       0.40039243       0.13328716 </v>
    <v>       0.48002469       0.23341824       0.13318798 </v>
    <v>       0.72703112       0.39810011       0.13349422 </v>
    <v>       0.31523446       0.57604955       0.13353094 </v>
    <v>       0.65114547       0.23335238       0.13318415 </v>
    <v>       0.40414677       0.39824902       0.13353161 </v>
    <v>       0.81592309       0.90523819       0.13322044 </v>
    <v>       0.73328207       0.73622516       0.13336371 </v>
    <v>       0.97651989       0.89849677       0.13330978 </v>
    <v>       0.90129731       0.73427413       0.13317020 </v>
    <v>       0.65439210       0.89874454       0.13352198 </v>
    <v>       0.31496983       0.90544205       0.13319855 </v>
    <v>       0.22958555       0.73435378       0.13315681 </v>
    <v>       0.47647907       0.89895288       0.13350329 </v>
    <v>       0.39747981       0.73652755       0.13328315 </v>
    <v>       0.15436273       0.89855314       0.13332570 </v>
    <v>       0.06547643       0.07689578       0.13331252 </v>
    <v>       0.56552634       0.07639039       0.13331505 </v>
    <v>       0.98386119       0.45672871       0.13331485 </v>
    <v>       0.90053001       0.29006127       0.13327707 </v>
    <v>       0.14722013       0.45672298       0.13330213 </v>
    <v>       0.14879028       0.12683608       0.13328361 </v>
    <v>       0.98217777       0.12682833       0.13329243 </v>
    <v>       0.23057845       0.29004976       0.13328055 </v>
    <v>       0.06553123       0.29122986       0.13335325 </v>
    <v>       0.81519689       0.45792898       0.13337168 </v>
    <v>       0.48514107       0.45531309       0.13370613 </v>
    <v>       0.40075569       0.29044152       0.13360859 </v>
    <v>       0.64612238       0.45522564       0.13366707 </v>
    <v>       0.64915797       0.12611627       0.13342084 </v>
    <v>       0.48192294       0.12618698       0.13340995 </v>
    <v>       0.73046095       0.29027461       0.13359044 </v>
    <v>       0.56558637       0.28968581       0.13258149 </v>
    <v>       0.31592535       0.45801508       0.13338871 </v>
    <v>       0.73353860       0.95614870       0.13362856 </v>
    <v>       0.65192124       0.78936600       0.13370303 </v>
    <v>       0.89719973       0.95709710       0.13344520 </v>
    <v>       0.89835861       0.62653288       0.13352143 </v>
    <v>       0.73248472       0.62836623       0.13383536 </v>
    <v>       0.98071907       0.78993188       0.13338687 </v>
    <v>       0.81639723       0.79167698       0.13264138 </v>
    <v>       0.56546239       0.95728452       0.13335161 </v>
    <v>       0.23366478       0.95719653       0.13347324 </v>
    <v>       0.15015877       0.78997662       0.13344106 </v>
    <v>       0.39733953       0.95636958       0.13365167 </v>
    <v>       0.39838465       0.62861686       0.13379372 </v>
    <v>       0.23262750       0.62660723       0.13356668 </v>
    <v>       0.47883518       0.78963861       0.13364317 </v>
    <v>       0.31446284       0.79185558       0.13251803 </v>
    <v>       0.06544391       0.95786606       0.13331127 </v>
    <v>       0.56426251       0.62437778       0.13741233 </v>
   </varray>
  </structure>
  <varray name="forces" >
   <v>       0.00015735      -0.00239549      -0.00048871 </v>
   <v>       0.01494610       0.00945681      -0.00131927 </v>
   <v>      -0.02855746      -0.01743589       0.00041989 </v>
   <v>       0.20700375      -0.01177122       0.00465942 </v>
   <v>      -0.01505850       0.00787121      -0.00181833 </v>
   <v>       0.03413215      -0.01401758       0.00029328 </v>
   <v>       0.00418714      -0.21721504      -0.01120827 </v>
   <v>      -0.02751071       0.01490212      -0.00328983 </v>
   <v>       0.12130846      -0.18047354       0.00354675 </v>
   <v>      -0.22880511      -0.01397722       0.00500758 </v>
   <v>       0.02370539       0.00987040      -0.00344863 </v>
   <v>      -0.11835591      -0.18306631       0.00368674 </v>
   <v>      -0.02705477       0.01106901      -0.00035687 </v>
   <v>       0.19237993       0.09569197      -0.00820588 </v>
   <v>      -0.04968118      -0.01638705       0.00024405 </v>
   <v>       0.00603180      -0.02037411      -0.00536613 </v>
   <v>       0.09119505       0.17311829       0.00295606 </v>
   <v>       0.02117331       0.01243232      -0.00211908 </v>
   <v>      -0.00951258      -0.02736102      -0.00407620 </v>
   <v>      -0.10229730       0.19451221       0.00347849 </v>
   <v>      -0.19352390       0.09862761      -0.01244671 </v>
   <v>       0.04420928      -0.02315906       0.00064296 </v>
   <v>      -0.00125449       0.04135542      -0.00187654 </v>
   <v>      -0.00092876       0.06028243       0.00179030 </v>
   <v>       0.00445180      -0.06127296      -0.00277109 </v>
   <v>       0.06939719       0.04022128      -0.00474026 </v>
   <v>       0.00055056      -0.06512881      -0.00342450 </v>
   <v>      -0.05820283       0.03956686      -0.00522912 </v>
   <v>       0.05697988       0.04192987      -0.00424070 </v>
   <v>      -0.06657709       0.03651750      -0.00476235 </v>
   <v>       0.00098691       0.00378975       0.00585600 </v>
   <v>       0.00742200      -0.00777886       0.00286689 </v>
   <v>      -0.08488235      -0.57450233      -0.02771241 </v>
   <v>       0.01074166      -0.06615317       0.01603651 </v>
   <v>       0.08515373      -0.55056623      -0.02789106 </v>
   <v>      -0.05136999       0.04688239       0.00172845 </v>
   <v>       0.04897636       0.04829064       0.00225786 </v>
   <v>      -0.01016853      -0.06645498       0.01654486 </v>
   <v>       0.00228927      -0.06740728      -0.01653998 </v>
   <v>      -0.00387207      -0.00618333       0.00239051 </v>
   <v>       0.04833381       0.00755802       0.01560908 </v>
   <v>       0.43483428       0.32359609      -0.02295287 </v>
   <v>      -0.02436511      -0.05715048       0.00646154 </v>
   <v>       0.04155993       0.04800460       0.01182464 </v>
   <v>       0.49604248       0.18906586      -0.01618664 </v>
   <v>      -0.06130035       0.03283282       0.00160651 </v>
   <v>       0.05254804       0.02865865      -0.01809639 </v>
   <v>      -0.00283077       0.01533879       0.00139892 </v>
   <v>       0.01755189      -0.06085291       0.00671424 </v>
   <v>       0.05889827       0.02621712       0.00330404 </v>
   <v>      -0.06482480       0.01895851       0.01746296 </v>
   <v>      -0.54700155       0.20666474      -0.02194906 </v>
   <v>      -0.05514557       0.05019241       0.01381630 </v>
   <v>      -0.45582738       0.34405935      -0.03033666 </v>
   <v>      -0.06436167       0.03486141      -0.02146658 </v>
   <v>       0.00003085      -0.00934174      -0.00020927 </v>
   <v>       0.15609211       0.00803015       0.13192456 </v>
  </varray>
  <varray name="stress" >
   <v>       1.85396039      -0.16244161       0.00842320 </v>
   <v>      -0.16244160       1.82882109       0.00048439 </v>
   <v>       0.00842321       0.00048439     -12.47211348 </v>
  </varray>
  <energy>
   <i name="e_fr_energy">   -471.81928085 </i>
   <i name="e_wo_entrp">   -471.74516355 </i>
   <i name="e_0_energy">   -471.78222220 </i>
  </energy>
  <time name="totalsc">   10.62   10.63</time>
 </calculation>
 <calculation>
  <scstep>
   <time name="dav">    1.44    1.44</time>
   <time name="total">    1.52    1.52</time>
   <dipole>
    <v name="dipole">      0.00000000       0.00000000       0.01060656 </v>
    <i name="Tr[quadrupol]">  -8123.85456202 </i>
    <i name="Echarged">      0.00000000 </i>
    <i name="Edipol_quadrupol">      0.00000000 </i>
    <i name="Eion">      0.00000000 </i>
   </dipole>
   <energy>
    <i name="alphaZ">    130.68186122 </i>
    <i name="ewald">  27839.30597750 </i>
    <i name="hartreedc"> -38970.53689189 </i>
    <i name="XCdc">   1003.17620892 </i>
    <i name="pawpsdc">  28574.83516476 </i>
    <i name="pawaedc"> -28614.80785512 </i>
    <i name="eentropy">     -0.07452874 </i>
    <i name="bandstr">  -3354.76389185 </i>
    <i name="atom">  12920.33396893 </i>
    <i name="e_fr_energy">   -471.84998628 </i>
    <i name="e_wo_entrp">   -471.77545754 </i>
    <i name="e_0_energy">   -471.81272191 </i>
   </energy>
  </scstep>
  <scstep>
   <time name="dav">    1.55    1.55</time>
   <time name="total">    1.63    1.64</time>
   <dipole>
    <v name="dipole">      0.00000000       0.00000000       0.01047079 </v>
    <i name="Tr[quadrupol]">  -8123.85168716 </i>
    <i name="Echarged">      0.00000000 </i>
    <i name="Edipol_quadrupol">      0.00000000 </i>
    <i name="Eion">      0.00000000 </i>
   </dipole>
   <energy>
    <i name="e_fr_energy">   -471.85060735 </i>
    <i name="e_wo_entrp">   -471.77616979 </i>
    <i name="e_0_energy">   -471.81338857 </i>
   </energy>
  </scstep>
  <scstep>
   <time name="dav">    1.52    1.52</time>
   <time name="total">    1.59    1.60</time>
   <dipole>
    <v name="dipole">      0.00000000       0.00000000       0.01059281 </v>
    <i name="Tr[quadrupol]">  -8123.84815199 </i>
    <i name="Echarged">      0.00000000 </i>
    <i name="Edipol_quadrupol">      0.00000000 </i>
    <i name="Eion">      0.00000000 </i>
   </dipole>
   <energy>
    <i name="e_fr_energy">   -471.84863850 </i>
    <i name="e_wo_entrp">   -471.77402322 </i>
    <i name="e_0_energy">   -471.81133086 </i>
   </energy>
  </scstep>
  <scstep>
   <time name="dav">    1.54    1.54</time>
   <time name="total">    1.63    1.63</time>
   <dipole>
    <v name="dipole">      0.00000000       0.00000000       0.01084887 </v>
    <i name="Tr[quadrupol]">  -8123.84215311 </i>
    <i name="Echarged">      0.00000000 </i>
    <i name="Edipol_quadrupol">      0.00000000 </i>
    <i name="Eion">      0.00000000 </i>
   </dipole>
   <energy>
    <i name="e_fr_energy">   -471.84814771 </i>
    <i name="e_wo_entrp">   -471.77370486 </i>
    <i name="e_0_energy">   -471.81092628 </i>
   </energy>
  </scstep>
  <scstep>
   <time name="dav">    1.55    1.55</time>
   <time name="total">    1.62    1.62</time>
   <dipole>
    <v name="dipole">      0.00000000       0.00000000       0.01115555 </v>
    <i name="Tr[quadrupol]">  -8123.83915329 </i>
    <i name="Echarged">      0.00000000 </i>
    <i name="Edipol_quadrupol">      0.00000000 </i>
    <i name="Eion">      0.00000000 </i>
   </dipole>
   <energy>
    <i name="e_fr_energy">   -471.84811557 </i>
    <i name="e_wo_entrp">   -471.77368492 </i>
    <i name="e_0_energy">   -471.81090025 </i>
   </energy>
  </scstep>
  <scstep>
   <time name="dav">    1.56    1.56</time>
   <time name="total">    1.60    1.60</time>
   <dipole>
    <v name="dipole">      0.00000000       0.00000000       0.01112877 </v>
    <i name="Tr[quadrupol]">  -8123.83546768 </i>
    <i name="Echarged">      0.00000000 </i>
    <i name="Edipol_quadrupol">      0.00000000 </i>
    <i name="Eion">      0.00000000 </i>
   </dipole>
   <energy>
    <i name="alphaZ">    130.69191214 </i>
    <i name="ewald">  27839.30597750 </i>
    <i name="hartreedc"> -38974.06174160 </i>
    <i name="XCdc">   1003.50585968 </i>
    <i name="pawpsdc">  28446.11246736 </i>
    <i name="pawaedc"> -28485.97633152 </i>
    <i name="eentropy">     -0.07445044 </i>
    <i name="bandstr">  -3351.68577786 </i>
    <i name="atom">  12920.33396893 </i>
    <i name="e_fr_energy">   -471.84811580 </i>
    <i name="e_wo_entrp">   -471.77366536 </i>
    <i name="e_0_energy">   -471.81089058 </i>
   </energy>
  </scstep>
  <structure>
   <crystal>
    <varray name="basis" >
     <v>      14.24638466       0.00000000       0.00000000 </v>
     <v>       0.00000000      12.33704660       0.00000000 </v>
     <v>       0.00000000       0.00000000      15.00000000 </v>
    </varray>
    <i name="volume">   2636.37467193 </i>
    <varray name="rec_basis" >
     <v>       0.07019325       0.00000000       0.00000000 </v>
     <v>       0.00000000       0.08105668       0.00000000 </v>
     <v>       0.00000000       0.00000000       0.06666667 </v>
    </varray>
   </crystal>
   <varray name="positions" >
    <v>       0.06553511       0.40428058       0.13332717 </v>
    <v>       0.98075408       0.23452113       0.13330997 </v>
    <v>       0.22597729       0.39801820       0.13332864 </v>
    <v>       0.81584020       0.57598910       0.13354288 </v>
    <v>       0.15031012       0.23451040       0.13330368 </v>
    <v>       0.90510452       0.39802403       0.13332994 </v>
    <v>       0.56566203       0.40006804       0.13327838 </v>
    <v>       0.48001237       0.23344744       0.13318307 </v>
    <v>       0.72707931       0.39799928       0.13349849 </v>
    <v>       0.31512898       0.57605739       0.13353689 </v>
    <v>       0.65115621       0.23338835       0.13317926 </v>
    <v>       0.40409680       0.39815689       0.13353573 </v>
    <v>       0.81590973       0.90523354       0.13321839 </v>
    <v>       0.73351940       0.73636471       0.13335774 </v>
    <v>       0.97649825       0.89850327       0.13330948 </v>
    <v>       0.90129176       0.73425878       0.13316443 </v>
    <v>       0.65444000       0.89882191       0.13352643 </v>
    <v>       0.31497895       0.90543474       0.13319550 </v>
    <v>       0.22959117       0.73433718       0.13315174 </v>
    <v>       0.47641470       0.89904022       0.13350759 </v>
    <v>       0.39721336       0.73670250       0.13327248 </v>
    <v>       0.15438062       0.89855690       0.13332582 </v>
    <v>       0.06547665       0.07689167       0.13331075 </v>
    <v>       0.56552812       0.07643267       0.13331656 </v>
    <v>       0.98386153       0.45672321       0.13331223 </v>
    <v>       0.90055566       0.29007526       0.13327241 </v>
    <v>       0.14722198       0.45671096       0.13329875 </v>
    <v>       0.14877575       0.12684625       0.13327847 </v>
    <v>       0.98218884       0.12684161       0.13328809 </v>
    <v>       0.23055509       0.29005756       0.13327589 </v>
    <v>       0.06553117       0.29122809       0.13335886 </v>
    <v>       0.81516995       0.45793735       0.13337353 </v>
    <v>       0.48477721       0.45432063       0.13367325 </v>
    <v>       0.40074026       0.29042071       0.13362619 </v>
    <v>       0.64647706       0.45429498       0.13363409 </v>
    <v>       0.64915680       0.12611276       0.13342280 </v>
    <v>       0.48191667       0.12619699       0.13341244 </v>
    <v>       0.73048245       0.29024984       0.13360858 </v>
    <v>       0.56558061       0.28976585       0.13256480 </v>
    <v>       0.31596155       0.45802875       0.13339001 </v>
    <v>       0.73351938       0.95616203       0.13364582 </v>
    <v>       0.65245910       0.79013368       0.13367377 </v>
    <v>       0.89717180       0.95710575       0.13345152 </v>
    <v>       0.89837421       0.62653130       0.13353466 </v>
    <v>       0.73331287       0.62847159       0.13381530 </v>
    <v>       0.98072109       0.78993795       0.13338877 </v>
    <v>       0.81632569       0.79163369       0.13262313 </v>
    <v>       0.56546018       0.95726368       0.13335214 </v>
    <v>       0.23367955       0.95720144       0.13348000 </v>
    <v>       0.15015407       0.78997023       0.13344475 </v>
    <v>       0.39734810       0.95639397       0.13367066 </v>
    <v>       0.39744069       0.62871405       0.13376646 </v>
    <v>       0.23261046       0.62660495       0.13358175 </v>
    <v>       0.47828456       0.79048333       0.13360730 </v>
    <v>       0.31453356       0.79180016       0.13249650 </v>
    <v>       0.06544407       0.95784869       0.13331134 </v>
    <v>       0.56446474       0.62439634       0.13756473 </v>
   </varray>
  </structure>
  <varray name="forces" >
   <v>      -0.00096406      -0.00829064      -0.00020100 </v>
   <v>       0.02164843      -0.00085327      -0.00057945 </v>
   <v>      -0.07947368      -0.04921658      -0.00041772 </v>
   <v>       0.38446339      -0.04037359       0.00285352 </v>
   <v>      -0.02127517       0.00422860      -0.00081456 </v>
   <v>       0.08717822      -0.04782357      -0.00034669 </v>
   <v>      -0.01383256      -0.14050568      -0.01586619 </v>
   <v>      -0.05078103      -0.00118640      -0.00179903 </v>
   <v>       0.24580430      -0.32921624       0.00156620 </v>
   <v>      -0.43223456      -0.05189367       0.00212882 </v>
   <v>       0.04321355      -0.02022234      -0.00217881 </v>
   <v>      -0.23790613      -0.35006630       0.00084596 </v>
   <v>      -0.05111032       0.03516730       0.00167385 </v>
   <v>       0.13675290       0.06363549      -0.01230251 </v>
   <v>      -0.09225466      -0.05278217       0.00160678 </v>
   <v>       0.02410219      -0.03206274      -0.00420113 </v>
   <v>       0.15966183       0.34594803       0.00023985 </v>
   <v>       0.04118296       0.04373038      -0.00053406 </v>
   <v>      -0.03013677      -0.04734741      -0.00242011 </v>
   <v>      -0.16253772       0.39084911       0.00146444 </v>
   <v>      -0.10012561       0.03145876      -0.01520773 </v>
   <v>       0.08228072      -0.06093435       0.00070740 </v>
   <v>      -0.00394566       0.10653989      -0.00196232 </v>
   <v>      -0.00490215       0.09938255       0.00265429 </v>
   <v>       0.01030404      -0.14754668      -0.00281220 </v>
   <v>       0.13744545       0.08373805      -0.00464530 </v>
   <v>      -0.00185311      -0.14899279      -0.00327041 </v>
   <v>      -0.12587501       0.08653826      -0.00521470 </v>
   <v>       0.12724514       0.08855570      -0.00398314 </v>
   <v>      -0.13458186       0.08229381      -0.00470067 </v>
   <v>       0.00230191       0.01160250       0.00593484 </v>
   <v>       0.05881519      -0.03073206       0.00426651 </v>
   <v>       0.32833430      -0.18887900      -0.02010585 </v>
   <v>       0.04763797      -0.14331230       0.01370838 </v>
   <v>      -0.31238309      -0.20663395      -0.01970400 </v>
   <v>      -0.12872273       0.12212013       0.00131206 </v>
   <v>       0.13242553       0.10904637       0.00186618 </v>
   <v>      -0.05613541      -0.13898145       0.01413958 </v>
   <v>       0.01348754      -0.27175421      -0.01594098 </v>
   <v>      -0.06439153      -0.03360951       0.00394544 </v>
   <v>       0.15134218       0.00491080       0.01325160 </v>
   <v>       0.30967832      -0.16395926      -0.01669784 </v>
   <v>      -0.02125589      -0.15471436       0.00644944 </v>
   <v>       0.08483523       0.12373522       0.00977311 </v>
   <v>       0.03298547       0.34737684      -0.01042918 </v>
   <v>      -0.15765068       0.07470732       0.00127867 </v>
   <v>       0.23735774       0.12752758      -0.01765057 </v>
   <v>      -0.00425526       0.06640209       0.00260006 </v>
   <v>       0.02161167      -0.15980922       0.00642069 </v>
   <v>       0.15489559       0.07445425       0.00260007 </v>
   <v>      -0.17752226       0.01960561       0.01518214 </v>
   <v>       0.01027005       0.40265098      -0.01514514 </v>
   <v>      -0.11750801       0.12938480       0.01197568 </v>
   <v>      -0.34364420      -0.21112170      -0.02175738 </v>
   <v>      -0.26713977       0.15839810      -0.02063014 </v>
   <v>      -0.00019679      -0.00207012      -0.00054380 </v>
   <v>       0.10733388       0.00090304       0.11161705 </v>
  </varray>
  <varray name="stress" >
   <v>      -1.40002341      -0.15227032       0.00735475 </v>
   <v>      -0.15227033      -1.49732341       0.00050779 </v>
   <v>       0.00735474       0.00050781     -12.60898280 </v>
  </varray>
  <energy>
   <i name="e_fr_energy">   -471.84811580 </i>
   <i name="e_wo_entrp">   -471.77366536 </i>
   <i name="e_0_energy">   -471.81089058 </i>
  </energy>
  <time name="totalsc">   10.86   10.87</time>
 </calculation>
 <calculation>
  <scstep>
   <time name="dav">    1.44    1.44</time>
   <time name="total">    1.51    1.51</time>
   <dipole>
    <v name="dipole">      0.00000000       0.00000000       0.01107615 </v>
    <i name="Tr[quadrupol]">  -8120.81547536 </i>
    <i name="Echarged">      0.00000000 </i>
    <i name="Edipol_quadrupol">      0.00000000 </i>
    <i name="Eion">      0.00000000 </i>
   </dipole>
   <energy>
    <i name="alphaZ">    130.65362869 </i>
    <i name="ewald">  27836.40795225 </i>
    <i name="hartreedc"> -38966.99977878 </i>
    <i name="XCdc">   1003.57007881 </i>
    <i name="pawpsdc">  28448.38206007 </i>
    <i name="pawaedc"> -28488.24584874 </i>
    <i name="eentropy">     -0.07349078 </i>
    <i name="bandstr">  -3355.90053082 </i>
    <i name="atom">  12920.33396893 </i>
    <i name="e_fr_energy">   -471.87196037 </i>
    <i name="e_wo_entrp">   -471.79846959 </i>
    <i name="e_0_energy">   -471.83521498 </i>
   </energy>
  </scstep>
  <scstep>
   <time name="dav">    1.59    1.59</time>
   <time name="total">    1.66    1.66</time>
   <dipole>
    <v name="dipole">      0.00000000       0.00000000       0.01095659 </v>
    <i name="Tr[quadrupol]">  -8120.81818298 </i>
    <i name="Echarged">      0.00000000 </i>
    <i name="Edipol_quadrupol">      0.00000000 </i>
    <i name="Eion">      0.00000000 </i>
   </dipole>
   <energy>
    <i name="e_fr_energy">   -471.87510828 </i>
[...]
    <v>       0.89568840       0.95897098       0.14214548 </v>
    <v>       0.90294442       0.62845090       0.14093768 </v>
    <v>       0.73729684       0.62699770       0.13193123 </v>
    <v>       0.98104169       0.79352989       0.13614659 </v>
    <v>       0.81766756       0.79193832       0.11699176 </v>
    <v>       0.56511777       0.95530898       0.13305800 </v>
    <v>       0.23466280       0.95831168       0.14278187 </v>
    <v>       0.14950894       0.79284031       0.13752741 </v>
    <v>       0.39754487       0.95422275       0.14378996 </v>
    <v>       0.39365634       0.62681355       0.12936773 </v>
    <v>       0.22796768       0.62808134       0.14252697 </v>
    <v>       0.47746038       0.78711476       0.12702674 </v>
    <v>       0.31259375       0.79168675       0.11554242 </v>
    <v>       0.06538297       0.96002734       0.13296229 </v>
    <v>       0.56538320       0.62456902       0.17499361 </v>
   </varray>
  </structure>
  <varray name="forces" >
   <v>      -0.00812684      -0.17220922      -0.02691027 </v>
   <v>       0.25847872      -0.24282987      -0.04690911 </v>
   <v>       0.36645314       0.15244550      -0.06834259 </v>
   <v>      -0.13744442      -0.09600521       0.05539032 </v>
   <v>      -0.23671397      -0.27866121      -0.06059957 </v>
   <v>      -0.34780401       0.11912244      -0.06044193 </v>
   <v>      -0.07377578      -0.37515739      -0.00546916 </v>
   <v>       0.20679959      -0.10478299      -0.04597010 </v>
   <v>       0.11548913       0.12171781       0.04808667 </v>
   <v>      -0.00297837      -0.14158752       0.07194429 </v>
   <v>      -0.27340064      -0.29671538      -0.03584451 </v>
   <v>      -0.11098496       0.01909401       0.07784094 </v>
   <v>      -0.04446199      -0.06400094      -0.00323283 </v>
   <v>       0.09365183       0.23169523       0.00397452 </v>
   <v>       0.01363336      -0.07744788       0.10103631 </v>
   <v>      -0.16507606      -0.00944359      -0.05875532 </v>
   <v>       0.05981830       0.17065437       0.06186396 </v>
   <v>      -0.01328944      -0.06331680       0.01371271 </v>
   <v>       0.19981886      -0.00948868      -0.03655299 </v>
   <v>      -0.04555351       0.29509681       0.05895533 </v>
   <v>      -0.07170742       0.20077038      -0.04173509 </v>
   <v>       0.00992519      -0.10536242       0.12698747 </v>
   <v>      -0.01310587       0.08712142      -0.05823032 </v>
   <v>      -0.02638433      -0.13663923       0.08755228 </v>
   <v>      -0.14371553      -0.16762591      -0.08430788 </v>
   <v>      -0.20048546       0.08940769      -0.12662049 </v>
   <v>       0.14905148      -0.15580826      -0.10257316 </v>
   <v>       0.34775186      -0.00201532      -0.13947375 </v>
   <v>      -0.39428306      -0.00068081      -0.11832451 </v>
   <v>       0.20049074       0.14827752      -0.11693542 </v>
   <v>       0.00868199       0.04043986       0.12241643 </v>
   <v>      -0.05708983      -0.11651924       0.00152504 </v>
   <v>       0.06519908       0.01685024       0.07112115 </v>
   <v>       0.11892708       0.44298106       0.01974094 </v>
   <v>       0.03558002       0.09155845       0.02967061 </v>
   <v>      -0.27045346       0.09050928       0.06275862 </v>
   <v>       0.29427733      -0.08480663       0.04503791 </v>
   <v>      -0.09209042       0.34163316       0.05518086 </v>
   <v>       0.06469948      -0.02425041      -0.09568113 </v>
   <v>       0.05160484      -0.09700742       0.01237786 </v>
   <v>      -0.01350346      -0.13710848       0.00168046 </v>
   <v>       0.08382352      -0.00632947       0.09944702 </v>
   <v>       0.28539097      -0.06791626       0.15331443 </v>
   <v>      -0.25534477      -0.14881160       0.08140165 </v>
   <v>      -0.20504481       0.18292745       0.00405109 </v>
   <v>       0.10452864       0.04615948      -0.00034015 </v>
   <v>       0.11420036       0.13102577      -0.10759506 </v>
   <v>       0.00818288      -0.06970747       0.06402734 </v>
   <v>      -0.30760882      -0.06291064       0.16069233 </v>
   <v>      -0.15375940       0.12816879       0.03519271 </v>
   <v>       0.05820254      -0.17818523       0.02496508 </v>
   <v>       0.19341631       0.33380224      -0.06646948 </v>
   <v>       0.41144304      -0.15337772       0.09821048 </v>
   <v>      -0.08907286      -0.05706930      -0.00698477 </v>
   <v>      -0.09511022       0.16188916      -0.06202571 </v>
   <v>      -0.02481115       0.07033677       0.05237155 </v>
   <v>      -0.04633942      -0.00990636      -0.32620308 </v>
  </varray>
  <varray name="stress" >
   <v>       1.14542206      -0.20674752      -0.02155193 </v>
   <v>      -0.20674750       0.25609632      -0.04679624 </v>
   <v>      -0.02155192      -0.04679623     -12.22695621 </v>
  </varray>
  <energy>
   <i name="e_fr_energy">   -472.12569614 </i>
   <i name="e_wo_entrp">   -472.05370566 </i>
   <i name="e_0_energy">   -472.08970090 </i>
  </energy>
  <time name="totalsc">   11.99   12.00</time>
 </calculation>
 <calculation>
  <scstep>
   <time name="dav">    1.47    1.47</time>
   <time name="total">    1.55    1.55</time>
   <dipole>
    <v name="dipole">      0.00000000       0.00000000       0.15581736 </v>
    <i name="Tr[quadrupol]">  -8018.99785942 </i>
    <i name="Echarged">      0.00000000 </i>
    <i name="Edipol_quadrupol">      0.00000000 </i>
    <i name="Eion">      0.00000000 </i>
   </dipole>
   <energy>
    <i name="alphaZ">    131.42419646 </i>
    <i name="ewald">  27890.43225908 </i>
    <i name="hartreedc"> -39026.20253363 </i>
    <i name="XCdc">   1003.84471493 </i>
    <i name="pawpsdc">  28524.25659212 </i>
    <i name="pawaedc"> -28563.68663420 </i>
    <i name="eentropy">     -0.07132081 </i>
    <i name="bandstr">  -3352.47132868 </i>
    <i name="atom">  12920.33396893 </i>
    <i name="e_fr_energy">   -472.14008579 </i>
    <i name="e_wo_entrp">   -472.06876498 </i>
    <i name="e_0_energy">   -472.10442539 </i>
   </energy>
  </scstep>
  <scstep>
   <time name="dav">    1.62    1.62</time>
   <time name="total">    1.70    1.70</time>
   <dipole>
    <v name="dipole">      0.00000000       0.00000000       0.15801893 </v>
    <i name="Tr[quadrupol]">  -8019.05304982 </i>
    <i name="Echarged">      0.00000000 </i>
    <i name="Edipol_quadrupol">      0.00000000 </i>
    <i name="Eion">      0.00000000 </i>
   </dipole>
   <energy>
    <i name="e_fr_energy">   -472.15825794 </i>
    <i name="e_wo_entrp">   -472.08711499 </i>
    <i name="e_0_energy">   -472.12268647 </i>
   </energy>
  </scstep>
  <scstep>
   <time name="dav">    1.73    1.73</time>
   <time name="total">    1.82    1.82</time>
   <dipole>
    <v name="dipole">      0.00000000       0.00000000       0.15864590 </v>
    <i name="Tr[quadrupol]">  -8019.07975836 </i>
    <i name="Echarged">      0.00000000 </i>
    <i name="Edipol_quadrupol">      0.00000000 </i>
    <i name="Eion">      0.00000000 </i>
   </dipole>
   <energy>
    <i name="e_fr_energy">   -472.15636322 </i>
    <i name="e_wo_entrp">   -472.08477303 </i>
    <i name="e_0_energy">   -472.12056812 </i>
   </energy>
  </scstep>
  <scstep>
   <time name="dav">    1.61    1.61</time>
   <time name="total">    1.69    1.70</time>
   <dipole>
    <v name="dipole">      0.00000000       0.00000000       0.15982045 </v>
    <i name="Tr[quadrupol]">  -8019.07538039 </i>
    <i name="Echarged">      0.00000000 </i>
    <i name="Edipol_quadrupol">      0.00000000 </i>
    <i name="Eion">      0.00000000 </i>
   </dipole>
   <energy>
    <i name="e_fr_energy">   -472.15649136 </i>
    <i name="e_wo_entrp">   -472.08507973 </i>
    <i name="e_0_energy">   -472.12078555 </i>
   </energy>
  </scstep>
  <scstep>
   <time name="dav">    1.63    1.63</time>
   <time name="total">    1.71    1.71</time>
   <dipole>
    <v name="dipole">      0.00000000       0.00000000       0.16060958 </v>
    <i name="Tr[quadrupol]">  -8019.04384633 </i>
    <i name="Echarged">      0.00000000 </i>
    <i name="Edipol_quadrupol">      0.00000000 </i>
    <i name="Eion">      0.00000000 </i>
   </dipole>
   <energy>
    <i name="e_fr_energy">   -472.15663268 </i>
    <i name="e_wo_entrp">   -472.08489991 </i>
    <i name="e_0_energy">   -472.12076629 </i>
   </energy>
  </scstep>
  <scstep>
   <time name="dav">    1.65    1.65</time>
   <time name="total">    1.72    1.73</time>
   <dipole>
    <v name="dipole">      0.00000000       0.00000000       0.16123437 </v>
    <i name="Tr[quadrupol]">  -8019.01125228 </i>
    <i name="Echarged">      0.00000000 </i>
    <i name="Edipol_quadrupol">      0.00000000 </i>
    <i name="Eion">      0.00000000 </i>
   </dipole>
   <energy>
    <i name="e_fr_energy">   -472.15668322 </i>
    <i name="e_wo_entrp">   -472.08514119 </i>
    <i name="e_0_energy">   -472.12091221 </i>
   </energy>
  </scstep>
  <scstep>
   <time name="dav">    1.15    1.15</time>
   <time name="total">    1.22    1.22</time>
   <dipole>
    <v name="dipole">      0.00000000       0.00000000       0.16175869 </v>
    <i name="Tr[quadrupol]">  -8018.97887786 </i>
    <i name="Echarged">      0.00000000 </i>
    <i name="Edipol_quadrupol">      0.00000000 </i>
    <i name="Eion">      0.00000000 </i>
   </dipole>
   <energy>
    <i name="e_fr_energy">   -472.15670645 </i>
    <i name="e_wo_entrp">   -472.08513915 </i>
    <i name="e_0_energy">   -472.12092280 </i>
   </energy>
  </scstep>
  <scstep>
   <time name="dav">    1.10    1.10</time>
   <time name="total">    1.18    1.18</time>
   <dipole>
    <v name="dipole">      0.00000000       0.00000000       0.16262938 </v>
    <i name="Tr[quadrupol]">  -8019.00714732 </i>
    <i name="Echarged">      0.00000000 </i>
    <i name="Edipol_quadrupol">      0.00000000 </i>
    <i name="Eion">      0.00000000 </i>
   </dipole>
   <energy>
    <i name="e_fr_energy">   -472.15672721 </i>
    <i name="e_wo_entrp">   -472.08515596 </i>
    <i name="e_0_energy">   -472.12094159 </i>
   </energy>
  </scstep>
  <scstep>
   <time name="dav">    1.11    1.11</time>
   <time name="total">    1.18    1.18</time>
   <dipole>
    <v name="dipole">      0.00000000       0.00000000       0.16307949 </v>
    <i name="Tr[quadrupol]">  -8019.00570091 </i>
    <i name="Echarged">      0.00000000 </i>
    <i name="Edipol_quadrupol">      0.00000000 </i>
    <i name="Eion">      0.00000000 </i>
   </dipole>
   <energy>
    <i name="e_fr_energy">   -472.15673808 </i>
    <i name="e_wo_entrp">   -472.08516653 </i>
    <i name="e_0_energy">   -472.12095230 </i>
   </energy>
  </scstep>
  <scstep>
   <time name="dav">    1.07    1.07</time>
   <time name="total">    1.10    1.10</time>
   <dipole>
    <v name="dipole">      0.00000000       0.00000000       0.16352910 </v>
    <i name="Tr[quadrupol]">  -8019.00419959 </i>
    <i name="Echarged">      0.00000000 </i>
    <i name="Edipol_quadrupol">      0.00000000 </i>
    <i name="Eion">      0.00000000 </i>
   </dipole>
   <energy>
    <i name="alphaZ">    131.70130797 </i>
    <i name="ewald">  27890.43225908 </i>
    <i name="hartreedc"> -39023.71770814 </i>
    <i name="XCdc">   1003.73949169 </i>
    <i name="pawpsdc">  28520.19580000 </i>
    <i name="pawaedc"> -28559.60084157 </i>
    <i name="eentropy">     -0.07156859 </i>
    <i name="bandstr">  -3355.16945733 </i>
    <i name="atom">  12920.33396893 </i>
    <i name="e_fr_energy">   -472.15674795 </i>
    <i name="e_wo_entrp">   -472.08517936 </i>
    <i name="e_0_energy">   -472.12096366 </i>
   </energy>
  </scstep>
  <structure>
   <crystal>
    <varray name="basis" >
     <v>      14.17707438       0.00000000       0.00000000 </v>
     <v>       0.00000000      12.26749181       0.00000000 </v>
     <v>       0.00000000       0.00000000      15.00000000 </v>
    </varray>
    <i name="volume">   2608.75715749 </i>
    <varray name="rec_basis" >
     <v>       0.07053641       0.00000000       0.00000000 </v>
     <v>       0.00000000       0.08151626       0.00000000 </v>
     <v>       0.00000000       0.00000000       0.06666667 </v>
    </varray>
   </crystal>
   <varray name="positions" >
    <v>       0.06581675       0.40537118       0.13316233 </v>
    <v>       0.98137404       0.23543186       0.13225014 </v>
    <v>       0.22535584       0.39835993       0.13144471 </v>
    <v>       0.82049106       0.57599594       0.13499847 </v>
    <v>       0.15007707       0.23523117       0.13186059 </v>
    <v>       0.90631204       0.39881844       0.13164248 </v>
    <v>       0.56578635       0.40008627       0.12337642 </v>
    <v>       0.47939656       0.23293146       0.13263927 </v>
    <v>       0.72828552       0.39703223       0.13416712 </v>
    <v>       0.31054511       0.57604110       0.13463415 </v>
    <v>       0.65180435       0.23286834       0.13288205 </v>
    <v>       0.40325079       0.39758607       0.13432216 </v>
    <v>       0.81529635       0.90538616       0.13365051 </v>
    <v>       0.73509796       0.73451532       0.12499292 </v>
    <v>       0.97596466       0.90151957       0.13581878 </v>
    <v>       0.90287843       0.73581868       0.13125837 </v>
    <v>       0.65370228       0.89659387       0.13437261 </v>
    <v>       0.31507695       0.90509726       0.13397238 </v>
    <v>       0.22761004       0.73536498       0.13178403 </v>
    <v>       0.47626172       0.89656510       0.13379091 </v>
    <v>       0.39537256       0.73453526       0.12237125 </v>
    <v>       0.15444298       0.90097462       0.13630500 </v>
    <v>       0.06571745       0.07728192       0.12993608 </v>
    <v>       0.56535978       0.07580348       0.13473378 </v>
    <v>       0.98468076       0.45831706       0.12974825 </v>
    <v>       0.90138116       0.29090563       0.12805507 </v>
    <v>       0.14705180       0.45793306       0.12889838 </v>
    <v>       0.14869128       0.12756711       0.12651135 </v>
    <v>       0.98284664       0.12779475       0.12783895 </v>
    <v>       0.23023943       0.29043210       0.12818516 </v>
    <v>       0.06577671       0.29217683       0.14003112 </v>
    <v>       0.81752541       0.45792902       0.13435324 </v>
    <v>       0.48464423       0.45459060       0.12815498 </v>
    <v>       0.40022053       0.28953015       0.14311420 </v>
    <v>       0.64718396       0.45391527       0.12711574 </v>
    <v>       0.64927329       0.12547486       0.13785022 </v>
    <v>       0.48149891       0.12563071       0.13741342 </v>
    <v>       0.73118474       0.28911714       0.14356105 </v>
    <v>       0.56557670       0.28880655       0.11724924 </v>
    <v>       0.31396968       0.45791019       0.13426282 </v>
    <v>       0.73252167       0.95412086       0.14254625 </v>
    <v>       0.65274451       0.78652331       0.13050657 </v>
    <v>       0.89572881       0.95867638       0.14301109 </v>
    <v>       0.90255642       0.62839538       0.14153225 </v>
    <v>       0.73693299       0.62698153       0.13187013 </v>
    <v>       0.98099618       0.79334189       0.13636791 </v>
    <v>       0.81755253       0.79193784       0.11571723 </v>
    <v>       0.56510692       0.95538925       0.13313824 </v>
    <v>       0.23460204       0.95805318       0.14370451 </v>
    <v>       0.14951792       0.79275074       0.13789454 </v>
    <v>       0.39762530       0.95394911       0.14449735 </v>
    <v>       0.39395109       0.62690261       0.12904609 </v>
    <v>       0.22836292       0.62806414       0.14326790 </v>
    <v>       0.47752754       0.78708108       0.12670174 </v>
    <v>       0.31264516       0.79173108       0.11421930 </v>
    <v>       0.06537605       0.95984468       0.13302269 </v>
    <v>       0.56538651       0.62451831       0.17645653 </v>
   </varray>
  </structure>
  <varray name="forces" >
   <v>       0.00225413       0.00340989      -0.03536130 </v>
   <v>      -0.04580672      -0.11633861      -0.06043178 </v>
   <v>       0.21791602       0.03716310      -0.07407725 </v>
   <v>      -0.23175604      -0.09466045       0.05069911 </v>
   <v>       0.06184044      -0.14086543      -0.07255890 </v>
   <v>      -0.21803655      -0.00283433      -0.06750304 </v>
   <v>      -0.00993673      -0.20982194       0.00622816 </v>
   <v>       0.12665448      -0.01759626      -0.03681211 </v>
   <v>       0.07255337       0.15176202       0.04374915 </v>
   <v>       0.17892282      -0.12142253       0.05278237 </v>
   <v>      -0.15905268      -0.11246177      -0.02504874 </v>
   <v>      -0.07149315       0.11423560       0.06720562 </v>
   <v>       0.05826290      -0.01074565       0.01507499 </v>
   <v>       0.05023235       0.17609478       0.01492837 </v>
   <v>       0.03886576      -0.05903893       0.10146349 </v>
   <v>      -0.06859123      -0.02243290      -0.03665786 </v>
   <v>       0.00094496       0.06466521       0.05427228 </v>
   <v>      -0.09860659      -0.02988194       0.03223796 </v>
   <v>       0.09832939       0.00010523      -0.01065704 </v>
   <v>       0.01672768       0.14378150       0.04094829 </v>
   <v>      -0.04998291       0.19113919      -0.03964062 </v>
   <v>      -0.04299056      -0.07042292       0.12229998 </v>
   <v>      -0.02218405       0.19322783      -0.06209551 </v>
   <v>      -0.01265476      -0.23469778       0.08312972 </v>
   <v>      -0.14777141      -0.13081769      -0.08038137 </v>
   <v>      -0.11744693       0.00948430      -0.12087762 </v>
   <v>       0.15583785      -0.11314038      -0.09928133 </v>
   <v>       0.22859024      -0.11045175      -0.14082081 </v>
   <v>      -0.26799347      -0.11803388      -0.11959253 </v>
   <v>       0.11565350       0.04376889      -0.11122108 </v>
   <v>       0.00713046      -0.02923542       0.12176831 </v>
   <v>      -0.08008903      -0.05117578       0.00299656 </v>
   <v>       0.10345326      -0.01836809       0.06986944 </v>
   <v>       0.17577442       0.24833679       0.01604599 </v>
   <v>      -0.05897003       0.03890260       0.01764391 </v>
   <v>      -0.18825397      -0.01424330       0.07040946 </v>
   <v>       0.17818359      -0.08888207       0.04872639 </v>
   <v>      -0.16074770       0.17690959       0.04911981 </v>
   <v>       0.04286029      -0.11797472      -0.07597069 </v>
   <v>       0.07713121      -0.04590150       0.01623186 </v>
   <v>       0.04347808      -0.04117222       0.00023918 </v>
   <v>       0.06821095       0.05571112       0.10344252 </v>
   <v>       0.17269543      -0.06628291       0.14139432 </v>
   <v>      -0.20399811      -0.08082959       0.07142719 </v>
   <v>      -0.10850036       0.18993335       0.00232866 </v>
   <v>       0.02124798      -0.02502362      -0.01854387 </v>
   <v>       0.14188130       0.12469312      -0.08529301 </v>
   <v>       0.01690128      -0.01917849       0.07709617 </v>
   <v>      -0.18372465      -0.05366755       0.15117496 </v>
   <v>      -0.03853222       0.00437811       0.01730187 </v>
   <v>      -0.02051511      -0.08602424       0.02960662 </v>
   <v>       0.07189516       0.25231108      -0.06183447 </v>
   <v>       0.31818637      -0.07187829       0.09133721 </v>
   <v>      -0.05413647       0.05109454      -0.00791827 </v>
   <v>      -0.13970310       0.16867717      -0.02733940 </v>
   <v>      -0.01973959       0.08919054       0.06209215 </v>
   <v>      -0.04140155      -0.00347263      -0.37535349 </v>
  </varray>
  <varray name="stress" >
   <v>       0.62648662      -0.24969276      -0.02662635 </v>
   <v>      -0.24969275       0.54293442      -0.04810532 </v>
   <v>      -0.02662635      -0.04810532     -12.24021440 </v>
  </varray>
  <energy>
   <i name="e_fr_energy">   -472.15674795 </i>
   <i name="e_wo_entrp">   -472.08517936 </i>
   <i name="e_0_energy">   -472.12096366 </i>
  </energy>
  <time name="totalsc">   16.17   16.19</time>
 </calculation>
 <calculation>
