slab_Cel1-OPT                           
           1
    14.206064    0.000000    0.000000
     0.000000   12.301944    0.000000
     0.000000    0.000000   15.000000
   C    N    Au
    24    32     1
Direct configuration=     1
   0.06552924  0.40428224  0.13332883
   0.98073506  0.23448653  0.13331251
   0.22596849  0.39800742  0.13332693
   0.81567713  0.57598150  0.13353271
   0.15032739  0.23448907  0.13330756
   0.90510567  0.39801215  0.13332888
   0.56563600  0.40060460  0.13329290
   0.48003275  0.23339915  0.13319118
   0.72699959  0.39816605  0.13349143
   0.31530345  0.57604443  0.13352705
   0.65113845  0.23332886  0.13318734
   0.40417946  0.39830929  0.13352891
   0.81593183  0.90524123  0.13322179
   0.73312683  0.73613388  0.13336762
   0.97653404  0.89849251  0.13330997
   0.90130094  0.73428418  0.13317397
   0.65436077  0.89869394  0.13351908
   0.31496386  0.90544683  0.13320054
   0.22958188  0.73436464  0.13316012
   0.47652118  0.89889576  0.13350049
   0.39765408  0.73641312  0.13329011
   0.15435104  0.89855068  0.13332563
   0.06547629  0.07689847  0.13331367
   0.56552517  0.07636274  0.13331407
   0.98386097  0.45673230  0.13331657
   0.90051323  0.29005212  0.13328011
   0.14721891  0.45673085  0.13330434
   0.14879978  0.12682943  0.13328696
   0.98217053  0.12681964  0.13329527
   0.23059373  0.29004466  0.13328360
   0.06553126  0.29123103  0.13334958
   0.81521451  0.45792350  0.13337048
   0.48537906  0.45596222  0.13372761
   0.40076577  0.29045513  0.13359709
   0.64589040  0.45583435  0.13368861
   0.64915874  0.12611856  0.13341956
   0.48192703  0.12618043  0.13340833
   0.73044688  0.29029081  0.13357859
   0.56559013  0.28963346  0.13259239
   0.31590167  0.45800614  0.13338786
   0.73355117  0.95613998  0.13361729
   0.65156945  0.78886389  0.13372214
   0.89721800  0.95709144  0.13344107
   0.89834841  0.62653391  0.13351279
   0.73194305  0.62829732  0.13384847
   0.98071775  0.78992791  0.13338564
   0.81644402  0.79170529  0.13265331
   0.56546383  0.95729815  0.13335126
   0.23365512  0.95719332  0.13346882
   0.15016184  0.78998079  0.13343866
   0.39733392  0.95635363  0.13363927
   0.39900206  0.62855329  0.13381154
   0.23263864  0.62660872  0.13355684
   0.47919533  0.78908611  0.13366660
   0.31441659  0.79189183  0.13253209
   0.06544380  0.95787743  0.13331123
   0.56413024  0.62436563  0.13731276
slab_Cel1-OPT                           
           1
    14.221997    0.000000    0.000000
     0.000000   12.315815    0.000000
     0.000000    0.000000   15.000000
   C    N    Au
    24    32     1
Direct configuration=     2
   0.06553156  0.40428158  0.13332817
   0.98074258  0.23450021  0.13331151
   0.22597197  0.39801169  0.13332760
   0.81574162  0.57598450  0.13353673
   0.15032056  0.23449750  0.13330602
   0.90510522  0.39801685  0.13332930
   0.56564629  0.40039243  0.13328716
   0.48002469  0.23341824  0.13318798
   0.72703112  0.39810011  0.13349422
   0.31523446  0.57604955  0.13353094
   0.65114547  0.23335238  0.13318415
   0.40414677  0.39824902  0.13353161
   0.81592309  0.90523819  0.13322044
   0.73328207  0.73622516  0.13336371
   0.97651989  0.89849677  0.13330978
   0.90129731  0.73427413  0.13317020
   0.65439210  0.89874454  0.13352198
   0.31496983  0.90544205  0.13319855
   0.22958555  0.73435378  0.13315681
   0.47647907  0.89895288  0.13350329
   0.39747981  0.73652755  0.13328315
   0.15436273  0.89855314  0.13332570
   0.06547643  0.07689578  0.13331252
   0.56552634  0.07639039  0.13331505
   0.98386119  0.45672871  0.13331485
   0.90053001  0.29006127  0.13327707
   0.14722013  0.45672298  0.13330213
   0.14879028  0.12683608  0.13328361
   0.98217777  0.12682833  0.13329243
   0.23057845  0.29004976  0.13328055
   0.06553123  0.29122986  0.13335325
   0.81519689  0.45792898  0.13337168
   0.48514107  0.45531309  0.13370613
   0.40075569  0.29044152  0.13360859
   0.64612238  0.45522564  0.13366707
   0.64915797  0.12611627  0.13342084
   0.48192294  0.12618698  0.13340995
   0.73046095  0.29027461  0.13359044
   0.56558637  0.28968581  0.13258149
   0.31592535  0.45801508  0.13338871
   0.73353860  0.95614870  0.13362856
   0.65192124  0.78936600  0.13370303
   0.89719973  0.95709710  0.13344520
   0.89835861  0.62653288  0.13352143
   0.73248472  0.62836623  0.13383536
   0.98071907  0.78993188  0.13338687
   0.81639723  0.79167698  0.13264138
   0.56546239  0.95728452  0.13335161
   0.23366478  0.95719653  0.13347324
   0.15015877  0.78997662  0.13344106
   0.39733953  0.95636958  0.13365167
   0.39838465  0.62861686  0.13379372
   0.23262750  0.62660723  0.13356668
   0.47883518  0.78963861  0.13364317
   0.31446284  0.79185558  0.13251803
   0.06544391  0.95786606  0.13331127
   0.56426251  0.62437778  0.13741233
slab_Cel1-OPT                           
           1
    14.246385    0.000000    0.000000
     0.000000   12.337047    0.000000
     0.000000    0.000000   15.000000
   C    N    Au
    24    32     1
Direct configuration=     3
   0.06553511  0.40428058  0.13332717
   0.98075408  0.23452113  0.13330997
   0.22597729  0.39801820  0.13332864
   0.81584020  0.57598910  0.13354288
   0.15031012  0.23451040  0.13330368
   0.90510452  0.39802403  0.13332994
   0.56566203  0.40006804  0.13327838
   0.48001237  0.23344744  0.13318307
   0.72707931  0.39799928  0.13349849
   0.31512898  0.57605739  0.13353689
   0.65115621  0.23338835  0.13317926
   0.40409680  0.39815689  0.13353573
   0.81590973  0.90523354  0.13321839
   0.73351940  0.73636471  0.13335774
   0.97649825  0.89850327  0.13330948
   0.90129176  0.73425878  0.13316443
   0.65444000  0.89882191  0.13352643
   0.31497895  0.90543474  0.13319550
   0.22959117  0.73433718  0.13315174
   0.47641470  0.89904022  0.13350759
   0.39721336  0.73670250  0.13327248
   0.15438062  0.89855690  0.13332582
   0.06547665  0.07689167  0.13331075
   0.56552812  0.07643267  0.13331656
   0.98386153  0.45672321  0.13331223
   0.90055566  0.29007526  0.13327241
   0.14722198  0.45671096  0.13329875
   0.14877575  0.12684625  0.13327847
   0.98218884  0.12684161  0.13328809
   0.23055509  0.29005756  0.13327589
   0.06553117  0.29122809  0.13335886
   0.81516995  0.45793735  0.13337353
   0.48477721  0.45432063  0.13367325
   0.40074026  0.29042071  0.13362619
   0.64647706  0.45429498  0.13363409
   0.64915680  0.12611276  0.13342280
   0.48191667  0.12619699  0.13341244
   0.73048245  0.29024984  0.13360858
   0.56558061  0.28976585  0.13256480
   0.31596155  0.45802875  0.13339001
   0.73351938  0.95616203  0.13364582
   0.65245910  0.79013368  0.13367377
   0.89717180  0.95710575  0.13345152
   0.89837421  0.62653130  0.13353466
   0.73331287  0.62847159  0.13381530
   0.98072109  0.78993795  0.13338877
   0.81632569  0.79163369  0.13262313
   0.56546018  0.95726368  0.13335214
   0.23367955  0.95720144  0.13348000
   0.15015407  0.78997023  0.13344475
   0.39734810  0.95639397  0.13367066
   0.39744069  0.62871405  0.13376646
   0.23261046  0.62660495  0.13358175
   0.47828456  0.79048333  0.13360730
   0.31453356  0.79180016  0.13249650
   0.06544407  0.95784869  0.13331134
   0.56446474  0.62439634  0.13756473
slab_Cel1-OPT                           
           1
    14.248643    0.000000    0.000000
     0.000000   12.338610    0.000000
     0.000000    0.000000   15.000000
   C    N    Au
    24    32     1
Direct configuration=     4
   0.06553564  0.40427173  0.13332661
   0.98077769  0.23452838  0.13330889
   0.22590906  0.39797046  0.13332869
   0.81621858  0.57594964  0.13354767
   0.15028724  0.23451972  0.13330209
   0.90518137  0.39797797  0.13332990
   0.56565591  0.39979853  0.13326164
   0.47996266  0.23345756  0.13317965
   0.72731547  0.39762383  0.13350147
   0.31470566  0.57600742  0.13354100
   0.65119860  0.23338166  0.13317552
   0.40386694  0.39776351  0.13353805
   0.81585934  0.90526766  0.13321900
   0.73373255  0.73648391  0.13334508
   0.97640824  0.89845189  0.13331071
   0.90131093  0.73422007  0.13315865
   0.65459983  0.89920534  0.13352836
   0.31501893  0.90547657  0.13319387
   0.22956669  0.73428236  0.13314774
   0.47624592  0.89947338  0.13351049
   0.39702131  0.73680258  0.13325555
   0.15446035  0.89849611  0.13332645
   0.06547324  0.07699890  0.13330842
   0.56552447  0.07655061  0.13331938
   0.98387078  0.45657036  0.13330884
   0.90068720  0.29016624  0.13326669
   0.14722106  0.45655409  0.13329469
   0.14865877  0.12693860  0.13327210
   0.98230570  0.12693723  0.13328305
   0.23042697  0.29014465  0.13327013
   0.06553319  0.29123925  0.13336603
   0.81521152  0.45790920  0.13337783
   0.48492633  0.45374225  0.13364357
   0.40077641  0.29026624  0.13364456
   0.64633848  0.45372247  0.13360470
   0.64904248  0.12623615  0.13342466
   0.48203138  0.12631227  0.13341497
   0.73044115  0.29009825  0.13362752
   0.56559030  0.28951934  0.13254492
   0.31591865  0.45799973  0.13339383
   0.73364579  0.95617222  0.13366367
   0.65294193  0.79026434  0.13364836
   0.89714214  0.95695107  0.13345940
   0.89845531  0.62665708  0.13354801
   0.73366369  0.62886736  0.13379874
   0.98058242  0.79001662  0.13339058
   0.81650787  0.79174715  0.13260120
   0.56545556  0.95732342  0.13335452
   0.23370441  0.95704011  0.13348802
   0.15028926  0.79004381  0.13344837
   0.39719439  0.95642347  0.13369080
   0.39708317  0.62916310  0.13374313
   0.23249990  0.62673623  0.13359767
   0.47776673  0.79059574  0.13357507
   0.31432472  0.79194044  0.13247079
   0.06544396  0.95783983  0.13331091
   0.56463823  0.62440447  0.13771779
slab_Cel1-OPT                           
           1
    14.250258    0.000000    0.000000
     0.000000   12.339727    0.000000
     0.000000    0.000000   15.000000
   C    N    Au
    24    32     1
Direct configuration=     5
   0.06553602  0.40426539  0.13332621
   0.98079457  0.23453357  0.13330812
   0.22586028  0.39793633  0.13332873
   0.81648905  0.57592143  0.13355110
   0.15027089  0.23452639  0.13330094
   0.90523630  0.39794505  0.13332987
   0.56565153  0.39960589  0.13324966
   0.47992713  0.23346480  0.13317720
   0.72748427  0.39735545  0.13350360
   0.31440308  0.57597170  0.13354393
   0.65122891  0.23337688  0.13317286
   0.40370264  0.39748233  0.13353971
   0.81582331  0.90529205  0.13321943
   0.73388490  0.73656912  0.13333603
   0.97634390  0.89841515  0.13331159
   0.90132463  0.73419239  0.13315452
   0.65471408  0.89947942  0.13352974
   0.31504750  0.90550648  0.13319270
   0.22954919  0.73424318  0.13314488
   0.47612528  0.89978302  0.13351256
   0.39688403  0.73687412  0.13324345
   0.15451734  0.89845266  0.13332691
   0.06547081  0.07707556  0.13330675
   0.56552187  0.07663491  0.13332140
   0.98387738  0.45646110  0.13330642
   0.90078122  0.29023126  0.13326260
   0.14722040  0.45644197  0.13329179
   0.14857514  0.12700461  0.13326754
   0.98238922  0.12700557  0.13327945
   0.23033539  0.29020690  0.13326601
   0.06553463  0.29124723  0.13337116
   0.81524123  0.45788909  0.13338091
   0.48503293  0.45332882  0.13362235
   0.40080225  0.29015582  0.13365769
   0.64623942  0.45331323  0.13358369
   0.64896076  0.12632435  0.13342600
   0.48211338  0.12639467  0.13341679
   0.73041162  0.28998990  0.13364105
   0.56559723  0.28934313  0.13253071
   0.31588798  0.45797898  0.13339656
   0.73373614  0.95617951  0.13367643
   0.65328705  0.79035774  0.13363019
   0.89712095  0.95684051  0.13346503
   0.89851329  0.62674699  0.13355756
   0.73391445  0.62915025  0.13378689
   0.98048330  0.79007286  0.13339187
   0.81663809  0.79182825  0.13258552
   0.56545226  0.95736612  0.13335623
   0.23372217  0.95692478  0.13349376
   0.15038590  0.79009640  0.13345095
   0.39708452  0.95644455  0.13370520
   0.39682761  0.62948409  0.13372645
   0.23242087  0.62683007  0.13360906
   0.47739659  0.79067609  0.13355203
   0.31417544  0.79204071  0.13245241
   0.06544388  0.95783349  0.13331060
   0.56476224  0.62441029  0.13782722
slab_Cel1-OPT                           
           1
    14.249849    0.000000    0.000000
     0.000000   12.339502    0.000000
     0.000000    0.000000   15.000000
   C    N    Au
    24    32     1
Direct configuration=     6
   0.06554056  0.40417416  0.13332598
   0.98088036  0.23458387  0.13330694
   0.22577506  0.39787854  0.13332786
   0.81669149  0.57600237  0.13355664
   0.15018664  0.23457719  0.13329876
   0.90532904  0.39789574  0.13332961
   0.56564777  0.39904485  0.13321804
   0.48001888  0.23336199  0.13317340
   0.72751259  0.39710417  0.13350490
   0.31419313  0.57608072  0.13354644
   0.65114167  0.23327749  0.13316883
   0.40368350  0.39723242  0.13354170
   0.81594679  0.90525184  0.13322032
   0.73430802  0.73684256  0.13331143
   0.97627152  0.89838667  0.13331246
   0.90136675  0.73435457  0.13314718
   0.65486681  0.89961627  0.13353004
   0.31489590  0.90545694  0.13319062
   0.22949954  0.73442420  0.13313946
   0.47594634  0.89991823  0.13351157
   0.39644364  0.73715285  0.13321138
   0.15458634  0.89840841  0.13332764
   0.06547171  0.07710018  0.13330295
   0.56551868  0.07679890  0.13332393
   0.98392090  0.45635269  0.13330146
   0.90090091  0.29026795  0.13325453
   0.14718560  0.45632723  0.13328604
   0.14851045  0.12711167  0.13325814
   0.98245179  0.12711425  0.13327228
   0.23022086  0.29023949  0.13325832
   0.06553616  0.29126611  0.13338155
   0.81542246  0.45777790  0.13338755
   0.48496023  0.45307510  0.13358929
   0.40065284  0.28979094  0.13368438
   0.64631247  0.45302844  0.13354977
   0.64888466  0.12635881  0.13342981
   0.48219010  0.12643502  0.13342089
   0.73055266  0.28964042  0.13366874
   0.56560042  0.28895369  0.13250198
   0.31570231  0.45786304  0.13340267
   0.73390609  0.95646413  0.13370307
   0.65345234  0.79054484  0.13360289
   0.89710833  0.95676335  0.13347683
   0.89882241  0.62678081  0.13357679
   0.73416627  0.62920330  0.13377155
   0.98041153  0.79012365  0.13339441
   0.81691698  0.79200385  0.13255415
   0.56544406  0.95758885  0.13336023
   0.23371180  0.95685009  0.13350578
   0.15044143  0.79014691  0.13345667
   0.39689749  0.95676756  0.13373540
   0.39659267  0.62950885  0.13370255
   0.23206374  0.62684704  0.13363273
   0.47724275  0.79087653  0.13351635
   0.31388225  0.79222819  0.13241569
   0.06543659  0.95785468  0.13330988
   0.56493214  0.62442205  0.13801951
slab_Cel1-OPT                           
           1
    14.249579    0.000000    0.000000
     0.000000   12.339352    0.000000
     0.000000    0.000000   15.000000
   C    N    Au
    24    32     1
Direct configuration=     7
   0.06554357  0.40411376  0.13332582
   0.98093717  0.23461718  0.13330616
   0.22571864  0.39784028  0.13332729
   0.81682553  0.57605596  0.13356032
   0.15013086  0.23461083  0.13329731
   0.90539045  0.39786310  0.13332945
   0.56564528  0.39867339  0.13319710
   0.48007962  0.23329392  0.13317087
   0.72753134  0.39693781  0.13350576
   0.31405413  0.57615290  0.13354811
   0.65108392  0.23321169  0.13316617
   0.40367083  0.39706696  0.13354301
   0.81602854  0.90522522  0.13322092
   0.73458816  0.73702361  0.13329514
   0.97622360  0.89836782  0.13331304
   0.90139464  0.73446195  0.13314232
   0.65496792  0.89970687  0.13353023
   0.31479553  0.90542414  0.13318924
   0.22946667  0.73454405  0.13313587
   0.47582786  0.90000775  0.13351091
   0.39615206  0.73733739  0.13319015
   0.15463203  0.89837911  0.13332813
   0.06547231  0.07711648  0.13330044
   0.56551658  0.07690747  0.13332562
   0.98394972  0.45628091  0.13329818
   0.90098015  0.29029223  0.13324919
   0.14716255  0.45625127  0.13328224
   0.14846763  0.12718255  0.13325193
   0.98249322  0.12718620  0.13326753
   0.23014502  0.29026107  0.13325323
   0.06553718  0.29127861  0.13338843
   0.81554246  0.45770429  0.13339195
   0.48491209  0.45290712  0.13356740
   0.40055392  0.28954937  0.13370206
   0.64636083  0.45283989  0.13352732
   0.64883428  0.12638163  0.13343234
   0.48224091  0.12646174  0.13342361
   0.73064604  0.28940904  0.13368707
   0.56560254  0.28869586  0.13248295
   0.31557939  0.45778628  0.13340672
   0.73401862  0.95665258  0.13372070
   0.65356177  0.79066871  0.13358481
   0.89709997  0.95671227  0.13348464
   0.89902707  0.62680320  0.13358952
   0.73433300  0.62923842  0.13376139
   0.98036400  0.79015729  0.13339609
   0.81710163  0.79212012  0.13253337
   0.56543863  0.95773631  0.13336288
   0.23370494  0.95680064  0.13351375
   0.15047819  0.79018036  0.13346046
   0.39677366  0.95698141  0.13375540
   0.39643711  0.62952524  0.13368673
   0.23182728  0.62685827  0.13364841
   0.47714089  0.79100924  0.13349273
   0.31368813  0.79235231  0.13239138
   0.06543176  0.95786871  0.13330941
   0.56504462  0.62442984  0.13814683
slab_Cel1-OPT                           
           1
    14.251602    0.000000    0.000000
     0.000000   12.341157    0.000000
     0.000000    0.000000   15.000000
   C    N    Au
    24    32     1
Direct configuration=     8
   0.06554954  0.40404590  0.13332581
   0.98100076  0.23468358  0.13330526
   0.22568987  0.39783548  0.13332595
   0.81696703  0.57606195  0.13356351
   0.15006932  0.23467573  0.13329418
   0.90542661  0.39786128  0.13332851
   0.56564186  0.39856425  0.13316041
   0.48000162  0.23309109  0.13316985
   0.72758345  0.39679820  0.13350662
   0.31392497  0.57618116  0.13354889
   0.65116860  0.23301629  0.13316478
   0.40362116  0.39694242  0.13354292
   0.81612026  0.90540253  0.13322230
   0.73466143  0.73707106  0.13326635
   0.97632487  0.89846293  0.13331348
   0.90156812  0.73444894  0.13313759
   0.65502198  0.89981847  0.13352830
   0.31469973  0.90561380  0.13318950
   0.22927785  0.73453273  0.13313279
   0.47574466  0.90010322  0.13350702
   0.39609155  0.73736805  0.13315354
   0.15451149  0.89847889  0.13332922
   0.06547154  0.07707094  0.13329569
   0.56551761  0.07683343  0.13332739
   0.98403855  0.45631370  0.13329276
   0.90102104  0.29019498  0.13324036
   0.14707673  0.45627363  0.13327570
   0.14850386  0.12717229  0.13324107
   0.98245777  0.12717363  0.13325957
   0.23010552  0.29015207  0.13324492
   0.06553846  0.29127378  0.13340049
   0.81566508  0.45761954  0.13339921
   0.48491714  0.45280002  0.13353810
   0.40043438  0.28925822  0.13372982
   0.64635194  0.45270008  0.13349660
   0.64889026  0.12624437  0.13343833
   0.48218488  0.12633165  0.13342931
   0.73076948  0.28911575  0.13371654
   0.56559218  0.28854027  0.13244861
   0.31545651  0.45770122  0.13341328
   0.73417975  0.95689131  0.13374722
   0.65366569  0.79069827  0.13356151
   0.89722538  0.95686250  0.13349974
   0.89931298  0.62685732  0.13360884
   0.73443393  0.62932524  0.13375009
   0.98054136  0.79022992  0.13339961
   0.81722930  0.79221098  0.13249597
   0.56543056  0.95788434  0.13336660
   0.23355032  0.95695230  0.13352910
   0.15028167  0.79025463  0.13346826
   0.39659057  0.95722636  0.13378695
   0.39635644  0.62958404  0.13366703
   0.23152941  0.62691633  0.13367332
   0.47704035  0.79104401  0.13346111
   0.31355349  0.79242545  0.13234887
   0.06542504  0.95787292  0.13330784
   0.56515053  0.62443910  0.13833341
slab_Cel1-OPT                           
           1
    14.253692    0.000000    0.000000
     0.000000   12.343021    0.000000
     0.000000    0.000000   15.000000
   C    N    Au
    24    32     1
Direct configuration=     9
   0.06555572  0.40397581  0.13332579
   0.98106644  0.23475216  0.13330432
   0.22566016  0.39783053  0.13332455
   0.81711316  0.57606814  0.13356682
   0.15000576  0.23474276  0.13329094
   0.90546396  0.39785940  0.13332755
   0.56563833  0.39845153  0.13312251
   0.47992106  0.23288161  0.13316879
   0.72763728  0.39665402  0.13350751
   0.31379157  0.57621034  0.13354971
   0.65125606  0.23281448  0.13316334
   0.40356986  0.39681379  0.13354283
   0.81621500  0.90558565  0.13322373
   0.73473711  0.73712006  0.13323660
   0.97642947  0.89856117  0.13331394
   0.90174728  0.73443551  0.13313270
   0.65507780  0.89993373  0.13352629
   0.31460079  0.90580969  0.13318977
   0.22908284  0.73452103  0.13312960
   0.47565874  0.90020182  0.13350301
   0.39602906  0.73739973  0.13311572
   0.15438701  0.89858194  0.13333036
   0.06547073  0.07702390  0.13329078
   0.56551868  0.07675696  0.13332921
   0.98413029  0.45634757  0.13328716
   0.90106328  0.29009455  0.13323124
   0.14698810  0.45629672  0.13326896
   0.14854128  0.12716169  0.13322986
   0.98242116  0.12716066  0.13325134
   0.23006473  0.29003950  0.13323634
   0.06553977  0.29126879  0.13341295
   0.81579172  0.45753202  0.13340671
   0.48492236  0.45268941  0.13350784
   0.40031091  0.28895753  0.13375849
   0.64634276  0.45255570  0.13346487
   0.64894808  0.12610261  0.13344452
   0.48212702  0.12619730  0.13343520
   0.73089697  0.28881285  0.13374699
   0.56558148  0.28837958  0.13241313
   0.31532959  0.45761336  0.13342006
   0.73434617  0.95713786  0.13377460
   0.65377301  0.79072881  0.13353744
   0.89735491  0.95701767  0.13351534
   0.89960826  0.62691323  0.13362880
   0.73453818  0.62941491  0.13373843
   0.98072453  0.79030493  0.13340324
   0.81736116  0.79230481  0.13245734
   0.56542223  0.95803722  0.13337044
   0.23339062  0.95710894  0.13354495
   0.15007870  0.79033135  0.13347632
   0.39640149  0.95747935  0.13381955
   0.39627313  0.62964476  0.13364667
   0.23122177  0.62697629  0.13369905
   0.47693650  0.79107992  0.13342845
   0.31341442  0.79250099  0.13230497
   0.06541809  0.95787727  0.13330622
   0.56525991  0.62444867  0.13852615
slab_Cel1-OPT                           
           1
    14.250279    0.000000    0.000000
     0.000000   12.339888    0.000000
     0.000000    0.000000   15.000000
   C    N    Au
    24    32     1
Direct configuration=    10
   0.06555600  0.40395036  0.13332575
   0.98110330  0.23469810  0.13330321
   0.22560456  0.39779072  0.13332292
   0.81727380  0.57611708  0.13356991
   0.14996684  0.23468845  0.13328739
   0.90552830  0.39782676  0.13332641
   0.56562809  0.39838164  0.13308505
   0.47984614  0.23272249  0.13316800
   0.72768058  0.39646617  0.13350932
   0.31363468  0.57626558  0.13355108
   0.65132609  0.23264865  0.13316260
   0.40352823  0.39663263  0.13354257
   0.81634657  0.90574458  0.13322467
   0.73480979  0.73717233  0.13320582
   0.97652630  0.89863442  0.13331528
   0.90194449  0.73451094  0.13312831
   0.65518209  0.90004534  0.13352482
   0.31444677  0.90597220  0.13319031
   0.22887098  0.73459475  0.13312609
   0.47553691  0.90031259  0.13350015
   0.39597277  0.73742382  0.13307728
   0.15426736  0.89865827  0.13333214
   0.06547031  0.07704415  0.13328518
   0.56551824  0.07667279  0.13333046
   0.98414081  0.45635259  0.13328160
   0.90108114  0.29009487  0.13322212
   0.14698519  0.45629619  0.13326178
   0.14853385  0.12715809  0.13321806
   0.98242628  0.12715969  0.13324273
   0.23005079  0.29003532  0.13322736
   0.06553985  0.29126880  0.13342599
   0.81584939  0.45750068  0.13341362
   0.48488063  0.45259381  0.13347888
   0.40022341  0.28886520  0.13378786
   0.64638797  0.45243729  0.13343451
   0.64898216  0.12591388  0.13345172
   0.48209428  0.12600195  0.13344241
   0.73099070  0.28870621  0.13377717
   0.56557835  0.28829546  0.13237601
   0.31527171  0.45758684  0.13342580
   0.73437943  0.95725322  0.13380221
   0.65382295  0.79082712  0.13351454
   0.89749746  0.95717131  0.13353256
   0.89974852  0.62687372  0.13364922
   0.73466910  0.62941251  0.13372756
   0.98088467  0.79039306  0.13340723
   0.81743344  0.79235185  0.13241742
   0.56541210  0.95803691  0.13337274
   0.23323760  0.95725859  0.13356191
   0.14990204  0.79041832  0.13348465
   0.39635148  0.95759407  0.13385247
   0.39616789  0.62963619  0.13362773
   0.23109056  0.62694136  0.13372549
   0.47688222  0.79116876  0.13339692
   0.31334318  0.79253645  0.13226038
   0.06540901  0.95793543  0.13330403
   0.56533906  0.62445200  0.13871062
slab_Cel1-OPT                           
           1
    14.244599    0.000000    0.000000
     0.000000   12.334674    0.000000
     0.000000    0.000000   15.000000
   C    N    Au
    24    32     1
Direct configuration=    11
   0.06555646  0.40390799  0.13332568
   0.98116467  0.23460810  0.13330136
   0.22551201  0.39772444  0.13332020
   0.81754124  0.57619856  0.13357505
   0.14990206  0.23459804  0.13328149
   0.90563540  0.39777242  0.13332452
   0.56561104  0.39826529  0.13302272
   0.47972143  0.23245760  0.13316669
   0.72775267  0.39615343  0.13351234
   0.31337350  0.57635754  0.13355337
   0.65144269  0.23237257  0.13316136
   0.40345892  0.39633103  0.13354213
   0.81656561  0.90600915  0.13322623
   0.73493078  0.73725935  0.13315459
   0.97668750  0.89875636  0.13331750
   0.90227278  0.73463650  0.13312100
   0.65535570  0.90023114  0.13352236
   0.31419036  0.90624274  0.13319121
   0.22851828  0.73471748  0.13312025
   0.47533409  0.90049701  0.13349539
   0.39587907  0.73746392  0.13301329
   0.15406818  0.89878535  0.13333510
   0.06546961  0.07707785  0.13327587
   0.56551751  0.07653266  0.13333253
   0.98415833  0.45636095  0.13327234
   0.90111088  0.29009540  0.13320694
   0.14698034  0.45629532  0.13324983
   0.14852149  0.12715208  0.13319843
   0.98243482  0.12715808  0.13322841
   0.23002758  0.29002838  0.13321242
   0.06553998  0.29126880  0.13344769
   0.81594540  0.45744852  0.13342511
   0.48481117  0.45243466  0.13343068
   0.40007774  0.28871150  0.13383674
   0.64646322  0.45224018  0.13338399
   0.64903889  0.12559971  0.13346371
   0.48203978  0.12567674  0.13345441
   0.73114676  0.28852868  0.13382740
   0.56557312  0.28815543  0.13231423
   0.31517534  0.45754268  0.13343535
   0.73443480  0.95744526  0.13384815
   0.65390609  0.79099079  0.13347643
   0.89773476  0.95742710  0.13356121
   0.89998202  0.62680794  0.13368320
   0.73488705  0.62940852  0.13370947
   0.98115126  0.79053979  0.13341385
   0.81755377  0.79243016  0.13235099
   0.56539524  0.95803640  0.13337658
   0.23298286  0.95750774  0.13359013
   0.14960794  0.79056309  0.13349852
   0.39626822  0.95778505  0.13390727
   0.39599270  0.62962193  0.13359621
   0.23087214  0.62688321  0.13376948
   0.47679187  0.79131667  0.13334443
   0.31322458  0.79259549  0.13218617
   0.06539388  0.95803225  0.13330039
   0.56547083  0.62445755  0.13901765
slab_Cel1-OPT                           
           1
    14.241322    0.000000    0.000000
     0.000000   12.331922    0.000000
     0.000000    0.000000   15.000000
   C    N    Au
    24    32     1
Direct configuration=    12
   0.06555917  0.40397776  0.13332581
   0.98109191  0.23458034  0.13329900
   0.22553063  0.39771683  0.13331862
   0.81760648  0.57617845  0.13357799
   0.14997372  0.23456765  0.13327956
   0.90561825  0.39776523  0.13332327
   0.56561063  0.39821182  0.13298850
   0.47971172  0.23238703  0.13316480
   0.72780280  0.39615629  0.13351418
   0.31331448  0.57633005  0.13355512
   0.65144643  0.23230291  0.13316095
   0.40340881  0.39635024  0.13354233
   0.81662203  0.90608150  0.13322642
   0.73498871  0.73728740  0.13312615
   0.97677804  0.89886129  0.13331963
   0.90234772  0.73465596  0.13311819
   0.65536953  0.90025120  0.13352224
   0.31412244  0.90628208  0.13319191
   0.22844658  0.73474097  0.13311495
   0.47531277  0.90051835  0.13349484
   0.39581869  0.73748832  0.13297805
   0.15396037  0.89888380  0.13333804
   0.06546433  0.07710185  0.13326946
   0.56551351  0.07635598  0.13333376
   0.98415176  0.45635028  0.13326642
   0.90114183  0.29008925  0.13319733
   0.14699320  0.45628263  0.13324163
   0.14849161  0.12711879  0.13318500
   0.98246116  0.12712923  0.13321872
   0.23000031  0.29001719  0.13320230
   0.06553904  0.29122224  0.13346125
   0.81595507  0.45744122  0.13342971
   0.48474062  0.45236707  0.13340301
   0.40007374  0.28864955  0.13386660
   0.64653200  0.45217070  0.13335515
   0.64906304  0.12553056  0.13347178
   0.48201094  0.12561117  0.13346350
   0.73115100  0.28845216  0.13385696
   0.56557584  0.28803070  0.13227558
   0.31517161  0.45753967  0.13343831
   0.73451515  0.95744111  0.13387552
   0.65394074  0.79105408  0.13345472
   0.89778297  0.95751398  0.13358106
   0.90006385  0.62688048  0.13370432
   0.73497880  0.62940249  0.13369858
   0.98121511  0.79057692  0.13341873
   0.81767911  0.79250529  0.13230873
   0.56539168  0.95792902  0.13337518
   0.23292386  0.95759028  0.13361002
   0.14953462  0.79059734  0.13350775
   0.39617797  0.95777467  0.13393887
   0.39591448  0.62959896  0.13357854
   0.23081049  0.62695395  0.13379616
   0.47676526  0.79137569  0.13331335
   0.31309964  0.79267044  0.13213954
   0.06538730  0.95814950  0.13329703
   0.56550289  0.62445267  0.13919485
slab_Cel1-OPT                           
           1
    14.239113    0.000000    0.000000
     0.000000   12.330066    0.000000
     0.000000    0.000000   15.000000
   C    N    Au
    24    32     1
Direct configuration=    13
   0.06556100  0.40402481  0.13332590
   0.98104283  0.23456161  0.13329741
   0.22554318  0.39771170  0.13331755
   0.81765048  0.57616488  0.13357998
   0.15002205  0.23454716  0.13327827
   0.90560669  0.39776038  0.13332242
   0.56561035  0.39817575  0.13296543
   0.47970518  0.23233943  0.13316352
   0.72783661  0.39615821  0.13351543
   0.31327468  0.57631152  0.13355629
   0.65144895  0.23225594  0.13316067
   0.40337502  0.39636320  0.13354247
   0.81666009  0.90613030  0.13322654
   0.73502779  0.73730632  0.13310698
   0.97683909  0.89893205  0.13332107
   0.90239826  0.73466908  0.13311630
   0.65537885  0.90026473  0.13352216
   0.31407663  0.90630862  0.13319238
   0.22839822  0.73475682  0.13311139
   0.47529839  0.90053275  0.13349446
   0.39577797  0.73750477  0.13295429
   0.15388765  0.89895019  0.13334003
   0.06546077  0.07711804  0.13326515
   0.56551081  0.07623682  0.13333459
   0.98414733  0.45634308  0.13326243
   0.90116271  0.29008511  0.13319086