  59  59   0   0
  0.3948347E+02  0.1375970E-08  0.1128670E-08  0.1500000E-08  0.1000000E-15
  1.000000000000000E-004
  CAR 
 slab_Cel1-OPT                           
      4.27523336    -27.71996558  301     -1.99881277      1.00000000
    -27.720  0.0000E+00  0.0000E+00
    -27.613  0.0000E+00  0.0000E+00
    -27.507  0.0000E+00  0.0000E+00
    -27.400  0.0000E+00  0.0000E+00
    -27.293  0.0000E+00  0.0000E+00
    -27.187  0.0000E+00  0.0000E+00
    -27.080  0.0000E+00  0.0000E+00
    -26.973  0.0000E+00  0.0000E+00
    -26.867  0.0000E+00  0.0000E+00
    -26.760  0.7308E-14  0.7794E-15
    -26.653  0.1225E-09  0.1306E-10
    -26.547  0.2368E-06  0.2527E-07
    -26.440  0.5632E-04  0.6031E-05
    -26.334  0.1818E-02  0.1999E-03
    -26.227  0.9467E-02  0.1210E-02
    -26.120  0.1506E-01  0.2816E-02
    -26.014  0.2429E-01  0.5406E-02
    -25.907  0.1985E-01  0.7523E-02
    -25.800  0.4285E-02  0.7980E-02
    -25.694  0.1851E-03  0.8000E-02
    -25.587  0.1285E-05  0.8000E-02
    -25.480  0.1718E-08  0.8000E-02
    -25.374  0.5882E-06  0.8000E-02
    -25.267  0.8491E-04  0.8009E-02
    -25.160  0.1931E-02  0.8215E-02
    -25.054  0.1006E-01  0.9288E-02
    -24.947  0.1666E-01  0.1106E-01
    -24.840  0.1278E-01  0.1243E-01
    -24.734  0.9448E-02  0.1344E-01
    -24.627  0.9235E-02  0.1442E-01
    -24.520  0.8126E-02  0.1529E-01
    -24.414  0.1914E-02  0.1549E-01
    -24.307  0.8307E-04  0.1550E-01
    -24.200  0.2251E-03  0.1552E-01
    -24.094  0.1920E-02  0.1573E-01
    -23.987  0.5126E-02  0.1628E-01
    -23.881  0.1758E-01  0.1815E-01
    -23.774  0.2910E-01  0.2125E-01
    -23.667  0.2235E-01  0.2364E-01
    -23.561  0.7228E-02  0.2441E-01
    -23.454  0.8285E-03  0.2450E-01
    -23.347  0.1515E-03  0.2451E-01
    -23.241  0.2493E-02  0.2478E-01
    -23.134  0.8784E-02  0.2572E-01
    -23.027  0.8970E-02  0.2667E-01
    -22.921  0.8066E-02  0.2753E-01
    -22.814  0.1146E-01  0.2876E-01
    -22.707  0.1318E-01  0.3016E-01
    -22.601  0.1107E-01  0.3134E-01
    -22.494  0.5377E-02  0.3192E-01
    -22.387  0.7702E-03  0.3200E-01
    -22.281  0.1895E-04  0.3200E-01
    -22.174  0.2852E-04  0.3200E-01
    -22.067  0.1157E-02  0.3213E-01
    -21.961  0.9526E-02  0.3314E-01
    -21.854  0.2789E-01  0.3612E-01
    -21.748  0.3723E-01  0.4009E-01
    -21.641  0.3013E-01  0.4330E-01
    -21.534  0.2705E-01  0.4618E-01
    -21.428  0.1486E-01  0.4777E-01
    -21.321  0.2113E-02  0.4800E-01
    -21.214  0.4518E-03  0.4804E-01
    -21.108  0.3041E-02  0.4837E-01
    -21.001  0.1069E-01  0.4951E-01
    -20.894  0.2155E-01  0.5181E-01
    -20.788  0.2061E-01  0.5400E-01
    -20.681  0.1387E-01  0.5548E-01
    -20.574  0.4781E-02  0.5599E-01
    -20.468  0.5988E-02  0.5663E-01
    -20.361  0.1672E-01  0.5841E-01
    -20.254  0.2329E-01  0.6090E-01
    -20.148  0.2089E-01  0.6313E-01
    -20.041  0.7461E-02  0.6392E-01
    -19.934  0.7193E-03  0.6400E-01
    -19.828  0.1384E-04  0.6400E-01
    -19.721  0.3935E-07  0.6400E-01
    -19.615  0.1364E-10  0.6400E-01
    -19.508  0.5283E-15  0.6400E-01
    -19.401  0.0000E+00  0.6400E-01
    -19.295  0.0000E+00  0.6400E-01
    -19.188  0.0000E+00  0.6400E-01
    -19.081  0.0000E+00  0.6400E-01
    -18.975  0.0000E+00  0.6400E-01
    -18.868  0.0000E+00  0.6400E-01
    -18.761  0.0000E+00  0.6400E-01
    -18.655  0.0000E+00  0.6400E-01
    -18.548  0.0000E+00  0.6400E-01
    -18.441  0.0000E+00  0.6400E-01
    -18.335  0.0000E+00  0.6400E-01
    -18.228  0.0000E+00  0.6400E-01
    -18.121  0.0000E+00  0.6400E-01
    -18.015  0.9629E-17  0.6400E-01
    -17.908  0.5932E-12  0.6400E-01
    -17.801  0.3974E-08  0.6400E-01
    -17.695  0.3057E-05  0.6400E-01
    -17.588  0.2952E-03  0.6403E-01
    -17.482  0.4278E-02  0.6449E-01
    -17.375  0.1295E-01  0.6587E-01
    -17.268  0.1481E-01  0.6745E-01
    -17.162  0.1230E-01  0.6876E-01
    -17.055  0.1565E-01  0.7043E-01
    -16.948  0.2004E-01  0.7257E-01
    -16.842  0.2132E-01  0.7484E-01
    -16.735  0.1493E-01  0.7643E-01
    -16.628  0.1045E-01  0.7755E-01
    -16.522  0.1096E-01  0.7872E-01
    -16.415  0.6582E-02  0.7942E-01
    -16.308  0.7692E-03  0.7950E-01
    -16.202  0.3757E-03  0.7954E-01
    -16.095  0.2155E-02  0.7977E-01
    -15.988  0.1908E-02  0.7997E-01
    -15.882  0.2496E-03  0.8000E-01
    -15.775  0.1153E-04  0.8000E-01
    -15.668  0.6268E-03  0.8007E-01
    -15.562  0.8948E-02  0.8102E-01
    -15.455  0.2784E-01  0.8399E-01
    -15.348  0.2541E-01  0.8670E-01
    -15.242  0.7702E-02  0.8752E-01
    -15.135  0.2956E-02  0.8784E-01
    -15.029  0.1985E-02  0.8805E-01
    -14.922  0.2565E-02  0.8832E-01
    -14.815  0.2370E-02  0.8858E-01
    -14.709  0.2696E-02  0.8886E-01
    -14.602  0.1249E-02  0.8900E-01
    -14.495  0.2000E-02  0.8921E-01
    -14.389  0.1147E-01  0.9043E-01
    -14.282  0.1429E-01  0.9196E-01
    -14.175  0.1036E-01  0.9306E-01
    -14.069  0.1210E-01  0.9435E-01
    -13.962  0.1337E-01  0.9578E-01
    -13.855  0.2329E-01  0.9826E-01
    -13.749  0.2536E-01  0.1010E+00
    -13.642  0.2838E-01  0.1040E+00
    -13.535  0.3100E-01  0.1073E+00
    -13.429  0.2463E-01  0.1099E+00
    -13.322  0.1816E-01  0.1119E+00
    -13.215  0.1742E-01  0.1137E+00
    -13.109  0.7508E-02  0.1145E+00
    -13.002  0.4998E-02  0.1151E+00
    -12.896  0.6382E-02  0.1157E+00
    -12.789  0.8395E-02  0.1166E+00
    -12.682  0.8556E-02  0.1175E+00
    -12.576  0.6414E-02  0.1182E+00
    -12.469  0.4212E-02  0.1187E+00
    -12.362  0.6284E-02  0.1193E+00
    -12.256  0.7390E-02  0.1201E+00
    -12.149  0.8465E-02  0.1210E+00
    -12.042  0.6785E-02  0.1218E+00
    -11.936  0.1036E-01  0.1229E+00
    -11.829  0.1742E-01  0.1247E+00
    -11.722  0.2081E-01  0.1269E+00
    -11.616  0.2376E-01  0.1295E+00
    -11.509  0.2139E-01  0.1318E+00
    -11.402  0.1975E-01  0.1339E+00
    -11.296  0.1777E-01  0.1358E+00
    -11.189  0.1845E-01  0.1377E+00
    -11.082  0.1189E-01  0.1390E+00
    -10.976  0.9890E-02  0.1401E+00
    -10.869  0.7418E-02  0.1408E+00
    -10.763  0.4095E-02  0.1413E+00
    -10.656  0.6610E-02  0.1420E+00
    -10.549  0.1644E-01  0.1437E+00
    -10.443  0.2060E-01  0.1459E+00
    -10.336  0.1947E-01  0.1480E+00
    -10.229  0.1562E-01  0.1497E+00
    -10.123  0.1433E-01  0.1512E+00
    -10.016  0.6796E-02  0.1519E+00
     -9.909  0.1721E-02  0.1521E+00
     -9.803  0.3116E-02  0.1524E+00
     -9.696  0.6092E-02  0.1531E+00
     -9.589  0.1003E-01  0.1542E+00
     -9.483  0.1069E-01  0.1553E+00
     -9.376  0.1909E-01  0.1573E+00
     -9.269  0.1814E-01  0.1593E+00
     -9.163  0.1703E-01  0.1611E+00
     -9.056  0.2992E-01  0.1643E+00
     -8.949  0.2591E-01  0.1670E+00
     -8.843  0.8418E-02  0.1679E+00
     -8.736  0.4557E-02  0.1684E+00
     -8.629  0.1034E-01  0.1695E+00
     -8.523  0.5064E-02  0.1701E+00
     -8.416  0.2820E-02  0.1704E+00
     -8.310  0.1941E-02  0.1706E+00
     -8.203  0.8923E-02  0.1715E+00
     -8.096  0.1697E-01  0.1733E+00
     -7.990  0.1677E-01  0.1751E+00
     -7.883  0.2386E-01  0.1777E+00
     -7.776  0.1738E-01  0.1795E+00
     -7.670  0.4180E-02  0.1800E+00
     -7.563  0.1533E-02  0.1801E+00
     -7.456  0.1424E-01  0.1817E+00
     -7.350  0.3373E-01  0.1853E+00
     -7.243  0.3206E-01  0.1887E+00
     -7.136  0.3649E-01  0.1926E+00
     -7.030  0.4222E-01  0.1971E+00
     -6.923  0.3185E-01  0.2005E+00
     -6.816  0.1362E-01  0.2019E+00
     -6.710  0.9800E-02  0.2030E+00
     -6.603  0.1199E-01  0.2042E+00
     -6.496  0.2114E-01  0.2065E+00
     -6.390  0.2942E-01  0.2096E+00
     -6.283  0.2392E-01  0.2122E+00
     -6.177  0.1728E-01  0.2140E+00
     -6.070  0.1235E-01  0.2153E+00
     -5.963  0.1029E-01  0.2164E+00
     -5.857  0.1309E-01  0.2178E+00
     -5.750  0.1547E-01  0.2195E+00
     -5.643  0.1723E-01  0.2213E+00
     -5.537  0.1835E-01  0.2233E+00
     -5.430  0.2909E-01  0.2264E+00
     -5.323  0.4206E-01  0.2309E+00
     -5.217  0.4114E-01  0.2353E+00
     -5.110  0.3609E-01  0.2391E+00
     -5.003  0.4678E-01  0.2441E+00
     -4.897  0.5013E-01  0.2494E+00
     -4.790  0.4076E-01  0.2538E+00
     -4.683  0.3272E-01  0.2573E+00
     -4.577  0.3408E-01  0.2609E+00
     -4.470  0.3638E-01  0.2648E+00
     -4.363  0.3149E-01  0.2682E+00
     -4.257  0.2383E-01  0.2707E+00
     -4.150  0.1973E-01  0.2728E+00
     -4.044  0.1745E-01  0.2747E+00
     -3.937  0.9094E-02  0.2756E+00
     -3.830  0.3068E-02  0.2760E+00
     -3.724  0.3493E-03  0.2760E+00
     -3.617  0.6567E-05  0.2760E+00
     -3.510  0.1488E-06  0.2760E+00
     -3.404  0.4317E-04  0.2760E+00
     -3.297  0.1695E-02  0.2762E+00
     -3.190  0.9016E-02  0.2771E+00
     -3.084  0.7846E-02  0.2780E+00
     -2.977  0.8659E-02  0.2789E+00
     -2.870  0.2189E-01  0.2812E+00
     -2.764  0.2109E-01  0.2835E+00
     -2.657  0.6397E-02  0.2842E+00
     -2.550  0.9235E-02  0.2852E+00
     -2.444  0.7070E-02  0.2859E+00
     -2.337  0.8520E-03  0.2860E+00
     -2.230  0.1689E-02  0.2862E+00
     -2.124  0.8966E-02  0.2871E+00
     -2.017  0.7468E-02  0.2879E+00
     -1.911  0.4889E-02  0.2885E+00
     -1.804  0.1201E-01  0.2897E+00
     -1.697  0.1154E-01  0.2910E+00
     -1.591  0.1157E-01  0.2922E+00
     -1.484  0.1268E-01  0.2936E+00
     -1.377  0.9413E-02  0.2946E+00
     -1.271  0.7615E-02  0.2954E+00
     -1.164  0.1127E-01  0.2966E+00
     -1.057  0.2393E-01  0.2991E+00
     -0.951  0.2640E-01  0.3019E+00
     -0.844  0.1489E-01  0.3035E+00
     -0.737  0.5984E-02  0.3042E+00
     -0.631  0.6842E-02  0.3049E+00
     -0.524  0.1437E-01  0.3064E+00
     -0.417  0.2946E-01  0.3096E+00
     -0.311  0.3056E-01  0.3128E+00
     -0.204  0.1014E-01  0.3139E+00
     -0.097  0.8179E-03  0.3140E+00
      0.009  0.1263E-04  0.3140E+00
      0.116  0.2926E-07  0.3140E+00
      0.223  0.2023E-06  0.3140E+00
      0.329  0.5505E-04  0.3140E+00
      0.436  0.1888E-02  0.3142E+00
      0.542  0.9138E-02  0.3152E+00
      0.649  0.6871E-02  0.3159E+00
      0.756  0.8203E-03  0.3160E+00
      0.862  0.1004E-02  0.3161E+00
      0.969  0.6458E-02  0.3168E+00
      1.076  0.1523E-01  0.3184E+00
      1.182  0.1786E-01  0.3203E+00
      1.289  0.1567E-01  0.3220E+00
      1.396  0.1996E-01  0.3241E+00
      1.502  0.2221E-01  0.3265E+00
      1.609  0.1915E-01  0.3285E+00
      1.716  0.2477E-01  0.3312E+00
      1.822  0.2315E-01  0.3336E+00
      1.929  0.2475E-01  0.3363E+00
      2.036  0.2731E-01  0.3392E+00
      2.142  0.2355E-01  0.3417E+00
      2.249  0.1400E-01  0.3432E+00
      2.356  0.9233E-02  0.3442E+00
      2.462  0.1226E-01  0.3455E+00
      2.569  0.1822E-01  0.3474E+00
      2.675  0.1954E-01  0.3495E+00
      2.782  0.1590E-01  0.3512E+00
      2.889  0.6313E-02  0.3519E+00
      2.995  0.9760E-03  0.3520E+00
      3.102  0.3379E-04  0.3520E+00
      3.209  0.1667E-06  0.3520E+00
      3.315  0.9755E-10  0.3520E+00
      3.422  0.6320E-14  0.3520E+00
      3.529  0.0000E+00  0.3520E+00
      3.635  0.0000E+00  0.3520E+00
      3.742  0.0000E+00  0.3520E+00
      3.849  0.0000E+00  0.3520E+00
      3.955  0.0000E+00  0.3520E+00
      4.062  0.0000E+00  0.3520E+00
      4.169  0.0000E+00  0.3520E+00
      4.275  0.0000E+00  0.3520E+00
