 running on   48 total cores
 distrk:  each k-point on   48 cores,    1 groups
 distr:  one band on   12 cores,    4 groups
 vasp.6.3.2 27Jun22 (build May 04 2024 18:40:40) complex                        
  
 POSCAR found type information on POSCAR C N AgPd
 POSCAR found :  4 types and      59 ions
 Reading from existing POTCAR
 scaLAPACK will be used
 Reading from existing POTCAR
 LDA part: xc-table for Pade appr. of Perdew
 POSCAR found type information on POSCAR C N AgPd
 POSCAR found :  4 types and      59 ions
 POSCAR, INCAR and KPOINTS ok, starting setup
 FFT: planning ... GRIDC
 FFT: planning ... GRID_SOFT
 FFT: planning ... GRID
 WAVECAR not read
 entering main loop
       N       E                     dE             d eps       ncg     rms          rms(c)
DAV:   1     0.250238831787E+04    0.25024E+04   -0.10460E+05  1600   0.105E+03
DAV:   2    -0.481981715023E+02   -0.25506E+04   -0.24430E+04  1992   0.290E+02
DAV:   3    -0.496897160842E+03   -0.44870E+03   -0.44336E+03  1688   0.132E+02
DAV:   4    -0.511718360092E+03   -0.14821E+02   -0.14392E+02  1608   0.276E+01
DAV:   5    -0.512310170500E+03   -0.59181E+00   -0.58468E+00  1904   0.447E+00    0.442E+01
DAV:   6    -0.485573287952E+03    0.26737E+02   -0.98597E+01  1616   0.293E+01    0.317E+01
DAV:   7    -0.480661262491E+03    0.49120E+01   -0.26502E+01  1616   0.255E+01    0.174E+01
DAV:   8    -0.480599552806E+03    0.61710E-01   -0.19322E+01  1560   0.116E+01    0.143E+01
DAV:   9    -0.478141402272E+03    0.24582E+01   -0.45634E+00  1576   0.108E+01    0.376E+00
DAV:  10    -0.478162172852E+03   -0.20771E-01   -0.13183E+00  1616   0.397E+00    0.509E+00
DAV:  11    -0.478298935779E+03   -0.13676E+00   -0.18966E+00  1592   0.323E+00    0.462E+00
DAV:  12    -0.478070359604E+03    0.22858E+00   -0.11649E-01  1592   0.193E+00    0.136E+00
DAV:  13    -0.478072018121E+03   -0.16585E-02   -0.44587E-02  1560   0.104E+00    0.204E+00
DAV:  14    -0.478051047723E+03    0.20970E-01   -0.34881E-02  1696   0.777E-01    0.790E-01
DAV:  15    -0.478052643997E+03   -0.15963E-02   -0.12944E-02  1544   0.450E-01    0.521E-01
DAV:  16    -0.478055643108E+03   -0.29991E-02   -0.53995E-03  1560   0.218E-01    0.197E-01
DAV:  17    -0.478060723690E+03   -0.50806E-02   -0.20041E-03  1656   0.128E-01    0.835E-02
DAV:  18    -0.478066301729E+03   -0.55780E-02   -0.13899E-03  1616   0.968E-02    0.259E-01
DAV:  19    -0.478069093082E+03   -0.27914E-02   -0.43045E-04  1656   0.665E-02    0.143E-01
DAV:  20    -0.478072183693E+03   -0.30906E-02   -0.48499E-04  1576   0.561E-02    0.875E-02
DAV:  21    -0.478073422793E+03   -0.12391E-02   -0.23103E-04  1608   0.428E-02    0.111E-01
DAV:  22    -0.478073648858E+03   -0.22606E-03   -0.46863E-05  1304   0.216E-02    0.528E-02
DAV:  23    -0.478074048947E+03   -0.40009E-03   -0.48795E-05  1192   0.314E-02    0.326E-02
DAV:  24    -0.478074516748E+03   -0.46780E-03   -0.76437E-05  1408   0.285E-02    0.811E-02
DAV:  25    -0.478074650025E+03   -0.13328E-03   -0.19370E-05  1064   0.177E-02    0.451E-02
DAV:  26    -0.478074844095E+03   -0.19407E-03   -0.27682E-05  1136   0.161E-02    0.270E-02
DAV:  27    -0.478074878895E+03   -0.34800E-04   -0.49298E-06   992   0.752E-03    0.202E-02
DAV:  28    -0.478074948032E+03   -0.69136E-04   -0.35395E-06   992   0.540E-03    0.218E-02
DAV:  29    -0.478075017596E+03   -0.69565E-04   -0.58980E-06  1008   0.917E-03    0.419E-03
DAV:  30    -0.478075039461E+03   -0.21864E-04   -0.28350E-06   960   0.568E-03    0.754E-03
DAV:  31    -0.478075051506E+03   -0.12045E-04   -0.12885E-06   936   0.232E-03    0.551E-03
DAV:  32    -0.478075056127E+03   -0.46210E-05   -0.48493E-07   968   0.156E-03
   1 F= -.47807506E+03 E0= -.47803261E+03  d E =-.478075E+03
 curvature:   0.00 expect dE= 0.000E+00 dE for cont linesearch  0.000E+00
 trial: gam= 0.00000 g(F)=  0.770E+00 g(S)=  0.189E-01 ort = 0.000E+00 (trialstep = 0.100E+01)
 search vector abs. value=  0.789E+00
 bond charge predicted
       N       E                     dE             d eps       ncg     rms          rms(c)
DAV:   1    -0.478738505419E+03   -0.66345E+00   -0.46810E+01  1408   0.127E+01    0.259E+00
DAV:   2    -0.479484369798E+03   -0.74586E+00   -0.11768E+00  1624   0.447E+00    0.870E+00
DAV:   3    -0.478741852107E+03    0.74252E+00   -0.14188E+00  1560   0.294E+00    0.228E+00
DAV:   4    -0.478743085514E+03   -0.12334E-02   -0.53403E-02  1528   0.587E-01    0.286E+00
DAV:   5    -0.478731439899E+03    0.11646E-01   -0.42187E-02  1608   0.562E-01    0.120E+00
DAV:   6    -0.478737483650E+03   -0.60438E-02   -0.24810E-02  1616   0.670E-01    0.160E+00
DAV:   7    -0.478729559594E+03    0.79241E-02   -0.90311E-03  1520   0.410E-01    0.110E+00
DAV:   8    -0.478726685986E+03    0.28736E-02   -0.25626E-03  1640   0.153E-01    0.789E-01
DAV:   9    -0.478725038519E+03    0.16475E-02   -0.11494E-03  1656   0.107E-01    0.361E-01
DAV:  10    -0.478724920018E+03    0.11850E-03   -0.37126E-04  1584   0.555E-02    0.184E-01
DAV:  11    -0.478724923598E+03   -0.35799E-05   -0.13762E-04  1656   0.390E-02    0.538E-02
DAV:  12    -0.478724969706E+03   -0.46108E-04   -0.23845E-05  1096   0.140E-02    0.471E-02
DAV:  13    -0.478724978858E+03   -0.91520E-05   -0.17048E-05  1064   0.143E-02
   2 F= -.47872498E+03 E0= -.47868542E+03  d E =-.649923E+00
 ZBRENT: can't locate minimum, use default step
 trial-energy change:   -0.649923  1 .order   -0.653995   -0.789249   -0.518741
 step:   4.0000(harm=  2.9177)  dis= 0.16049  next Energy=  -479.393784 (dE=-0.132E+01)
 bond charge predicted
       N       E                     dE             d eps       ncg     rms          rms(c)
DAV:   1    -0.479190190600E+03   -0.46522E+00   -0.44443E+02  1408   0.388E+01    0.499E+00
DAV:   2    -0.480696117693E+03   -0.15059E+01   -0.65110E+00  1592   0.768E+00    0.126E+01
DAV:   3    -0.479472962495E+03    0.12232E+01   -0.31034E+00  1552   0.387E+00    0.414E+00
DAV:   4    -0.479411300498E+03    0.61662E-01   -0.23657E-01  1544   0.118E+00    0.382E+00
DAV:   5    -0.479405674850E+03    0.56256E-02   -0.10991E-01  1784   0.116E+00    0.213E+00
DAV:   6    -0.479388840655E+03    0.16834E-01   -0.15317E-01  1624   0.134E+00    0.886E-01
DAV:   7    -0.479377459935E+03    0.11381E-01   -0.40663E-02  1528   0.790E-01    0.634E-01
DAV:   8    -0.479374862162E+03    0.25978E-02   -0.87924E-03  1608   0.270E-01    0.489E-01
DAV:   9    -0.479373629812E+03    0.12323E-02   -0.20645E-03  1648   0.142E-01    0.266E-01
DAV:  10    -0.479373491820E+03    0.13799E-03   -0.76571E-04  1640   0.854E-02    0.127E-01
DAV:  11    -0.479373563271E+03   -0.71451E-04   -0.16430E-04  1616   0.374E-02    0.595E-02
DAV:  12    -0.479373627267E+03   -0.63995E-04   -0.41552E-05  1232   0.226E-02    0.172E-02
DAV:  13    -0.479373694722E+03   -0.67455E-04   -0.18444E-05  1024   0.139E-02    0.983E-03
DAV:  14    -0.479373724153E+03   -0.29432E-04   -0.47770E-06   976   0.736E-03    0.562E-03
DAV:  15    -0.479373767333E+03   -0.43179E-04   -0.44492E-06   976   0.447E-03    0.375E-03
DAV:  16    -0.479373785133E+03   -0.17800E-04   -0.13062E-06   976   0.231E-03    0.265E-03
DAV:  17    -0.479373813502E+03   -0.28369E-04   -0.28778E-06   992   0.224E-03    0.156E-03
DAV:  18    -0.479373824278E+03   -0.10775E-04   -0.98875E-07   968   0.141E-03    0.129E-03
DAV:  19    -0.479373829151E+03   -0.48732E-05   -0.65689E-07   968   0.141E-03
   3 F= -.47937383E+03 E0= -.47933924E+03  d E =-.129877E+01
 curvature:  -0.99 expect dE=-0.370E+00 dE for cont linesearch -0.174E-02
 trial: gam= 0.51812 g(F)=  0.315E+00 g(S)=  0.565E-01 ort =-0.372E-01 (trialstep = 0.160E+01)
 search vector abs. value=  0.545E+00
 bond charge predicted
       N       E                     dE             d eps       ncg     rms          rms(c)
DAV:   1    -0.479702864646E+03   -0.32904E+00   -0.68706E+01  1408   0.173E+01    0.200E+00
DAV:   2    -0.479784417413E+03   -0.81553E-01   -0.10050E+00  1592   0.275E+00    0.180E+00
DAV:   3    -0.479847736437E+03   -0.63319E-01   -0.23871E-01  1552   0.137E+00    0.422E+00
DAV:   4    -0.479768896141E+03    0.78840E-01   -0.26270E-01  1552   0.951E-01    0.982E-01
DAV:   5    -0.479757357088E+03    0.11539E-01   -0.66948E-02  1544   0.481E-01    0.729E-01
DAV:   6    -0.479754462149E+03    0.28949E-02   -0.13324E-02  1576   0.330E-01    0.304E-01
DAV:   7    -0.479753555425E+03    0.90672E-03   -0.22270E-03  1528   0.186E-01    0.120E-01
DAV:   8    -0.479753685698E+03   -0.13027E-03   -0.39368E-04  1576   0.519E-02    0.729E-02
DAV:   9    -0.479753718831E+03   -0.33134E-04   -0.68320E-05  1448   0.245E-02    0.191E-02
DAV:  10    -0.479753757276E+03   -0.38445E-04   -0.15752E-05  1000   0.126E-02    0.936E-03
DAV:  11    -0.479753788968E+03   -0.31692E-04   -0.48392E-06   976   0.600E-03    0.438E-03
DAV:  12    -0.479753821559E+03   -0.32591E-04   -0.33562E-06   968   0.380E-03    0.231E-03
DAV:  13    -0.479753846242E+03   -0.24683E-04   -0.21012E-06   968   0.300E-03    0.282E-03
DAV:  14    -0.479753865206E+03   -0.18964E-04   -0.17367E-06   968   0.233E-03    0.146E-03
DAV:  15    -0.479753877916E+03   -0.12710E-04   -0.12885E-06  1008   0.181E-03    0.983E-04
DAV:  16    -0.479753884104E+03   -0.61879E-05   -0.77265E-07   968   0.133E-03
   4 F= -.47975388E+03 E0= -.47971483E+03  d E =-.380055E+00
 trial-energy change:   -0.380055  1 .order   -0.380482   -0.563898   -0.197067
 step:   2.4595(harm=  2.4595)  dis= 0.06714  next Energy=  -479.807245 (dE=-0.433E+00)
 bond charge predicted
       N       E                     dE             d eps       ncg     rms          rms(c)
DAV:   1    -0.479792451302E+03   -0.38573E-01   -0.19770E+01  1408   0.923E+00    0.108E+00
DAV:   2    -0.479822568462E+03   -0.30117E-01   -0.29664E-01  1584   0.150E+00    0.138E+00
DAV:   3    -0.479830008052E+03   -0.74396E-02   -0.98224E-02  1544   0.766E-01    0.211E+00
DAV:   4    -0.479810766380E+03    0.19242E-01   -0.56875E-02  1512   0.477E-01    0.558E-01
DAV:   5    -0.479808196290E+03    0.25701E-02   -0.24032E-02  1536   0.271E-01    0.417E-01
DAV:   6    -0.479807144662E+03    0.10516E-02   -0.51422E-03  1560   0.194E-01    0.189E-01
DAV:   7    -0.479806819687E+03    0.32497E-03   -0.53703E-04  1560   0.939E-02    0.606E-02
DAV:   8    -0.479806871559E+03   -0.51872E-04   -0.10531E-04  1536   0.254E-02    0.423E-02
DAV:   9    -0.479806883957E+03   -0.12398E-04   -0.25642E-05  1016   0.118E-02    0.973E-03
DAV:  10    -0.479806899813E+03   -0.15856E-04   -0.53280E-06   952   0.689E-03    0.353E-03
DAV:  11    -0.479806909273E+03   -0.94598E-05   -0.18452E-06   968   0.382E-03
   5 F= -.47980691E+03 E0= -.47976505E+03  d E =-.433080E+00
 curvature:  -1.90 expect dE=-0.398E+00 dE for cont linesearch -0.249E-06
 trial: gam= 0.59321 g(F)=  0.207E+00 g(S)=  0.235E-02 ort = 0.267E-03 (trialstep = 0.177E+01)
 search vector abs. value=  0.401E+00
 bond charge predicted
       N       E                     dE             d eps       ncg     rms          rms(c)
DAV:   1    -0.480038181698E+03   -0.23128E+00   -0.66937E+01  1408   0.165E+01    0.188E+00
DAV:   2    -0.480084095695E+03   -0.45914E-01   -0.85770E-01  1624   0.235E+00    0.109E+00
DAV:   3    -0.480138904194E+03   -0.54808E-01   -0.21482E-01  1592   0.967E-01    0.364E+00
DAV:   4    -0.480086423069E+03    0.52481E-01   -0.15731E-01  1544   0.770E-01    0.855E-01
DAV:   5    -0.480076280473E+03    0.10143E-01   -0.17710E-02  1512   0.463E-01    0.559E-01
DAV:   6    -0.480074249035E+03    0.20314E-02   -0.41157E-03  1584   0.258E-01    0.129E-01
DAV:   7    -0.480074332974E+03   -0.83938E-04   -0.67507E-04  1568   0.920E-02    0.133E-01
DAV:   8    -0.480074318719E+03    0.14255E-04   -0.26347E-04  1584   0.393E-02    0.314E-02
DAV:   9    -0.480074365638E+03   -0.46919E-04   -0.37524E-05  1208   0.193E-02    0.221E-02
DAV:  10    -0.480074402470E+03   -0.36833E-04   -0.14894E-05   984   0.117E-02    0.658E-03
DAV:  11    -0.480074434941E+03   -0.32471E-04   -0.35352E-06   976   0.569E-03    0.336E-03
DAV:  12    -0.480074467044E+03   -0.32103E-04   -0.30474E-06   976   0.363E-03    0.209E-03
DAV:  13    -0.480074494253E+03   -0.27208E-04   -0.23268E-06   976   0.272E-03    0.148E-03
DAV:  14    -0.480074512068E+03   -0.17816E-04   -0.17906E-06   968   0.203E-03    0.111E-03
DAV:  15    -0.480074524191E+03   -0.12123E-04   -0.13881E-06   960   0.171E-03    0.652E-04
DAV:  16    -0.480074530355E+03   -0.61641E-05   -0.88774E-07   960   0.127E-03
   6 F= -.48007453E+03 E0= -.48003726E+03  d E =-.267621E+00
 trial-energy change:   -0.267621  1 .order   -0.268037   -0.371067   -0.165007
 step:   3.1908(harm=  3.1908)  dis= 0.08592  next Energy=  -480.141013 (dE=-0.334E+00)
 bond charge predicted
       N       E                     dE             d eps       ncg     rms          rms(c)
DAV:   1    -0.480117466836E+03   -0.42943E-01   -0.42868E+01  1408   0.131E+01    0.148E+00
DAV:   2    -0.480148204925E+03   -0.30738E-01   -0.54138E-01  1616   0.189E+00    0.976E-01
DAV:   3    -0.480194455690E+03   -0.46251E-01   -0.15406E-01  1568   0.833E-01    0.324E+00
DAV:   4    -0.480148072798E+03    0.46383E-01   -0.12001E-01  1520   0.696E-01    0.660E-01
DAV:   5    -0.480141436183E+03    0.66366E-02   -0.13365E-02  1504   0.334E-01    0.423E-01
DAV:   6    -0.480140210777E+03    0.12254E-02   -0.25494E-03  1560   0.189E-01    0.966E-02
DAV:   7    -0.480140260387E+03   -0.49610E-04   -0.46782E-04  1552   0.766E-02    0.961E-02
DAV:   8    -0.480140262222E+03   -0.18353E-05   -0.15222E-04  1600   0.311E-02    0.245E-02
DAV:   9    -0.480140295829E+03   -0.33606E-04   -0.21231E-05  1040   0.158E-02    0.120E-02
DAV:  10    -0.480140324119E+03   -0.28290E-04   -0.82624E-06   944   0.852E-03    0.504E-03
DAV:  11    -0.480140347191E+03   -0.23072E-04   -0.26222E-06   984   0.463E-03    0.272E-03
DAV:  12    -0.480140369276E+03   -0.22085E-04   -0.19767E-06   936   0.326E-03    0.202E-03
DAV:  13    -0.480140390338E+03   -0.21062E-04   -0.19364E-06   984   0.242E-03    0.122E-03
DAV:  14    -0.480140405805E+03   -0.15466E-04   -0.15756E-06   936   0.194E-03    0.983E-04
DAV:  15    -0.480140413984E+03   -0.81798E-05   -0.99673E-07   984   0.154E-03
   7 F= -.48014041E+03 E0= -.48010667E+03  d E =-.333505E+00
 curvature:  -3.06 expect dE=-0.710E+00 dE for cont linesearch -0.227E-06
 trial: gam= 1.15599 g(F)=  0.224E+00 g(S)=  0.826E-02 ort =-0.172E-03 (trialstep = 0.107E+01)
 search vector abs. value=  0.768E+00
 bond charge predicted
       N       E                     dE             d eps       ncg     rms          rms(c)
DAV:   1    -0.480316060329E+03   -0.17565E+00   -0.49824E+01  1424   0.135E+01    0.133E+00
DAV:   2    -0.480500817574E+03   -0.18476E+00   -0.64045E-01  1560   0.217E+00    0.546E+00
DAV:   3    -0.480367405767E+03    0.13341E+00   -0.55308E-01  1520   0.118E+00    0.101E+00
DAV:   4    -0.480349670730E+03    0.17735E-01   -0.35133E-02  1512   0.500E-01    0.691E-01
DAV:   5    -0.480347348406E+03    0.23223E-02   -0.88893E-03  1616   0.346E-01    0.368E-01
DAV:   6    -0.480347378733E+03   -0.30327E-04   -0.44357E-03  1592   0.209E-01    0.213E-01
DAV:   7    -0.480347112564E+03    0.26617E-03   -0.10363E-03  1592   0.112E-01    0.114E-01
DAV:   8    -0.480347076022E+03    0.36542E-04   -0.27097E-04  1592   0.506E-02    0.411E-02
DAV:   9    -0.480347099262E+03   -0.23240E-04   -0.47458E-05  1336   0.201E-02    0.201E-02
DAV:  10    -0.480347116324E+03   -0.17061E-04   -0.92559E-06   928   0.956E-03    0.699E-03
DAV:  11    -0.480347129761E+03   -0.13437E-04   -0.28394E-06   968   0.523E-03    0.332E-03
DAV:  12    -0.480347139452E+03   -0.96911E-05   -0.12153E-06   944   0.275E-03
   8 F= -.48034714E+03 E0= -.48031645E+03  d E =-.206725E+00
 trial-energy change:   -0.206725  1 .order   -0.207250   -0.249191   -0.165308
 step:   3.4838(harm=  3.1909)  dis= 0.14557  next Energy=  -480.526649 (dE=-0.386E+00)
 bond charge predicted
       N       E                     dE             d eps       ncg     rms          rms(c)
DAV:   1    -0.480334652034E+03    0.12478E-01   -0.25600E+02  1416   0.304E+01    0.277E+00
DAV:   2    -0.480893996505E+03   -0.55934E+00   -0.31250E+00  1568   0.459E+00    0.855E+00
DAV:   3    -0.480593191933E+03    0.30080E+00   -0.15880E+00  1512   0.203E+00    0.208E+00
DAV:   4    -0.480525027060E+03    0.68165E-01   -0.69704E-02  1512   0.869E-01    0.111E+00
DAV:   5    -0.480519543699E+03    0.54834E-02   -0.25239E-02  1640   0.533E-01    0.631E-01
DAV:   6    -0.480521185118E+03   -0.16414E-02   -0.14539E-02  1568   0.377E-01    0.488E-01
DAV:   7    -0.480519727419E+03    0.14577E-02   -0.46390E-03  1528   0.224E-01    0.184E-01
DAV:   8    -0.480519519952E+03    0.20747E-03   -0.70767E-04  1584   0.991E-02    0.769E-02
DAV:   9    -0.480519584031E+03   -0.64079E-04   -0.25932E-04  1584   0.438E-02    0.324E-02
DAV:  10    -0.480519644828E+03   -0.60797E-04   -0.37997E-05  1256   0.192E-02    0.146E-02
DAV:  11    -0.480519692053E+03   -0.47225E-04   -0.93256E-06  1000   0.103E-02    0.711E-03
DAV:  12    -0.480519733855E+03   -0.41802E-04   -0.44621E-06  1000   0.526E-03    0.266E-03
DAV:  13    -0.480519762309E+03   -0.28454E-04   -0.22772E-06  1000   0.298E-03    0.208E-03
DAV:  14    -0.480519788730E+03   -0.26420E-04   -0.21129E-06   984   0.262E-03    0.147E-03
DAV:  15    -0.480519814882E+03   -0.26152E-04   -0.27902E-06  1000   0.246E-03    0.919E-04
DAV:  16    -0.480519824654E+03   -0.97721E-05   -0.10402E-06   976   0.164E-03
   9 F= -.48051982E+03 E0= -.48049547E+03  d E =-.379411E+00
 curvature:  -5.18 expect dE=-0.978E+00 dE for cont linesearch -0.389E-03
 trial: gam= 0.88842 g(F)=  0.188E+00 g(S)=  0.113E-02 ort =-0.759E-02 (trialstep = 0.153E+01)
 search vector abs. value=  0.781E+00
 bond charge predicted
       N       E                     dE             d eps       ncg     rms          rms(c)
DAV:   1    -0.480611675399E+03   -0.91861E-01   -0.99270E+01  1416   0.192E+01    0.162E+00
DAV:   2    -0.480701685146E+03   -0.90010E-01   -0.11059E+00  1592   0.270E+00    0.137E+00
DAV:   3    -0.480732223809E+03   -0.30539E-01   -0.16037E-01  1616   0.970E-01    0.184E+00
DAV:   4    -0.480691430989E+03    0.40793E-01   -0.43109E-02  1568   0.679E-01    0.548E-01
DAV:   5    -0.480690428770E+03    0.10022E-02   -0.11312E-02  1600   0.277E-01    0.279E-01
DAV:   6    -0.480690184627E+03    0.24414E-03   -0.18281E-03  1640   0.145E-01    0.118E-01
DAV:   7    -0.480690210600E+03   -0.25973E-04   -0.47163E-04  1552   0.785E-02    0.514E-02
DAV:   8    -0.480690235746E+03   -0.25146E-04   -0.85710E-05  1552   0.340E-02    0.269E-02
DAV:   9    -0.480690268830E+03   -0.33084E-04   -0.33252E-05  1176   0.169E-02    0.119E-02
DAV:  10    -0.480690293517E+03   -0.24688E-04   -0.74630E-06   944   0.835E-03    0.426E-03
DAV:  11    -0.480690310614E+03   -0.17097E-04   -0.25731E-06   968   0.439E-03    0.252E-03
DAV:  12    -0.480690329178E+03   -0.18564E-04   -0.16907E-06   904   0.280E-03    0.169E-03
DAV:  13    -0.480690347565E+03   -0.18386E-04   -0.19429E-06   968   0.246E-03    0.112E-03
DAV:  14    -0.480690355740E+03   -0.81756E-05   -0.78395E-07   952   0.160E-03
  10 F= -.48069036E+03 E0= -.48066550E+03  d E =-.170531E+00
 trial-energy change:   -0.170531  1 .order   -0.171080   -0.278272   -0.063887
 step:   1.9946(harm=  1.9853)  dis= 0.08585  next Energy=  -480.700054 (dE=-0.180E+00)
 bond charge predicted
       N       E                     dE             d eps       ncg     rms          rms(c)
DAV:   1    -0.480693127479E+03   -0.27799E-02   -0.91069E+00  1424   0.580E+00    0.484E-01
DAV:   2    -0.480700697536E+03   -0.75701E-02   -0.98072E-02  1584   0.809E-01    0.306E-01
DAV:   3    -0.480703372009E+03   -0.26745E-02   -0.95683E-03  1584   0.259E-01    0.596E-01
DAV:   4    -0.480700280921E+03    0.30911E-02   -0.47827E-03  1528   0.195E-01    0.213E-01
DAV:   5    -0.480700104418E+03    0.17650E-03   -0.86917E-04  1496   0.834E-02    0.783E-02
DAV:   6    -0.480700080771E+03    0.23647E-04   -0.19242E-04  1592   0.412E-02    0.400E-02
DAV:   7    -0.480700077171E+03    0.35996E-05   -0.42164E-05  1144   0.237E-02
  11 F= -.48070008E+03 E0= -.48067496E+03  d E =-.180253E+00
 curvature:  -4.26 expect dE=-0.259E+00 dE for cont linesearch -0.264E-08
 trial: gam= 0.31490 g(F)=  0.601E-01 g(S)=  0.621E-03 ort = 0.220E-04 (trialstep = 0.162E+01)
 search vector abs. value=  0.138E+00
 bond charge predicted
       N       E                     dE             d eps       ncg     rms          rms(c)
DAV:   1    -0.480757781752E+03   -0.57701E-01   -0.18342E+01  1408   0.903E+00    0.727E-01
DAV:   2    -0.480771968199E+03   -0.14186E-01   -0.21476E-01  1616   0.124E+00    0.425E-01
DAV:   3    -0.480777161744E+03   -0.51935E-02   -0.18389E-02  1600   0.386E-01    0.970E-01
DAV:   4    -0.480771259136E+03    0.59026E-02   -0.13173E-02  1520   0.278E-01    0.315E-01
DAV:   5    -0.480770504565E+03    0.75457E-03   -0.16847E-03  1512   0.131E-01    0.115E-01
DAV:   6    -0.480770461150E+03    0.43415E-04   -0.46848E-04  1632   0.693E-02    0.426E-02
DAV:   7    -0.480770463277E+03   -0.21274E-05   -0.81629E-05  1552   0.272E-02
  12 F= -.48077046E+03 E0= -.48074749E+03  d E =-.703861E-01
 trial-energy change:   -0.070386  1 .order   -0.070277   -0.098614   -0.041940
 step:   2.8233(harm=  2.8233)  dis= 0.04925  next Energy=  -480.785873 (dE=-0.858E-01)
 bond charge predicted
       N       E                     dE             d eps       ncg     rms          rms(c)
DAV:   1    -0.480779018993E+03   -0.85578E-02   -0.10041E+01  1408   0.668E+00    0.536E-01
DAV:   2    -0.480786959032E+03   -0.79400E-02   -0.11728E-01  1624   0.918E-01    0.333E-01
DAV:   3    -0.480790492179E+03   -0.35331E-02   -0.11046E-02  1576   0.304E-01    0.772E-01
DAV:   4    -0.480786381780E+03    0.41104E-02   -0.73819E-03  1520   0.219E-01    0.220E-01
DAV:   5    -0.480786073656E+03    0.30812E-03   -0.10099E-03  1504   0.978E-02    0.921E-02
DAV:   6    -0.480786038208E+03    0.35448E-04   -0.23901E-04  1616   0.490E-02    0.307E-02
DAV:   7    -0.480786047091E+03   -0.88827E-05   -0.42349E-05  1240   0.212E-02
  13 F= -.48078605E+03 E0= -.48076446E+03  d E =-.859699E-01
 curvature:  -3.21 expect dE=-0.190E+00 dE for cont linesearch -0.160E-07
 trial: gam= 0.99796 g(F)=  0.582E-01 g(S)=  0.919E-03 ort =-0.263E-04 (trialstep = 0.131E+01)
 search vector abs. value=  0.197E+00
 bond charge predicted
       N       E                     dE             d eps       ncg     rms          rms(c)
DAV:   1    -0.480835673583E+03   -0.49635E-01   -0.17001E+01  1424   0.872E+00    0.581E-01
DAV:   2    -0.480850798719E+03   -0.15125E-01   -0.18459E-01  1608   0.112E+00    0.360E-01
DAV:   3    -0.480852247759E+03   -0.14490E-02   -0.90291E-03  1624   0.289E-01    0.570E-01
DAV:   4    -0.480850377614E+03    0.18701E-02   -0.52785E-03  1552   0.192E-01    0.279E-01
DAV:   5    -0.480849942865E+03    0.43475E-03   -0.11853E-03  1568   0.121E-01    0.102E-01
DAV:   6    -0.480849955321E+03   -0.12456E-04   -0.42643E-04  1616   0.635E-02    0.312E-02
DAV:   7    -0.480849961015E+03   -0.56936E-05   -0.50898E-05  1352   0.233E-02
  14 F= -.48084996E+03 E0= -.48082966E+03  d E =-.639139E-01
 trial-energy change:   -0.063914  1 .order   -0.063872   -0.077305   -0.050440
 step:   3.7673(harm=  3.7673)  dis= 0.08194  next Energy=  -480.897269 (dE=-0.111E+00)
 bond charge predicted
       N       E                     dE             d eps       ncg     rms          rms(c)
DAV:   1    -0.480846423357E+03    0.35320E-02   -0.60151E+01  1416   0.164E+01    0.110E+00
DAV:   2    -0.480901369998E+03   -0.54947E-01   -0.66091E-01  1616   0.212E+00    0.718E-01
DAV:   3    -0.480909846053E+03   -0.84761E-02   -0.37591E-02  1608   0.586E-01    0.132E+00
DAV:   4    -0.480899164811E+03    0.10681E-01   -0.25739E-02  1552   0.392E-01    0.490E-01
DAV:   5    -0.480897549094E+03    0.16157E-02   -0.41848E-03  1552   0.223E-01    0.197E-01
DAV:   6    -0.480897579605E+03   -0.30511E-04   -0.15635E-03  1624   0.120E-01    0.576E-02
DAV:   7    -0.480897596267E+03   -0.16662E-04   -0.20351E-04  1616   0.460E-02    0.364E-02
DAV:   8    -0.480897622637E+03   -0.26370E-04   -0.48464E-05  1480   0.212E-02    0.174E-02
DAV:   9    -0.480897651764E+03   -0.29127E-04   -0.97869E-06   960   0.114E-02    0.673E-03
DAV:  10    -0.480897673611E+03   -0.21847E-04   -0.44598E-06  1000   0.639E-03    0.356E-03
DAV:  11    -0.480897689960E+03   -0.16349E-04   -0.17485E-06   960   0.347E-03    0.245E-03
DAV:  12    -0.480897708990E+03   -0.19030E-04   -0.15934E-06   944   0.237E-03    0.156E-03
DAV:  13    -0.480897726813E+03   -0.17824E-04   -0.18655E-06   984   0.211E-03    0.101E-03
DAV:  14    -0.480897735217E+03   -0.84039E-05   -0.85879E-07   992   0.158E-03
  15 F= -.48089774E+03 E0= -.48088006E+03  d E =-.111688E+00
 curvature:  -6.28 expect dE=-0.413E+00 dE for cont linesearch -0.213E-05
 trial: gam= 1.10453 g(F)=  0.645E-01 g(S)=  0.134E-02 ort = 0.259E-03 (trialstep = 0.116E+01)
 search vector abs. value=  0.306E+00
 bond charge predicted
       N       E                     dE             d eps       ncg     rms          rms(c)
DAV:   1    -0.480940223008E+03   -0.42496E-01   -0.20695E+01  1432   0.976E+00    0.621E-01
DAV:   2    -0.480958004919E+03   -0.17782E-01   -0.22050E-01  1616   0.125E+00    0.398E-01
DAV:   3    -0.480958569902E+03   -0.56498E-03   -0.10675E-02  1640   0.331E-01    0.482E-01
DAV:   4    -0.480957886608E+03    0.68329E-03   -0.55510E-03  1552   0.206E-01    0.357E-01
DAV:   5    -0.480956973896E+03    0.91271E-03   -0.14984E-03  1536   0.144E-01    0.118E-01
DAV:   6    -0.480957001927E+03   -0.28032E-04   -0.61649E-04  1600   0.766E-02    0.330E-02
DAV:   7    -0.480957005185E+03   -0.32575E-05   -0.98819E-05  1640   0.300E-02
  16 F= -.48095701E+03 E0= -.48094033E+03  d E =-.592700E-01
 trial-energy change:   -0.059270  1 .order   -0.059269   -0.076417   -0.042122
 step:   2.5766(harm=  2.5766)  dis= 0.07134  next Energy=  -480.982872 (dE=-0.851E-01)
 bond charge predicted
       N       E                     dE             d eps       ncg     rms          rms(c)
DAV:   1    -0.480957616839E+03   -0.61491E-03   -0.31250E+01  1432   0.120E+01    0.769E-01
DAV:   2    -0.480984964630E+03   -0.27348E-01   -0.33494E-01  1624   0.154E+00    0.510E-01
DAV:   3    -0.480987413235E+03   -0.24486E-02   -0.18481E-02  1640   0.434E-01    0.761E-01
DAV:   4    -0.480984111220E+03    0.33020E-02   -0.96779E-03  1536   0.273E-01    0.384E-01
DAV:   5    -0.480983194721E+03    0.91650E-03   -0.20597E-03  1560   0.169E-01    0.149E-01
DAV:   6    -0.480983214380E+03   -0.19659E-04   -0.91369E-04  1600   0.946E-02    0.379E-02
DAV:   7    -0.480983228581E+03   -0.14201E-04   -0.15547E-04  1608   0.372E-02    0.264E-02
DAV:   8    -0.480983235777E+03   -0.71957E-05   -0.18978E-05   976   0.140E-02
  17 F= -.48098324E+03 E0= -.48096780E+03  d E =-.855006E-01
 curvature:  -5.97 expect dE=-0.251E+00 dE for cont linesearch -0.169E-05
 trial: gam= 0.64674 g(F)=  0.418E-01 g(S)=  0.136E-03 ort = 0.294E-03 (trialstep = 0.144E+01)
 search vector abs. value=  0.171E+00
 bond charge predicted
       N       E                     dE             d eps       ncg     rms          rms(c)
DAV:   1    -0.481012179239E+03   -0.28951E-01   -0.17537E+01  1408   0.906E+00    0.574E-01
DAV:   2    -0.481028771195E+03   -0.16592E-01   -0.19506E-01  1592   0.118E+00    0.450E-01
DAV:   3    -0.481031140052E+03   -0.23689E-02   -0.14576E-02  1592   0.356E-01    0.631E-01
DAV:   4    -0.481027547051E+03    0.35930E-02   -0.43730E-03  1520   0.224E-01    0.243E-01
DAV:   5    -0.481027316507E+03    0.23054E-03   -0.14051E-03  1600   0.118E-01    0.113E-01
DAV:   6    -0.481027310826E+03    0.56807E-05   -0.41788E-04  1648   0.624E-02    0.425E-02
DAV:   7    -0.481027319052E+03   -0.82263E-05   -0.62602E-05  1368   0.266E-02
  18 F= -.48102732E+03 E0= -.48101356E+03  d E =-.440833E-01
 trial-energy change:   -0.044083  1 .order   -0.044025   -0.060726   -0.027324
 step:   2.6187(harm=  2.6187)  dis= 0.05499  next Energy=  -481.038437 (dE=-0.552E-01)
 bond charge predicted
       N       E                     dE             d eps       ncg     rms          rms(c)
DAV:   1    -0.481028435204E+03   -0.11244E-02   -0.11730E+01  1408   0.741E+00    0.471E-01
DAV:   2    -0.481039422447E+03   -0.10987E-01   -0.13053E-01  1592   0.960E-01    0.337E-01
DAV:   3    -0.481040627606E+03   -0.12052E-02   -0.83181E-03  1616   0.275E-01    0.468E-01
DAV:   4    -0.481038837544E+03    0.17901E-02   -0.27561E-03  1520   0.175E-01    0.213E-01
DAV:   5    -0.481038638363E+03    0.19918E-03   -0.85140E-04  1560   0.955E-02    0.953E-02
DAV:   6    -0.481038632150E+03    0.62131E-05   -0.29946E-04  1600   0.529E-02    0.356E-02
DAV:   7    -0.481038636435E+03   -0.42847E-05   -0.44907E-05  1360   0.227E-02
  19 F= -.48103864E+03 E0= -.48102606E+03  d E =-.554007E-01
 curvature:  -5.30 expect dE=-0.189E+00 dE for cont linesearch -0.692E-06
 trial: gam= 0.85786 g(F)=  0.353E-01 g(S)=  0.391E-03 ort = 0.149E-03 (trialstep = 0.168E+01)
 search vector abs. value=  0.161E+00
 bond charge predicted
       N       E                     dE             d eps       ncg     rms          rms(c)
DAV:   1    -0.481064420171E+03   -0.25788E-01   -0.22563E+01  1408   0.102E+01    0.667E-01
DAV:   2    -0.481093947410E+03   -0.29527E-01   -0.25010E-01  1584   0.135E+00    0.107E+00
DAV:   3    -0.481084635311E+03    0.93121E-02   -0.26468E-02  1528   0.510E-01    0.508E-01
DAV:   4    -0.481082823909E+03    0.18114E-02   -0.43014E-03  1520   0.222E-01    0.270E-01
DAV:   5    -0.481082672931E+03    0.15098E-03   -0.22013E-03  1664   0.157E-01    0.188E-01
DAV:   6    -0.481082442634E+03    0.23030E-03   -0.61062E-04  1568   0.830E-02    0.389E-02
DAV:   7    -0.481082455864E+03   -0.13230E-04   -0.81217E-05  1392   0.263E-02    0.265E-02
DAV:   8    -0.481082458961E+03   -0.30972E-05   -0.14290E-05  1032   0.121E-02
  20 F= -.48108246E+03 E0= -.48107098E+03  d E =-.438225E-01
 trial-energy change:   -0.043823  1 .order   -0.043745   -0.060097   -0.027392
 step:   3.0799(harm=  3.0799)  dis= 0.06371  next Energy=  -481.093852 (dE=-0.552E-01)
 bond charge predicted
       N       E                     dE             d eps       ncg     rms          rms(c)
DAV:   1    -0.481081407981E+03    0.10479E-02   -0.15820E+01  1408   0.853E+00    0.558E-01
DAV:   2    -0.481102247417E+03   -0.20839E-01   -0.17537E-01  1592   0.113E+00    0.916E-01
DAV:   3    -0.481095456137E+03    0.67913E-02   -0.18853E-02  1528   0.430E-01    0.420E-01
DAV:   4    -0.481094184153E+03    0.12720E-02   -0.30181E-03  1520   0.185E-01    0.222E-01
DAV:   5    -0.481094069604E+03    0.11455E-03   -0.15480E-03  1656   0.129E-01    0.147E-01
DAV:   6    -0.481093935615E+03    0.13399E-03   -0.40250E-04  1536   0.669E-02    0.322E-02
DAV:   7    -0.481093948166E+03   -0.12552E-04   -0.53599E-05  1320   0.214E-02    0.215E-02
DAV:   8    -0.481093954734E+03   -0.65677E-05   -0.96945E-06   968   0.102E-02
  21 F= -.48109395E+03 E0= -.48108332E+03  d E =-.553183E-01
 curvature:  -6.93 expect dE=-0.231E+00 dE for cont linesearch -0.359E-06
 trial: gam= 0.93732 g(F)=  0.329E-01 g(S)=  0.372E-03 ort =-0.914E-04 (trialstep = 0.181E+01)
 search vector abs. value=  0.175E+00
 bond charge predicted
       N       E                     dE             d eps       ncg     rms          rms(c)
DAV:   1    -0.481114403396E+03   -0.20455E-01   -0.28214E+01  1408   0.113E+01    0.908E-01
DAV:   2    -0.481171442532E+03   -0.57039E-01   -0.35319E-01  1560   0.167E+00    0.178E+00
DAV:   3    -0.481136047106E+03    0.35395E-01   -0.57564E-02  1504   0.772E-01    0.456E-01
DAV:   4    -0.481134557661E+03    0.14894E-02   -0.69701E-03  1560   0.248E-01    0.306E-01
DAV:   5    -0.481134527678E+03    0.29984E-04   -0.33437E-03  1664   0.192E-01    0.248E-01
DAV:   6    -0.481134111109E+03    0.41657E-03   -0.10988E-03  1544   0.112E-01    0.693E-02
DAV:   7    -0.481134106111E+03    0.49979E-05   -0.14227E-04  1544   0.362E-02    0.333E-02
DAV:   8    -0.481134113973E+03   -0.78619E-05   -0.23187E-05  1040   0.153E-02
  22 F= -.48113411E+03 E0= -.48112530E+03  d E =-.401592E-01
 trial-energy change:   -0.040159  1 .order   -0.040030   -0.059916   -0.020143
 step:   2.6947(harm=  2.7207)  dis= 0.05798  next Energy=  -481.139086 (dE=-0.451E-01)
 bond charge predicted
       N       E                     dE             d eps       ncg     rms          rms(c)
DAV:   1    -0.481134549912E+03   -0.44380E-03   -0.68211E+00  1408   0.555E+00    0.443E-01
DAV:   2    -0.481148985480E+03   -0.14436E-01   -0.84738E-02  1568   0.825E-01    0.976E-01
DAV:   3    -0.481139795380E+03    0.91901E-02   -0.14695E-02  1504   0.384E-01    0.246E-01
DAV:   4    -0.481139365307E+03    0.43007E-03   -0.17799E-03  1536   0.127E-01    0.153E-01
DAV:   5    -0.481139309782E+03    0.55525E-04   -0.80212E-04  1648   0.900E-02    0.992E-02
DAV:   6    -0.481139256682E+03    0.53100E-04   -0.20295E-04  1528   0.477E-02    0.277E-02
DAV:   7    -0.481139264071E+03   -0.73897E-05   -0.23445E-05   992   0.154E-02
  23 F= -.48113926E+03 E0= -.48113117E+03  d E =-.453093E-01
 curvature:  -7.17 expect dE=-0.175E+00 dE for cont linesearch -0.480E-05
 trial: gam= 0.72402 g(F)=  0.240E-01 g(S)=  0.405E-03 ort = 0.342E-03 (trialstep = 0.198E+01)
 search vector abs. value=  0.117E+00
 bond charge predicted
       N       E                     dE             d eps       ncg     rms          rms(c)
DAV:   1    -0.481157995805E+03   -0.18739E-01   -0.22789E+01  1408   0.101E+01    0.824E-01
DAV:   2    -0.481198784672E+03   -0.40789E-01   -0.27842E-01  1552   0.146E+00    0.155E+00
DAV:   3    -0.481174436820E+03    0.24348E-01   -0.43215E-02  1528   0.662E-01    0.432E-01
DAV:   4    -0.481173253337E+03    0.11835E-02   -0.55523E-03  1544   0.231E-01    0.296E-01
DAV:   5    -0.481173066593E+03    0.18674E-03   -0.26912E-03  1680   0.169E-01    0.199E-01
DAV:   6    -0.481172801807E+03    0.26479E-03   -0.74568E-04  1528   0.886E-02    0.533E-02
DAV:   7    -0.481172804816E+03   -0.30090E-05   -0.88639E-05  1456   0.282E-02
  24 F= -.48117280E+03 E0= -.48116556E+03  d E =-.335407E-01
 trial-energy change:   -0.033541  1 .order   -0.033523   -0.048968   -0.018078
 step:   3.1447(harm=  3.1447)  dis= 0.05443  next Energy=  -481.178077 (dE=-0.388E-01)
 bond charge predicted
       N       E                     dE             d eps       ncg     rms          rms(c)
DAV:   1    -0.481172998555E+03   -0.19675E-03   -0.77986E+00  1408   0.589E+00    0.476E-01
DAV:   2    -0.481186900622E+03   -0.13902E-01   -0.93902E-02  1560   0.852E-01    0.949E-01
DAV:   3    -0.481178673284E+03    0.82273E-02   -0.14789E-02  1528   0.384E-01    0.268E-01
DAV:   4    -0.481178221875E+03    0.45141E-03   -0.18992E-03  1536   0.138E-01    0.174E-01
DAV:   5    -0.481178128799E+03    0.93076E-04   -0.89295E-04  1672   0.940E-02    0.943E-02
DAV:   6    -0.481178083045E+03    0.45753E-04   -0.18973E-04  1528   0.456E-02    0.284E-02
DAV:   7    -0.481178091585E+03   -0.85399E-05   -0.22633E-05  1016   0.154E-02
  25 F= -.48117809E+03 E0= -.48117121E+03  d E =-.388275E-01
 curvature:  -7.43 expect dE=-0.174E+00 dE for cont linesearch -0.604E-07
 trial: gam= 0.96294 g(F)=  0.233E-01 g(S)=  0.131E-03 ort =-0.308E-04 (trialstep = 0.197E+01)
 search vector abs. value=  0.132E+00
 bond charge predicted
       N       E                     dE             d eps       ncg     rms          rms(c)
DAV:   1    -0.481188745410E+03   -0.10662E-01   -0.25545E+01  1408   0.106E+01    0.881E-01
DAV:   2    -0.481242009241E+03   -0.53264E-01   -0.32576E-01  1552   0.160E+00    0.177E+00
DAV:   3    -0.481207777579E+03    0.34232E-01   -0.53783E-02  1520   0.747E-01    0.407E-01
DAV:   4    -0.481206622763E+03    0.11548E-02   -0.62220E-03  1560   0.243E-01    0.302E-01
DAV:   5    -0.481206547211E+03    0.75551E-04   -0.30706E-03  1680   0.179E-01    0.212E-01
DAV:   6    -0.481206267813E+03    0.27940E-03   -0.81668E-04  1576   0.991E-02    0.668E-02
DAV:   7    -0.481206262609E+03    0.52041E-05   -0.11216E-04  1544   0.326E-02    0.287E-02
DAV:   8    -0.481206275457E+03   -0.12848E-04   -0.15835E-05  1008   0.133E-02    0.132E-02
DAV:   9    -0.481206292961E+03   -0.17504E-04   -0.69650E-06   992   0.776E-03    0.287E-03
DAV:  10    -0.481206302644E+03   -0.96827E-05   -0.18082E-06   976   0.399E-03
  26 F= -.48120630E+03 E0= -.48119929E+03  d E =-.282111E-01
 trial-energy change:   -0.028211  1 .order   -0.028163   -0.045975   -0.010351
 step:   2.5363(harm=  2.5363)  dis= 0.04585  next Energy=  -481.207759 (dE=-0.297E-01)
 bond charge predicted
       N       E                     dE             d eps       ncg     rms          rms(c)
DAV:   1    -0.481206370689E+03   -0.77728E-04   -0.21534E+00  1408   0.307E+00    0.251E-01
DAV:   2    -0.481210962554E+03   -0.45919E-02   -0.26754E-02  1568   0.462E-01    0.576E-01
DAV:   3    -0.481207979384E+03    0.29832E-02   -0.46158E-03  1520   0.216E-01    0.137E-01
DAV:   4    -0.481207863368E+03    0.11602E-03   -0.53128E-04  1520   0.738E-02    0.891E-02
DAV:   5    -0.481207840655E+03    0.22713E-04   -0.24805E-04  1664   0.478E-02    0.463E-02
DAV:   6    -0.481207834501E+03    0.61535E-05   -0.46402E-05  1336   0.233E-02
  27 F= -.48120783E+03 E0= -.48120077E+03  d E =-.297429E-01
 curvature:  -7.13 expect dE=-0.122E+00 dE for cont linesearch -0.399E-06
 trial: gam= 0.72029 g(F)=  0.164E-01 g(S)=  0.718E-03 ort =-0.858E-04 (trialstep = 0.208E+01)
 search vector abs. value=  0.852E-01
 bond charge predicted
       N       E                     dE             d eps       ncg     rms          rms(c)
DAV:   1    -0.481215624981E+03   -0.77843E-02   -0.18898E+01  1408   0.901E+00    0.564E-01
DAV:   2    -0.481233734900E+03   -0.18110E-01   -0.19675E-01  1616   0.116E+00    0.652E-01
DAV:   3    -0.481232685400E+03    0.10495E-02   -0.15863E-02  1584   0.379E-01    0.539E-01
DAV:   4    -0.481230445410E+03    0.22400E-02   -0.34397E-03  1552   0.215E-01    0.244E-01
DAV:   5    -0.481230233434E+03    0.21198E-03   -0.17704E-03  1616   0.132E-01    0.122E-01
DAV:   6    -0.481230180515E+03    0.52919E-04   -0.39877E-04  1584   0.654E-02    0.323E-02
DAV:   7    -0.481230195830E+03   -0.15315E-04   -0.59093E-05  1352   0.217E-02    0.184E-02
DAV:   8    -0.481230205273E+03   -0.94429E-05   -0.95063E-06   960   0.109E-02
  28 F= -.48123021E+03 E0= -.48122321E+03  d E =-.223708E-01
 trial-energy change:   -0.022371  1 .order   -0.022205   -0.035479   -0.008931
 step:   2.7459(harm=  2.7789)  dis= 0.03907  next Energy=  -481.231642 (dE=-0.238E-01)
 bond charge predicted
       N       E                     dE             d eps       ncg     rms          rms(c)
DAV:   1    -0.481230262065E+03   -0.66235E-04   -0.19384E+00  1408   0.288E+00    0.177E-01
DAV:   2    -0.481232073131E+03   -0.18111E-02   -0.19989E-02  1616   0.371E-01    0.203E-01
DAV:   3    -0.481232002817E+03    0.70315E-04   -0.15606E-03  1592   0.118E-01    0.170E-01
DAV:   4    -0.481231763714E+03    0.23910E-03   -0.34711E-04  1536   0.683E-02    0.733E-02
DAV:   5    -0.481231751385E+03    0.12329E-04   -0.18442E-04  1568   0.404E-02    0.325E-02
DAV:   6    -0.481231753126E+03   -0.17407E-05   -0.33434E-05  1216   0.193E-02
  29 F= -.48123175E+03 E0= -.48122476E+03  d E =-.239186E-01
 curvature:  -6.93 expect dE=-0.997E-01 dE for cont linesearch -0.418E-05
 trial: gam= 0.83384 g(F)=  0.143E-01 g(S)=  0.678E-04 ort = 0.227E-03 (trialstep = 0.221E+01)
 search vector abs. value=  0.740E-01
 bond charge predicted
       N       E                     dE             d eps       ncg     rms          rms(c)
DAV:   1    -0.481238718180E+03   -0.69668E-02   -0.18923E+01  1432   0.878E+00    0.527E-01
DAV:   2    -0.481254767506E+03   -0.16049E-01   -0.18781E-01  1600   0.111E+00    0.456E-01
DAV:   3    -0.481255864637E+03   -0.10971E-02   -0.12233E-02  1616   0.328E-01    0.566E-01
DAV:   4    -0.481253384225E+03    0.24804E-02   -0.36421E-03  1552   0.207E-01    0.230E-01
DAV:   5    -0.481253084879E+03    0.29935E-03   -0.14229E-03  1592   0.109E-01    0.909E-02
DAV:   6    -0.481253083781E+03    0.10977E-05   -0.32351E-04  1624   0.551E-02    0.346E-02
DAV:   7    -0.481253096189E+03   -0.12408E-04   -0.54724E-05  1320   0.216E-02    0.173E-02
DAV:   8    -0.481253108279E+03   -0.12089E-04   -0.89318E-06   976   0.100E-02    0.654E-03
DAV:   9    -0.481253121198E+03   -0.12919E-04   -0.42734E-06   952   0.563E-03    0.327E-03
DAV:  10    -0.481253130285E+03   -0.90866E-05   -0.12769E-06   968   0.292E-03
  30 F= -.48125313E+03 E0= -.48124628E+03  d E =-.213772E-01
 trial-energy change:   -0.021377  1 .order   -0.021443   -0.032272   -0.010614
 step:   3.3277(harm=  3.2971)  dis= 0.04340  next Energy=  -481.255796 (dE=-0.240E-01)
 bond charge predicted
       N       E                     dE             d eps       ncg     rms          rms(c)
DAV:   1    -0.481252148418E+03    0.97278E-03   -0.47989E+00  1432   0.442E+00    0.263E-01
DAV:   2    -0.481256156319E+03   -0.40079E-02   -0.47319E-02  1600   0.559E-01    0.222E-01
DAV:   3    -0.481256439347E+03   -0.28303E-03   -0.29951E-03  1616   0.163E-01    0.275E-01
DAV:   4    -0.481255826110E+03    0.61324E-03   -0.90084E-04  1544   0.103E-01    0.113E-01
DAV:   5    -0.481255761519E+03    0.64591E-04   -0.35724E-04  1544   0.540E-02    0.430E-02
DAV:   6    -0.481255765876E+03   -0.43561E-05   -0.76249E-05  1376   0.268E-02
  31 F= -.48125577E+03 E0= -.48124902E+03  d E =-.240127E-01
 curvature:  -8.36 expect dE=-0.144E+00 dE for cont linesearch -0.179E-05
 trial: gam= 1.21637 g(F)=  0.170E-01 g(S)=  0.193E-03 ort =-0.126E-03 (trialstep = 0.143E+01)
 search vector abs. value=  0.126E+00
 bond charge predicted
       N       E                     dE             d eps       ncg     rms          rms(c)
DAV:   1    -0.481264906518E+03   -0.91450E-02   -0.13836E+01  1440   0.735E+00    0.448E-01
DAV:   2    -0.481279934922E+03   -0.15028E-01   -0.13827E-01  1592   0.958E-01    0.713E-01
DAV:   3    -0.481276104854E+03    0.38301E-02   -0.12413E-02  1584   0.337E-01    0.327E-01
DAV:   4    -0.481275261096E+03    0.84376E-03   -0.18036E-03  1504   0.147E-01    0.168E-01
DAV:   5    -0.481275191780E+03    0.69316E-04   -0.13337E-03  1600   0.103E-01    0.920E-02
DAV:   6    -0.481275146646E+03    0.45134E-04   -0.22185E-04  1576   0.491E-02    0.250E-02
DAV:   7    -0.481275157930E+03   -0.11284E-04   -0.31028E-05  1128   0.161E-02    0.128E-02
DAV:   8    -0.481275169813E+03   -0.11883E-04   -0.78785E-06   976   0.881E-03    0.681E-03
DAV:   9    -0.481275179024E+03   -0.92112E-05   -0.27730E-06   968   0.481E-03
  32 F= -.48127518E+03 E0= -.48126841E+03  d E =-.194131E-01
 trial-energy change:   -0.019413  1 .order   -0.019389   -0.024300   -0.014478
 step:   3.5290(harm=  3.5290)  dis= 0.06020  next Energy=  -481.285826 (dE=-0.301E-01)
 bond charge predicted
       N       E                     dE             d eps       ncg     rms          rms(c)
DAV:   1    -0.481263304607E+03    0.11865E-01   -0.30103E+01  1432   0.108E+01    0.658E-01
DAV:   2    -0.481295638404E+03   -0.32334E-01   -0.30250E-01  1592   0.141E+00    0.997E-01
DAV:   3    -0.481287783481E+03    0.78549E-02   -0.26439E-02  1584   0.491E-01    0.471E-01
DAV:   4    -0.481285994247E+03    0.17892E-02   -0.38715E-03  1512   0.216E-01    0.249E-01
DAV:   5    -0.481285821925E+03    0.17232E-03   -0.28681E-03  1592   0.155E-01    0.146E-01
DAV:   6    -0.481285696333E+03    0.12559E-03   -0.52204E-04  1552   0.755E-02    0.367E-02
DAV:   7    -0.481285713274E+03   -0.16941E-04   -0.74589E-05  1472   0.241E-02    0.196E-02
DAV:   8    -0.481285729030E+03   -0.15757E-04   -0.12529E-05   968   0.116E-02    0.106E-02
DAV:   9    -0.481285744172E+03   -0.15142E-04   -0.51425E-06   936   0.674E-03    0.290E-03
DAV:  10    -0.481285754412E+03   -0.10240E-04   -0.16000E-06   944   0.334E-03    0.210E-03
DAV:  11    -0.481285767030E+03   -0.12618E-04   -0.12120E-06   936   0.244E-03    0.104E-03
DAV:  12    -0.481285775665E+03   -0.86351E-05   -0.87733E-07   968   0.169E-03
  33 F= -.48128578E+03 E0= -.48127900E+03  d E =-.300098E-01
 curvature: -13.09 expect dE=-0.269E+00 dE for cont linesearch -0.169E-05
 trial: gam= 1.18917 g(F)=  0.200E-01 g(S)=  0.549E-03 ort =-0.128E-03 (trialstep = 0.117E+01)
 search vector abs. value=  0.199E+00
 bond charge predicted
       N       E                     dE             d eps       ncg     rms          rms(c)
DAV:   1    -0.481293748377E+03   -0.79813E-02   -0.14921E+01  1424   0.748E+00    0.415E-01
DAV:   2    -0.481306119844E+03   -0.12371E-01   -0.14240E-01  1600   0.939E-01    0.343E-01
DAV:   3    -0.481306745896E+03   -0.62605E-03   -0.74842E-03  1608   0.251E-01    0.410E-01
DAV:   4    -0.481305471040E+03    0.12749E-02   -0.21012E-03  1520   0.155E-01    0.193E-01
DAV:   5    -0.481305290552E+03    0.18049E-03   -0.95568E-04  1600   0.923E-02    0.703E-02
DAV:   6    -0.481305312489E+03   -0.21936E-04   -0.23540E-04  1592   0.462E-02    0.286E-02
DAV:   7    -0.481305317851E+03   -0.53623E-05   -0.39054E-05  1280   0.187E-02
  34 F= -.48130532E+03 E0= -.48129834E+03  d E =-.195422E-01
 trial-energy change:   -0.019542  1 .order   -0.019583   -0.023924   -0.015241
 step:   3.4147(harm=  3.2326)  dis= 0.07385  next Energy=  -481.319595 (dE=-0.338E-01)
 bond charge predicted
       N       E                     dE             d eps       ncg     rms          rms(c)
DAV:   1    -0.481276062004E+03    0.29250E-01   -0.54673E+01  1432   0.143E+01    0.808E-01
DAV:   2    -0.481322334157E+03   -0.46272E-01   -0.52920E-01  1600   0.181E+00    0.661E-01
DAV:   3    -0.481324455459E+03   -0.21213E-02   -0.27774E-02  1608   0.483E-01    0.798E-01
DAV:   4    -0.481319839152E+03    0.46163E-02   -0.76300E-03  1536   0.295E-01    0.376E-01
DAV:   5    -0.481319042404E+03    0.79675E-03   -0.34221E-03  1608   0.177E-01    0.142E-01
DAV:   6    -0.481319123708E+03   -0.81304E-04   -0.95484E-04  1584   0.912E-02    0.516E-02
DAV:   7    -0.481319147222E+03   -0.23515E-04   -0.15064E-04  1592   0.356E-02    0.277E-02
DAV:   8    -0.481319162855E+03   -0.15633E-04   -0.24814E-05  1112   0.146E-02    0.119E-02
DAV:   9    -0.481319185652E+03   -0.22797E-04   -0.93108E-06   968   0.867E-03    0.474E-03
DAV:  10    -0.481319198733E+03   -0.13082E-04   -0.20770E-06   952   0.434E-03    0.263E-03
DAV:  11    -0.481319213978E+03   -0.15244E-04   -0.15108E-06   936   0.290E-03    0.118E-03
DAV:  12    -0.481319225396E+03   -0.11418E-04   -0.87400E-07   960   0.176E-03    0.895E-04
DAV:  13    -0.481319234063E+03   -0.86672E-05   -0.77142E-07   960   0.136E-03
  35 F= -.48131923E+03 E0= -.48131191E+03  d E =-.334584E-01
 curvature: -15.65 expect dE=-0.365E+00 dE for cont linesearch -0.583E-04
 trial: gam= 1.17670 g(F)=  0.233E-01 g(S)=  0.472E-04 ort =-0.861E-03 (trialstep = 0.109E+01)
 search vector abs. value=  0.297E+00
 bond charge predicted
       N       E                     dE             d eps       ncg     rms          rms(c)
DAV:   1    -0.481323791600E+03   -0.45662E-02   -0.19355E+01  1440   0.835E+00    0.451E-01
DAV:   2    -0.481339578937E+03   -0.15787E-01   -0.17931E-01  1600   0.104E+00    0.353E-01
DAV:   3    -0.481340122070E+03   -0.54313E-03   -0.81183E-03  1576   0.257E-01    0.411E-01
DAV:   4    -0.481338925762E+03    0.11963E-02   -0.23095E-03  1520   0.161E-01    0.216E-01
DAV:   5    -0.481338670375E+03    0.25539E-03   -0.11794E-03  1608   0.997E-02    0.737E-02
DAV:   6    -0.481338708969E+03   -0.38594E-04   -0.30149E-04  1576   0.504E-02    0.303E-02
DAV:   7    -0.481338715656E+03   -0.66865E-05   -0.43477E-05  1312   0.194E-02
  36 F= -.48133872E+03 E0= -.48133117E+03  d E =-.194816E-01
 trial-energy change:   -0.019482  1 .order   -0.019403   -0.024234   -0.014572
 step:   2.5584(harm=  2.7269)  dis= 0.06843  next Energy=  -481.348770 (dE=-0.295E-01)
 bond charge predicted
       N       E                     dE             d eps       ncg     rms          rms(c)
DAV:   1    -0.481321842927E+03    0.16866E-01   -0.35504E+01  1440   0.113E+01    0.616E-01
DAV:   2    -0.481351096091E+03   -0.29253E-01   -0.33150E-01  1600   0.141E+00    0.478E-01
DAV:   3    -0.481351975823E+03   -0.87973E-03   -0.14887E-02  1576   0.348E-01    0.553E-01
DAV:   4    -0.481349873229E+03    0.21026E-02   -0.41625E-03  1528   0.216E-01    0.295E-01
DAV:   5    -0.481349387460E+03    0.48577E-03   -0.21304E-03  1600   0.135E-01    0.103E-01
DAV:   6    -0.481349469423E+03   -0.81964E-04   -0.58723E-04  1576   0.700E-02    0.402E-02
DAV:   7    -0.481349487855E+03   -0.18432E-04   -0.82502E-05  1440   0.262E-02    0.216E-02
DAV:   8    -0.481349504106E+03   -0.16251E-04   -0.14364E-05   968   0.116E-02    0.850E-03
DAV:   9    -0.481349524144E+03   -0.20037E-04   -0.67536E-06   944   0.694E-03    0.356E-03
DAV:  10    -0.481349537208E+03   -0.13064E-04   -0.17974E-06   960   0.361E-03    0.196E-03
DAV:  11    -0.481349552275E+03   -0.15068E-04   -0.13540E-06   944   0.249E-03    0.107E-03
DAV:  12    -0.481349563584E+03   -0.11309E-04   -0.10223E-06   952   0.169E-03    0.824E-04
DAV:  13    -0.481349571951E+03   -0.83678E-05   -0.85235E-07   952   0.134E-03
  37 F= -.48134957E+03 E0= -.48134181E+03  d E =-.303379E-01
 curvature: -17.97 expect dE=-0.302E+00 dE for cont linesearch -0.111E-03
 trial: gam= 0.58921 g(F)=  0.162E-01 g(S)=  0.598E-03 ort = 0.135E-02 (trialstep = 0.138E+01)
 search vector abs. value=  0.121E+00
 bond charge predicted
       N       E                     dE             d eps       ncg     rms          rms(c)
DAV:   1    -0.481359060301E+03   -0.94967E-02   -0.12765E+01  1408   0.673E+00    0.412E-01
DAV:   2    -0.481370336920E+03   -0.11277E-01   -0.12227E-01  1616   0.873E-01    0.449E-01
DAV:   3    -0.481369679706E+03    0.65721E-03   -0.86140E-03  1568   0.279E-01    0.371E-01
DAV:   4    -0.481368522612E+03    0.11571E-02   -0.17838E-03  1520   0.146E-01    0.148E-01
DAV:   5    -0.481368443429E+03    0.79183E-04   -0.10643E-03  1600   0.885E-02    0.730E-02
DAV:   6    -0.481368423636E+03    0.19792E-04   -0.16705E-04  1624   0.423E-02    0.223E-02
DAV:   7    -0.481368430460E+03   -0.68242E-05   -0.23387E-05   984   0.143E-02
  38 F= -.48136843E+03 E0= -.48136054E+03  d E =-.188585E-01
 trial-energy change:   -0.018859  1 .order   -0.018848   -0.024331   -0.013366
 step:   3.0653(harm=  3.0653)  dis= 0.05166  next Energy=  -481.376567 (dE=-0.270E-01)
 bond charge predicted
       N       E                     dE             d eps       ncg     rms          rms(c)
DAV:   1    -0.481362409075E+03    0.60146E-02   -0.18975E+01  1408   0.821E+00    0.503E-01
DAV:   2    -0.481379124053E+03   -0.16715E-01   -0.18233E-01  1616   0.106E+00    0.530E-01
DAV:   3    -0.481378280438E+03    0.84361E-03   -0.12639E-02  1568   0.337E-01    0.453E-01
DAV:   4    -0.481376563726E+03    0.17167E-02   -0.26652E-03  1544   0.179E-01    0.182E-01
DAV:   5    -0.481376429744E+03    0.13398E-03   -0.15399E-03  1576   0.108E-01    0.902E-02
DAV:   6    -0.481376405589E+03    0.24155E-04   -0.25674E-04  1600   0.521E-02    0.269E-02
DAV:   7    -0.481376419316E+03   -0.13728E-04   -0.38647E-05  1208   0.176E-02    0.141E-02
DAV:   8    -0.481376431102E+03   -0.11785E-04   -0.83109E-06   952   0.884E-03    0.594E-03
DAV:   9    -0.481376440754E+03   -0.96521E-05   -0.28889E-06   944   0.480E-03
  39 F= -.48137644E+03 E0= -.48136848E+03  d E =-.268688E-01
 curvature: -10.57 expect dE=-0.195E+00 dE for cont linesearch -0.478E-05
 trial: gam= 1.19970 g(F)=  0.184E-01 g(S)=  0.693E-04 ort =-0.234E-03 (trialstep = 0.108E+01)
 search vector abs. value=  0.193E+00
 bond charge predicted
       N       E                     dE             d eps       ncg     rms          rms(c)
DAV:   1    -0.481383783982E+03   -0.73529E-02   -0.12692E+01  1408   0.652E+00    0.387E-01
DAV:   2    -0.481393887413E+03   -0.10103E-01   -0.11572E-01  1600   0.825E-01    0.366E-01
DAV:   3    -0.481393826070E+03    0.61343E-04   -0.71020E-03  1592   0.249E-01    0.362E-01
DAV:   4    -0.481392708545E+03    0.11175E-02   -0.17428E-03  1544   0.142E-01    0.140E-01
DAV:   5    -0.481392630807E+03    0.77737E-04   -0.98160E-04  1608   0.865E-02    0.609E-02
DAV:   6    -0.481392629143E+03    0.16648E-05   -0.16615E-04  1616   0.400E-02    0.221E-02
DAV:   7    -0.481392636219E+03   -0.70761E-05   -0.18971E-05  1000   0.134E-02
  40 F= -.48139264E+03 E0= -.48138443E+03  d E =-.161955E-01
 trial-energy change:   -0.016195  1 .order   -0.016162   -0.019686   -0.012638
 step:   3.0248(harm=  3.0248)  dis= 0.06385  next Energy=  -481.403934 (dE=-0.275E-01)
 bond charge predicted
       N       E                     dE             d eps       ncg     rms          rms(c)
DAV:   1    -0.481375221605E+03    0.17408E-01   -0.40919E+01  1408   0.117E+01    0.701E-01
DAV:   2    -0.481408245029E+03   -0.33023E-01   -0.37763E-01  1600   0.149E+00    0.649E-01
DAV:   3    -0.481407857342E+03    0.38769E-03   -0.23093E-02  1600   0.448E-01    0.646E-01
DAV:   4    -0.481404396004E+03    0.34613E-02   -0.55526E-03  1552   0.256E-01    0.257E-01
DAV:   5    -0.481404082265E+03    0.31374E-03   -0.29674E-03  1584   0.157E-01    0.119E-01
DAV:   6    -0.481404065020E+03    0.17245E-04   -0.61011E-04  1624   0.751E-02    0.390E-02
DAV:   7    -0.481404078386E+03   -0.13366E-04   -0.72116E-05  1472   0.245E-02    0.228E-02
DAV:   8    -0.481404094664E+03   -0.16278E-04   -0.16588E-05   984   0.130E-02    0.936E-03
DAV:   9    -0.481404106787E+03   -0.12122E-04   -0.46529E-06   944   0.663E-03    0.342E-03
DAV:  10    -0.481404115454E+03   -0.86675E-05   -0.13363E-06   952   0.351E-03
  41 F= -.48140412E+03 E0= -.48139557E+03  d E =-.276747E-01
 curvature: -16.03 expect dE=-0.298E+00 dE for cont linesearch -0.193E-05
 trial: gam= 0.86999 g(F)=  0.185E-01 g(S)=  0.136E-03 ort = 0.152E-03 (trialstep = 0.147E+01)
 search vector abs. value=  0.165E+00
 bond charge predicted
       N       E                     dE             d eps       ncg     rms          rms(c)
DAV:   1    -0.481410936206E+03   -0.68294E-02   -0.20225E+01  1424   0.818E+00    0.458E-01
DAV:   2    -0.481427315087E+03   -0.16379E-01   -0.18454E-01  1584   0.103E+00    0.413E-01
DAV:   3    -0.481427349115E+03   -0.34028E-04   -0.97329E-03  1584   0.281E-01    0.415E-01
DAV:   4    -0.481425878284E+03    0.14708E-02   -0.23821E-03  1536   0.163E-01    0.182E-01
DAV:   5    -0.481425678179E+03    0.20011E-03   -0.15501E-03  1608   0.106E-01    0.677E-02
DAV:   6    -0.481425686844E+03   -0.86651E-05   -0.25484E-04  1640   0.483E-02    0.257E-02
DAV:   7    -0.481425695593E+03   -0.87496E-05   -0.28725E-05  1136   0.163E-02
  42 F= -.48142570E+03 E0= -.48141702E+03  d E =-.215801E-01
 trial-energy change:   -0.021580  1 .order   -0.021564   -0.027578   -0.015550
 step:   3.3734(harm=  3.3734)  dis= 0.06367  next Energy=  -481.435730 (dE=-0.316E-01)
 bond charge predicted
       N       E                     dE             d eps       ncg     rms          rms(c)
DAV:   1    -0.481411375412E+03    0.14311E-01   -0.33846E+01  1440   0.106E+01    0.596E-01
DAV:   2    -0.481438783760E+03   -0.27408E-01   -0.30934E-01  1584   0.133E+00    0.525E-01
DAV:   3    -0.481438820919E+03   -0.37159E-04   -0.16084E-02  1584   0.361E-01    0.533E-01
DAV:   4    -0.481436430256E+03    0.23907E-02   -0.39567E-03  1536   0.209E-01    0.237E-01
DAV:   5    -0.481436081687E+03    0.34857E-03   -0.25028E-03  1608   0.137E-01    0.896E-02
DAV:   6    -0.481436101945E+03   -0.20259E-04   -0.44830E-04  1632   0.636E-02    0.331E-02
DAV:   7    -0.481436117824E+03   -0.15878E-04   -0.51138E-05  1352   0.214E-02    0.189E-02
DAV:   8    -0.481436138111E+03   -0.20288E-04   -0.12577E-05   968   0.115E-02    0.715E-03
DAV:   9    -0.481436155486E+03   -0.17374E-04   -0.48373E-06   952   0.636E-03    0.341E-03
DAV:  10    -0.481436168101E+03   -0.12615E-04   -0.15281E-06   952   0.343E-03    0.205E-03
DAV:  11    -0.481436182618E+03   -0.14517E-04   -0.12421E-06   944   0.256E-03    0.993E-04
DAV:  12    -0.481436193206E+03   -0.10588E-04   -0.87494E-07   952   0.171E-03    0.815E-04
DAV:  13    -0.481436201347E+03   -0.81411E-05   -0.73095E-07   952   0.146E-03
  43 F= -.48143620E+03 E0= -.48142751E+03  d E =-.320859E-01
 curvature: -14.82 expect dE=-0.322E+00 dE for cont linesearch -0.112E-04
 trial: gam= 1.15654 g(F)=  0.217E-01 g(S)=  0.198E-04 ort = 0.352E-03 (trialstep = 0.126E+01)
 search vector abs. value=  0.243E+00
 bond charge predicted
       N       E                     dE             d eps       ncg     rms          rms(c)
DAV:   1    -0.481442025302E+03   -0.58321E-02   -0.21518E+01  1424   0.839E+00    0.475E-01
DAV:   2    -0.481459010445E+03   -0.16985E-01   -0.19695E-01  1584   0.105E+00    0.331E-01
DAV:   3    -0.481459299523E+03   -0.28908E-03   -0.78844E-03  1624   0.246E-01    0.362E-01
DAV:   4    -0.481458435013E+03    0.86451E-03   -0.23776E-03  1552   0.154E-01    0.210E-01
DAV:   5    -0.481458142326E+03    0.29269E-03   -0.11600E-03  1552   0.959E-02    0.647E-02
DAV:   6    -0.481458176072E+03   -0.33746E-04   -0.27712E-04  1616   0.463E-02    0.261E-02
DAV:   7    -0.481458178520E+03   -0.24484E-05   -0.35294E-05  1104   0.178E-02
  44 F= -.48145818E+03 E0= -.48144946E+03  d E =-.219772E-01
 trial-energy change:   -0.021977  1 .order   -0.022043   -0.027773   -0.016313
 step:   3.2180(harm=  3.0439)  dis= 0.07074  next Energy=  -481.470668 (dE=-0.345E-01)
 bond charge predicted
       N       E                     dE             d eps       ncg     rms          rms(c)
DAV:   1    -0.481429848583E+03    0.28327E-01   -0.52670E+01  1424   0.131E+01    0.752E-01
DAV:   2    -0.481472263727E+03   -0.42415E-01   -0.48828E-01  1576   0.165E+00    0.539E-01
DAV:   3    -0.481473033664E+03   -0.76994E-03   -0.20650E-02  1624   0.401E-01    0.598E-01
DAV:   4    -0.481470529476E+03    0.25042E-02   -0.59035E-03  1552   0.244E-01    0.320E-01
DAV:   5    -0.481469844853E+03    0.68462E-03   -0.28453E-03  1552   0.149E-01    0.108E-01
DAV:   6    -0.481469928737E+03   -0.83884E-04   -0.72780E-04  1608   0.738E-02    0.397E-02
DAV:   7    -0.481469939458E+03   -0.10721E-04   -0.91185E-05  1496   0.273E-02    0.218E-02
DAV:   8    -0.481469954464E+03   -0.15006E-04   -0.15872E-05   968   0.118E-02    0.940E-03
DAV:   9    -0.481469969221E+03   -0.14756E-04   -0.62556E-06   944   0.671E-03    0.366E-03
DAV:  10    -0.481469978031E+03   -0.88099E-05   -0.16866E-06   952   0.347E-03
  45 F= -.48146998E+03 E0= -.48146134E+03  d E =-.337767E-01
 curvature: -16.56 expect dE=-0.346E+00 dE for cont linesearch -0.105E-03
 trial: gam= 1.01222 g(F)=  0.208E-01 g(S)=  0.112E-03 ort =-0.124E-02 (trialstep = 0.150E+01)
 search vector abs. value=  0.267E+00
 bond charge predicted
       N       E                     dE             d eps       ncg     rms          rms(c)
DAV:   1    -0.481465726473E+03    0.42427E-02   -0.33589E+01  1440   0.105E+01    0.602E-01
DAV:   2    -0.481492719874E+03   -0.26993E-01   -0.31582E-01  1568   0.132E+00    0.407E-01
DAV:   3    -0.481493030006E+03   -0.31013E-03   -0.12151E-02  1624   0.303E-01    0.440E-01
DAV:   4    -0.481491788072E+03    0.12419E-02   -0.37301E-03  1560   0.191E-01    0.254E-01
DAV:   5    -0.481491367675E+03    0.42040E-03   -0.19379E-03  1552   0.121E-01    0.688E-02
DAV:   6    -0.481491419639E+03   -0.51964E-04   -0.36555E-04  1624   0.543E-02    0.322E-02
DAV:   7    -0.481491426254E+03   -0.66158E-05   -0.51644E-05  1376   0.207E-02
  46 F= -.48149143E+03 E0= -.48148287E+03  d E =-.214482E-01
 trial-energy change:   -0.021448  1 .order   -0.021464   -0.029445   -0.013484
 step:   2.7636(harm=  2.7636)  dis= 0.06448  next Energy=  -481.497138 (dE=-0.272E-01)
 bond charge predicted
       N       E                     dE             d eps       ncg     rms          rms(c)
DAV:   1    -0.481478837072E+03    0.12583E-01   -0.23940E+01  1440   0.888E+00    0.508E-01
DAV:   2    -0.481498102068E+03   -0.19265E-01   -0.22506E-01  1576   0.111E+00    0.345E-01
DAV:   3    -0.481498372244E+03   -0.27018E-03   -0.87161E-03  1632   0.257E-01    0.374E-01
DAV:   4    -0.481497451334E+03    0.92091E-03   -0.26801E-03  1560   0.161E-01    0.211E-01
DAV:   5    -0.481497194790E+03    0.25654E-03   -0.13975E-03  1536   0.102E-01    0.571E-02
DAV:   6    -0.481497236028E+03   -0.41238E-04   -0.25375E-04  1632   0.455E-02    0.273E-02
DAV:   7    -0.481497244819E+03   -0.87912E-05   -0.32835E-05  1240   0.168E-02
  47 F= -.48149724E+03 E0= -.48148880E+03  d E =-.272668E-01
 curvature: -18.79 expect dE=-0.337E+00 dE for cont linesearch -0.116E-05
 trial: gam= 0.70719 g(F)=  0.178E-01 g(S)=  0.168E-03 ort =-0.129E-03 (trialstep = 0.175E+01)
 search vector abs. value=  0.151E+00
 bond charge predicted
       N       E                     dE             d eps       ncg     rms          rms(c)
DAV:   1    -0.481497774359E+03   -0.53833E-03   -0.25238E+01  1440   0.950E+00    0.558E-01
DAV:   2    -0.481519136314E+03   -0.21362E-01   -0.24975E-01  1584   0.120E+00    0.373E-01
DAV:   3    -0.481518653889E+03    0.48243E-03   -0.91950E-03  1648   0.262E-01    0.278E-01
DAV:   4    -0.481519149777E+03   -0.49589E-03   -0.32979E-03  1560   0.180E-01    0.354E-01
DAV:   5    -0.481518110424E+03    0.10394E-02   -0.20037E-03  1528   0.141E-01    0.830E-02
DAV:   6    -0.481518144490E+03   -0.34066E-04   -0.44539E-04  1592   0.579E-02    0.348E-02
DAV:   7    -0.481518143163E+03    0.13275E-05   -0.62021E-05  1408   0.232E-02
  48 F= -.48151814E+03 E0= -.48150977E+03  d E =-.208983E-01
 trial-energy change:   -0.020898  1 .order   -0.020779   -0.031276   -0.010282
 step:   2.5682(harm=  2.6089)  dis= 0.04552  next Energy=  -481.520554 (dE=-0.233E-01)
 bond charge predicted
       N       E                     dE             d eps       ncg     rms          rms(c)
DAV:   1    -0.481516352565E+03    0.17919E-02   -0.54815E+00  1440   0.443E+00    0.259E-01
DAV:   2    -0.481520988703E+03   -0.46361E-02   -0.54138E-02  1592   0.561E-01    0.171E-01
DAV:   3    -0.481520890385E+03    0.98318E-04   -0.19614E-03  1648   0.120E-01    0.127E-01
DAV:   4    -0.481521018914E+03   -0.12853E-03   -0.71377E-04  1568   0.833E-02    0.164E-01
DAV:   5    -0.481520790393E+03    0.22852E-03   -0.43209E-04  1536   0.654E-02    0.353E-02
DAV:   6    -0.481520805566E+03   -0.15172E-04   -0.90435E-05  1400   0.260E-02    0.157E-02
DAV:   7    -0.481520808407E+03   -0.28416E-05   -0.12088E-05   976   0.109E-02
  49 F= -.48152081E+03 E0= -.48151242E+03  d E =-.235636E-01
 curvature: -11.03 expect dE=-0.142E+00 dE for cont linesearch -0.161E-04
 trial: gam= 0.71256 g(F)=  0.125E-01 g(S)=  0.370E-03 ort = 0.470E-03 (trialstep = 0.191E+01)
 search vector abs. value=  0.904E-01
 bond charge predicted
       N       E                     dE             d eps       ncg     rms          rms(c)
DAV:   1    -0.481523413353E+03   -0.26078E-02   -0.17399E+01  1448   0.827E+00    0.478E-01
DAV:   2    -0.481540187048E+03   -0.16774E-01   -0.17725E-01  1592   0.105E+00    0.565E-01
DAV:   3    -0.481538896353E+03    0.12907E-02   -0.12645E-02  1576   0.322E-01    0.359E-01
DAV:   4    -0.481537626520E+03    0.12698E-02   -0.22861E-03  1552   0.157E-01    0.177E-01
DAV:   5    -0.481537571327E+03    0.55193E-04   -0.16012E-03  1616   0.103E-01    0.435E-02
DAV:   6    -0.481537604118E+03   -0.32790E-04   -0.19066E-04  1672   0.389E-02    0.277E-02
DAV:   7    -0.481537607097E+03   -0.29798E-05   -0.22519E-05   992   0.145E-02
  50 F= -.48153761E+03 E0= -.48152936E+03  d E =-.167987E-01
 trial-energy change:   -0.016799  1 .order   -0.016680   -0.025250   -0.008110
 step:   2.7694(harm=  2.8206)  dis= 0.03797  next Energy=  -481.539428 (dE=-0.186E-01)
 bond charge predicted
       N       E                     dE             d eps       ncg     rms          rms(c)
DAV:   1    -0.481536772277E+03    0.83184E-03   -0.34632E+00  1448   0.369E+00    0.213E-01
DAV:   2    -0.481540134528E+03   -0.33623E-02   -0.35460E-02  1600   0.471E-01    0.249E-01
DAV:   3    -0.481539852289E+03    0.28224E-03   -0.25194E-03  1568   0.143E-01    0.159E-01
DAV:   4    -0.481539619676E+03    0.23261E-03   -0.44980E-04  1552   0.699E-02    0.790E-02
DAV:   5    -0.481539615245E+03    0.44303E-05   -0.31490E-04  1616   0.463E-02    0.204E-02
DAV:   6    -0.481539623532E+03   -0.82862E-05   -0.36938E-05  1208   0.183E-02
  51 F= -.48153962E+03 E0= -.48153140E+03  d E =-.188151E-01
 curvature:  -9.64 expect dE=-0.859E-01 dE for cont linesearch -0.125E-04
 trial: gam= 0.69316 g(F)=  0.884E-02 g(S)=  0.699E-04 ort = 0.342E-03 (trialstep = 0.209E+01)
 search vector abs. value=  0.528E-01
 bond charge predicted
       N       E                     dE             d eps       ncg     rms          rms(c)
DAV:   1    -0.481542949555E+03   -0.33343E-02   -0.11657E+01  1456   0.714E+00    0.415E-01
DAV:   2    -0.481554086469E+03   -0.11137E-01   -0.12355E-01  1584   0.894E-01    0.390E-01
DAV:   3    -0.481553937262E+03    0.14921E-03   -0.77440E-03  1576   0.253E-01    0.326E-01
DAV:   4    -0.481552921965E+03    0.10153E-02   -0.18693E-03  1552   0.143E-01    0.152E-01
DAV:   5    -0.481552899023E+03    0.22942E-04   -0.10460E-03  1584   0.885E-02    0.414E-02
DAV:   6    -0.481552926071E+03   -0.27047E-04   -0.15207E-04  1704   0.345E-02    0.247E-02
DAV:   7    -0.481552926394E+03   -0.32327E-06   -0.17663E-05   992   0.133E-02
  52 F= -.48155293E+03 E0= -.48154496E+03  d E =-.133029E-01
 trial-energy change:   -0.013303  1 .order   -0.013219   -0.019079   -0.007359
 step:   3.3119(harm=  3.3952)  dis= 0.03434  next Energy=  -481.555107 (dE=-0.155E-01)
 bond charge predicted
       N       E                     dE             d eps       ncg     rms          rms(c)
DAV:   1    -0.481551784385E+03    0.11417E-02   -0.40288E+00  1456   0.420E+00    0.243E-01
DAV:   2    -0.481555618586E+03   -0.38342E-02   -0.42814E-02  1600   0.526E-01    0.223E-01
DAV:   3    -0.481555575138E+03    0.43448E-04   -0.26229E-03  1576   0.146E-01    0.192E-01
DAV:   4    -0.481555241589E+03    0.33355E-03   -0.64508E-04  1544   0.842E-02    0.906E-02
DAV:   5    -0.481555232199E+03    0.93903E-05   -0.36020E-04  1576   0.530E-02    0.254E-02
DAV:   6    -0.481555241234E+03   -0.90350E-05   -0.54331E-05  1400   0.213E-02
  53 F= -.48155524E+03 E0= -.48154735E+03  d E =-.156177E-01
 curvature:  -9.76 expect dE=-0.822E-01 dE for cont linesearch -0.306E-05
 trial: gam= 0.98008 g(F)=  0.836E-02 g(S)=  0.569E-04 ort = 0.129E-03 (trialstep = 0.207E+01)
 search vector abs. value=  0.594E-01
 bond charge predicted
       N       E                     dE             d eps       ncg     rms          rms(c)
DAV:   1    -0.481556512691E+03   -0.12805E-02   -0.12638E+01  1472   0.766E+00    0.426E-01
DAV:   2    -0.481567643733E+03   -0.11131E-01   -0.13271E-01  1584   0.933E-01    0.296E-01
DAV:   3    -0.481567674714E+03   -0.30982E-04   -0.56954E-03  1648   0.220E-01    0.269E-01
DAV:   4    -0.481567373227E+03    0.30149E-03   -0.19557E-03  1552   0.140E-01    0.204E-01
DAV:   5    -0.481567165567E+03    0.20766E-03   -0.88743E-04  1568   0.979E-02    0.551E-02
DAV:   6    -0.481567198767E+03   -0.33200E-04   -0.21446E-04  1656   0.421E-02    0.237E-02
DAV:   7    -0.481567200495E+03   -0.17282E-05   -0.29189E-05  1232   0.161E-02
  54 F= -.48156720E+03 E0= -.48155925E+03  d E =-.119593E-01
 trial-energy change:   -0.011959  1 .order   -0.011934   -0.017703   -0.006166
 step:   3.1800(harm=  3.1800)  dis= 0.03445  next Energy=  -481.568823 (dE=-0.136E-01)
 bond charge predicted
       N       E                     dE             d eps       ncg     rms          rms(c)
DAV:   1    -0.481565871643E+03    0.13271E-02   -0.36073E+00  1464   0.409E+00    0.226E-01
DAV:   2    -0.481569030129E+03   -0.31585E-02   -0.37951E-02  1600   0.498E-01    0.155E-01
DAV:   3    -0.481569028151E+03    0.19781E-05   -0.15481E-03  1664   0.114E-01    0.136E-01
DAV:   4    -0.481568997917E+03    0.30234E-04   -0.54915E-04  1568   0.739E-02    0.116E-01
DAV:   5    -0.481568920000E+03    0.77917E-04   -0.26094E-04  1544   0.534E-02    0.288E-02
DAV:   6    -0.481568932637E+03   -0.12637E-04   -0.61387E-05  1416   0.224E-02    0.123E-02
DAV:   7    -0.481568935499E+03   -0.28623E-05   -0.86797E-06   976   0.911E-03
  55 F= -.48156894E+03 E0= -.48156090E+03  d E =-.136943E-01
 curvature: -11.06 expect dE=-0.101E+00 dE for cont linesearch -0.121E-05
 trial: gam= 1.07510 g(F)=  0.904E-02 g(S)=  0.770E-04 ort = 0.807E-04 (trialstep = 0.175E+01)
 search vector abs. value=  0.780E-01
 bond charge predicted
       N       E                     dE             d eps       ncg     rms          rms(c)
DAV:   1    -0.481569570824E+03   -0.63819E-03   -0.11507E+01  1464   0.747E+00    0.415E-01
DAV:   2    -0.481579752324E+03   -0.10181E-01   -0.12373E-01  1584   0.908E-01    0.278E-01
DAV:   3    -0.481579676471E+03    0.75853E-04   -0.47388E-03  1648   0.199E-01    0.234E-01
DAV:   4    -0.481579731767E+03   -0.55297E-04   -0.18341E-03  1568   0.131E-01    0.221E-01
DAV:   5    -0.481579369723E+03    0.36204E-03   -0.84306E-04  1568   0.953E-02    0.511E-02
DAV:   6    -0.481579413285E+03   -0.43562E-04   -0.19600E-04  1656   0.387E-02    0.223E-02
DAV:   7    -0.481579415369E+03   -0.20847E-05   -0.23433E-05  1056   0.151E-02
  56 F= -.48157942E+03 E0= -.48157175E+03  d E =-.104799E-01
 trial-energy change:   -0.010480  1 .order   -0.010485   -0.016094   -0.004876
 step:   2.5081(harm=  2.5081)  dis= 0.03028  next Energy=  -481.580481 (dE=-0.115E-01)
 bond charge predicted
       N       E                     dE             d eps       ncg     rms          rms(c)
DAV:   1    -0.481578635301E+03    0.77798E-03   -0.21743E+00  1472   0.325E+00    0.181E-01
DAV:   2    -0.481580569153E+03   -0.19339E-02   -0.23457E-02  1600   0.395E-01    0.121E-01
DAV:   3    -0.481580555117E+03    0.14035E-04   -0.88637E-04  1648   0.862E-02    0.101E-01
DAV:   4    -0.481580567764E+03   -0.12647E-04   -0.34692E-04  1544   0.569E-02    0.965E-02
DAV:   5    -0.481580507184E+03    0.60580E-04   -0.16362E-04  1480   0.419E-02    0.226E-02
DAV:   6    -0.481580517276E+03   -0.10092E-04   -0.35007E-05  1248   0.173E-02    0.990E-03
DAV:   7    -0.481580519071E+03   -0.17945E-05   -0.52610E-06   920   0.728E-03
  57 F= -.48158052E+03 E0= -.48157304E+03  d E =-.115836E-01
 curvature: -10.62 expect dE=-0.560E-01 dE for cont linesearch -0.110E-05
 trial: gam= 0.54778 g(F)=  0.527E-02 g(S)=  0.113E-04 ort = 0.900E-04 (trialstep = 0.190E+01)
 search vector abs. value=  0.288E-01
 bond charge predicted
       N       E                     dE             d eps       ncg     rms          rms(c)
DAV:   1    -0.481582955504E+03   -0.24382E-02   -0.48420E+00  1448   0.503E+00    0.299E-01
DAV:   2    -0.481587704393E+03   -0.47489E-02   -0.56626E-02  1568   0.626E-01    0.242E-01
DAV:   3    -0.481587750635E+03   -0.46242E-04   -0.35226E-03  1608   0.180E-01    0.238E-01
DAV:   4    -0.481587270011E+03    0.48062E-03   -0.99256E-04  1544   0.105E-01    0.113E-01
DAV:   5    -0.481587255270E+03    0.14742E-04   -0.42599E-04  1624   0.634E-02    0.349E-02
DAV:   6    -0.481587267998E+03   -0.12728E-04   -0.84436E-05  1552   0.278E-02    0.157E-02
DAV:   7    -0.481587270028E+03   -0.20305E-05   -0.99226E-06   944   0.973E-03
  58 F= -.48158727E+03 E0= -.48157995E+03  d E =-.675096E-02
 trial-energy change:   -0.006751  1 .order   -0.006730   -0.010121   -0.003339
 step:   2.8358(harm=  2.8358)  dis= 0.01923  next Energy=  -481.588072 (dE=-0.755E-02)
 bond charge predicted
       N       E                     dE             d eps       ncg     rms          rms(c)
DAV:   1    -0.481587089022E+03    0.17898E-03   -0.11746E+00  1456   0.248E+00    0.147E-01
DAV:   2    -0.481588240249E+03   -0.11512E-02   -0.13785E-02  1600   0.309E-01    0.119E-01
DAV:   3    -0.481588254566E+03   -0.14317E-04   -0.84829E-04  1608   0.882E-02    0.117E-01
DAV:   4    -0.481588136938E+03    0.11763E-03   -0.24128E-04  1552   0.518E-02    0.554E-02
DAV:   5    -0.481588135741E+03    0.11972E-05   -0.10542E-04  1616   0.313E-02    0.166E-02
DAV:   6    -0.481588140256E+03   -0.45145E-05   -0.17965E-05  1032   0.136E-02
  59 F= -.48158814E+03 E0= -.48158093E+03  d E =-.762118E-02
 curvature:  -7.66 expect dE=-0.384E-01 dE for cont linesearch -0.132E-05
 trial: gam= 0.95828 g(F)=  0.498E-02 g(S)=  0.373E-04 ort = 0.704E-04 (trialstep = 0.190E+01)
 search vector abs. value=  0.316E-01
 bond charge predicted
       N       E                     dE             d eps       ncg     rms          rms(c)
DAV:   1    -0.481590664020E+03   -0.25283E-02   -0.51197E+00  1440   0.522E+00    0.306E-01
DAV:   2    -0.481595591085E+03   -0.49271E-02   -0.59822E-02  1552   0.633E-01    0.211E-01
DAV:   3    -0.481595642735E+03   -0.51650E-04   -0.26750E-03  1648   0.153E-01    0.195E-01
DAV:   4    -0.481595513026E+03    0.12971E-03   -0.96670E-04  1592   0.975E-02    0.146E-01
DAV:   5    -0.481595440100E+03    0.72927E-04   -0.36766E-04  1560   0.643E-02    0.387E-02
DAV:   6    -0.481595467445E+03   -0.27345E-04   -0.90260E-05  1568   0.278E-02    0.152E-02
DAV:   7    -0.481595468859E+03   -0.14144E-05   -0.11708E-05   976   0.109E-02
  60 F= -.48159547E+03 E0= -.48158815E+03  d E =-.732860E-02
 trial-energy change:   -0.007329  1 .order   -0.007257   -0.009670   -0.004844
 step:   3.5401(harm=  3.8117)  dis= 0.02324  next Energy=  -481.597601 (dE=-0.946E-02)
 bond charge predicted
       N       E                     dE             d eps       ncg     rms          rms(c)
DAV:   1    -0.481594344686E+03    0.11228E-02   -0.37974E+00  1440   0.450E+00    0.263E-01
DAV:   2    -0.481597996021E+03   -0.36513E-02   -0.44480E-02  1560   0.546E-01    0.182E-01
DAV:   3    -0.481598032755E+03   -0.36735E-04   -0.19853E-03  1648   0.132E-01    0.169E-01
DAV:   4    -0.481597935169E+03    0.97586E-04   -0.71841E-04  1592   0.840E-02    0.125E-01
DAV:   5    -0.481597885246E+03    0.49923E-04   -0.27512E-04  1552   0.556E-02    0.333E-02
DAV:   6    -0.481597903306E+03   -0.18061E-04   -0.66091E-05  1424   0.242E-02    0.132E-02
DAV:   7    -0.481597904689E+03   -0.13828E-05   -0.91249E-06   920   0.975E-03
  61 F= -.48159790E+03 E0= -.48159052E+03  d E =-.976443E-02
 curvature: -11.60 expect dE=-0.513E-01 dE for cont linesearch -0.446E-04
 trial: gam= 0.82634 g(F)=  0.442E-02 g(S)=  0.476E-05 ort = 0.348E-03 (trialstep = 0.223E+01)
 search vector abs. value=  0.266E-01
 bond charge predicted
       N       E                     dE             d eps       ncg     rms          rms(c)
DAV:   1    -0.481599476486E+03   -0.15732E-02   -0.57339E+00  1440   0.562E+00    0.349E-01
DAV:   2    -0.481605226712E+03   -0.57502E-02   -0.70651E-02  1616   0.692E-01    0.249E-01
DAV:   3    -0.481605381148E+03   -0.15444E-03   -0.37910E-03  1624   0.185E-01    0.258E-01
DAV:   4    -0.481604920150E+03    0.46100E-03   -0.12486E-03  1528   0.114E-01    0.143E-01
DAV:   5    -0.481604913097E+03    0.70530E-05   -0.40835E-04  1600   0.689E-02    0.432E-02
DAV:   6    -0.481604944048E+03   -0.30951E-04   -0.10875E-04  1648   0.307E-02    0.164E-02
DAV:   7    -0.481604945910E+03   -0.18621E-05   -0.12351E-05   976   0.112E-02
  62 F= -.48160495E+03 E0= -.48159758E+03  d E =-.704122E-02
 trial-energy change:   -0.007041  1 .order   -0.006968   -0.010514   -0.003421
 step:   3.2163(harm=  3.3049)  dis= 0.01739  next Energy=  -481.605709 (dE=-0.780E-02)
 bond charge predicted
       N       E                     dE             d eps       ncg     rms          rms(c)
DAV:   1    -0.481604702444E+03    0.24160E-03   -0.11232E+00  1440   0.249E+00    0.154E-01
DAV:   2    -0.481605829898E+03   -0.11275E-02   -0.13876E-02  1624   0.306E-01    0.110E-01
DAV:   3    -0.481605867396E+03   -0.37499E-04   -0.73685E-04  1608   0.816E-02    0.113E-01
DAV:   4    -0.481605778677E+03    0.88720E-04   -0.24504E-04  1544   0.507E-02    0.628E-02
DAV:   5    -0.481605778496E+03    0.18034E-06   -0.80855E-05  1512   0.304E-02
  63 F= -.48160578E+03 E0= -.48159837E+03  d E =-.787381E-02
 curvature:  -9.24 expect dE=-0.383E-01 dE for cont linesearch -0.246E-05
 trial: gam= 1.00460 g(F)=  0.410E-02 g(S)=  0.335E-04 ort = 0.840E-04 (trialstep = 0.207E+01)
 search vector abs. value=  0.311E-01
 bond charge predicted
       N       E                     dE             d eps       ncg     rms          rms(c)
DAV:   1    -0.481606327973E+03   -0.54930E-03   -0.58296E+00  1424   0.570E+00    0.352E-01
DAV:   2    -0.481612065157E+03   -0.57372E-02   -0.72605E-02  1608   0.692E-01    0.240E-01
DAV:   3    -0.481612147990E+03   -0.82834E-04   -0.34194E-03  1616   0.177E-01    0.231E-01
DAV:   4    -0.481611905973E+03    0.24202E-03   -0.13129E-03  1560   0.115E-01    0.155E-01
DAV:   5    -0.481611841892E+03    0.64081E-04   -0.44344E-04  1560   0.708E-02    0.400E-02
DAV:   6    -0.481611871039E+03   -0.29147E-04   -0.98228E-05  1616   0.287E-02    0.168E-02
DAV:   7    -0.481611873190E+03   -0.21509E-05   -0.12473E-05   952   0.111E-02
  64 F= -.48161187E+03 E0= -.48160476E+03  d E =-.609469E-02
 trial-energy change:   -0.006095  1 .order   -0.005992   -0.008748   -0.003236
 step:   3.1131(harm=  3.2880)  dis= 0.01681  next Energy=  -481.612699 (dE=-0.692E-02)
 bond charge predicted
       N       E                     dE             d eps       ncg     rms          rms(c)
DAV:   1    -0.481611416711E+03    0.45433E-03   -0.14730E+00  1424   0.287E+00    0.176E-01
DAV:   2    -0.481612878019E+03   -0.14613E-02   -0.18440E-02  1600   0.349E-01    0.122E-01
DAV:   3    -0.481612907466E+03   -0.29447E-04   -0.88426E-04  1616   0.902E-02    0.118E-01
DAV:   4    -0.481612832985E+03    0.74481E-04   -0.33002E-04  1560   0.580E-02    0.759E-02
DAV:   5    -0.481612818199E+03    0.14786E-04   -0.11435E-04  1536   0.355E-02    0.197E-02
DAV:   6    -0.481612826233E+03   -0.80337E-05   -0.21751E-05  1024   0.144E-02
  65 F= -.48161283E+03 E0= -.48160588E+03  d E =-.704774E-02
 curvature: -11.86 expect dE=-0.463E-01 dE for cont linesearch -0.153E-04
 trial: gam= 0.89488 g(F)=  0.386E-02 g(S)=  0.436E-04 ort = 0.200E-03 (trialstep = 0.228E+01)
 search vector abs. value=  0.292E-01
 bond charge predicted
       N       E                     dE             d eps       ncg     rms          rms(c)
DAV:   1    -0.481612793223E+03    0.24976E-04   -0.66275E+00  1424   0.610E+00    0.374E-01
DAV:   2    -0.481619682707E+03   -0.68895E-02   -0.84501E-02  1576   0.751E-01    0.283E-01
DAV:   3    -0.481619864473E+03   -0.18177E-03   -0.49332E-03  1616   0.212E-01    0.272E-01
DAV:   4    -0.481619315192E+03    0.54928E-03   -0.15537E-03  1560   0.125E-01    0.154E-01
DAV:   5    -0.481619323756E+03   -0.85644E-05   -0.47271E-04  1616   0.718E-02    0.503E-02
DAV:   6    -0.481619363764E+03   -0.40007E-04   -0.12127E-04  1616   0.338E-02    0.195E-02
DAV:   7    -0.481619364735E+03   -0.97139E-06   -0.18184E-05   976   0.136E-02
  66 F= -.48161936E+03 E0= -.48161277E+03  d E =-.653850E-02
 trial-energy change:   -0.006539  1 .order   -0.006467   -0.009299   -0.003634
 step:   3.5871(harm=  3.7430)  dis= 0.01757  next Energy=  -481.620420 (dE=-0.759E-02)
 bond charge predicted
       N       E                     dE             d eps       ncg     rms          rms(c)
DAV:   1    -0.481618372053E+03    0.99171E-03   -0.21780E+00  1424   0.350E+00    0.214E-01
DAV:   2    -0.481620646449E+03   -0.22744E-02   -0.27866E-02  1576   0.431E-01    0.161E-01
DAV:   3    -0.481620705293E+03   -0.58844E-04   -0.15953E-03  1624   0.120E-01    0.154E-01
DAV:   4    -0.481620536099E+03    0.16919E-03   -0.50581E-04  1552   0.711E-02    0.893E-02
DAV:   5    -0.481620531096E+03    0.50032E-05   -0.15778E-04  1576   0.417E-02    0.286E-02
[...]
       N       E                     dE             d eps       ncg     rms          rms(c)
DAV:   1    -0.481668229716E+03    0.15308E-02   -0.51200E+00  1440   0.492E+00    0.284E-01
DAV:   2    -0.481672993508E+03   -0.47638E-02   -0.57455E-02  1528   0.610E-01    0.185E-01
DAV:   3    -0.481672986581E+03    0.69274E-05   -0.21253E-03  1688   0.132E-01    0.145E-01
DAV:   4    -0.481673077521E+03   -0.90940E-04   -0.79039E-04  1592   0.864E-02    0.151E-01
DAV:   5    -0.481672932221E+03    0.14530E-03   -0.36641E-04  1576   0.631E-02    0.394E-02
DAV:   6    -0.481672953952E+03   -0.21731E-04   -0.81161E-05  1472   0.268E-02    0.147E-02
DAV:   7    -0.481672954944E+03   -0.99133E-06   -0.11669E-05   968   0.107E-02
  86 F= -.48167295E+03 E0= -.48166554E+03  d E =-.318841E-02
 trial-energy change:   -0.003188  1 .order   -0.003145   -0.004528   -0.001763
 step:   3.1518(harm=  3.3160)  dis= 0.01662  next Energy=  -481.673453 (dE=-0.369E-02)
 bond charge predicted
       N       E                     dE             d eps       ncg     rms          rms(c)
DAV:   1    -0.481672029060E+03    0.92489E-03   -0.15860E+00  1424   0.274E+00    0.158E-01
DAV:   2    -0.481673520853E+03   -0.14918E-02   -0.17953E-02  1536   0.340E-01    0.103E-01
DAV:   3    -0.481673515029E+03    0.58239E-05   -0.65817E-04  1704   0.730E-02    0.785E-02
DAV:   4    -0.481673552455E+03   -0.37426E-04   -0.24335E-04  1600   0.479E-02    0.861E-02
DAV:   5    -0.481673503982E+03    0.48474E-04   -0.12020E-04  1432   0.359E-02    0.227E-02
DAV:   6    -0.481673511199E+03   -0.72169E-05   -0.24717E-05  1024   0.154E-02
  87 F= -.48167351E+03 E0= -.48166610E+03  d E =-.374467E-02
 curvature: -18.98 expect dE=-0.400E-01 dE for cont linesearch -0.588E-05
 trial: gam= 0.89808 g(F)=  0.210E-02 g(S)=  0.830E-05 ort = 0.898E-04 (trialstep = 0.225E+01)
 search vector abs. value=  0.233E-01
 bond charge predicted
       N       E                     dE             d eps       ncg     rms          rms(c)
DAV:   1    -0.481671468582E+03    0.20354E-02   -0.57069E+00  1424   0.518E+00    0.314E-01
DAV:   2    -0.481676700671E+03   -0.52321E-02   -0.64984E-02  1576   0.652E-01    0.211E-01
DAV:   3    -0.481676811186E+03   -0.11051E-03   -0.30824E-03  1656   0.165E-01    0.200E-01
DAV:   4    -0.481676625845E+03    0.18534E-03   -0.10527E-03  1568   0.101E-01    0.142E-01
DAV:   5    -0.481676549895E+03    0.75950E-04   -0.31516E-04  1552   0.616E-02    0.470E-02
DAV:   6    -0.481676575687E+03   -0.25792E-04   -0.10409E-04  1584   0.297E-02    0.161E-02
DAV:   7    -0.481676577540E+03   -0.18535E-05   -0.14114E-05   968   0.120E-02
  88 F= -.48167658E+03 E0= -.48166885E+03  d E =-.306634E-02
 trial-energy change:   -0.003066  1 .order   -0.003061   -0.004925   -0.001196
 step:   2.9721(harm=  2.9721)  dis= 0.01496  next Energy=  -481.676764 (dE=-0.325E-02)
 bond charge predicted
       N       E                     dE             d eps       ncg     rms          rms(c)
DAV:   1    -0.481676233233E+03    0.34245E-03   -0.58721E-01  1408   0.166E+00    0.100E-01
DAV:   2    -0.481676778719E+03   -0.54549E-03   -0.67550E-03  1600   0.210E-01    0.674E-02
DAV:   3    -0.481676790976E+03   -0.12257E-04   -0.31265E-04  1672   0.525E-02    0.623E-02
DAV:   4    -0.481676774735E+03    0.16241E-04   -0.10556E-04  1256   0.321E-02    0.463E-02
DAV:   5    -0.481676768586E+03    0.61487E-05   -0.34186E-05  1152   0.209E-02
  89 F= -.48167677E+03 E0= -.48166890E+03  d E =-.325739E-02
 curvature: -15.79 expect dE=-0.271E-01 dE for cont linesearch -0.200E-06
 trial: gam= 0.86885 g(F)=  0.163E-02 g(S)=  0.891E-04 ort = 0.172E-04 (trialstep = 0.239E+01)
 search vector abs. value=  0.193E-01
 bond charge predicted
       N       E                     dE             d eps       ncg     rms          rms(c)
DAV:   1    -0.481674741452E+03    0.20333E-02   -0.53169E+00  1408   0.496E+00    0.346E-01
DAV:   2    -0.481680234950E+03   -0.54935E-02   -0.63030E-02  1576   0.658E-01    0.361E-01
DAV:   3    -0.481679505101E+03    0.72985E-03   -0.56845E-03  1528   0.229E-01    0.238E-01
DAV:   4    -0.481679023351E+03    0.48175E-03   -0.10815E-03  1528   0.112E-01    0.115E-01
DAV:   5    -0.481679038288E+03   -0.14937E-04   -0.42431E-04  1616   0.634E-02    0.422E-02
DAV:   6    -0.481679048755E+03   -0.10467E-04   -0.82889E-05  1448   0.307E-02    0.186E-02
DAV:   7    -0.481679052621E+03   -0.38658E-05   -0.13419E-05   976   0.113E-02
  90 F= -.48167905E+03 E0= -.48167102E+03  d E =-.228403E-02
 trial-energy change:   -0.002284  1 .order   -0.002299   -0.004153   -0.000445
 step:   2.6818(harm=  2.6818)  dis= 0.01266  next Energy=  -481.679094 (dE=-0.233E-02)
 bond charge predicted
       N       E                     dE             d eps       ncg     rms          rms(c)
DAV:   1    -0.481679016718E+03    0.32038E-04   -0.76584E-02  1408   0.596E-01    0.412E-02
DAV:   2    -0.481679097007E+03   -0.80289E-04   -0.92077E-04  1608   0.795E-02    0.436E-02
DAV:   3    -0.481679089378E+03    0.76285E-05   -0.80079E-05  1304   0.274E-02
  91 F= -.48167909E+03 E0= -.48167085E+03  d E =-.232079E-02
 curvature: -14.92 expect dE=-0.211E-01 dE for cont linesearch -0.113E-05
 trial: gam= 0.74700 g(F)=  0.138E-02 g(S)=  0.331E-04 ort = 0.383E-04 (trialstep = 0.245E+01)
 search vector abs. value=  0.122E-01
 bond charge predicted
       N       E                     dE             d eps       ncg     rms          rms(c)
DAV:   1    -0.481678717734E+03    0.37927E-03   -0.34969E+00  1408   0.402E+00    0.302E-01
DAV:   2    -0.481681891127E+03   -0.31734E-02   -0.41256E-02  1520   0.533E-01    0.283E-01
DAV:   3    -0.481681602124E+03    0.28900E-03   -0.37331E-03  1576   0.189E-01    0.219E-01
DAV:   4    -0.481681158795E+03    0.44333E-03   -0.94199E-04  1512   0.102E-01    0.948E-02
DAV:   5    -0.481681160192E+03   -0.13968E-05   -0.30469E-04  1584   0.522E-02    0.321E-02
DAV:   6    -0.481681167485E+03   -0.72932E-05   -0.51716E-05  1344   0.238E-02
  92 F= -.48168117E+03 E0= -.48167321E+03  d E =-.207811E-02
 trial-energy change:   -0.002078  1 .order   -0.002117   -0.003533   -0.000702
 step:   3.0599(harm=  3.0599)  dis= 0.01194  next Energy=  -481.681294 (dE=-0.220E-02)
 bond charge predicted
       N       E                     dE             d eps       ncg     rms          rms(c)
DAV:   1    -0.481681111694E+03    0.48498E-04   -0.21508E-01  1408   0.998E-01    0.755E-02
DAV:   2    -0.481681319992E+03   -0.20830E-03   -0.25751E-03  1560   0.133E-01    0.742E-02
DAV:   3    -0.481681299798E+03    0.20194E-04   -0.23972E-04  1552   0.480E-02    0.536E-02
DAV:   4    -0.481681274034E+03    0.25764E-04   -0.55503E-05  1176   0.250E-02    0.230E-02
DAV:   5    -0.481681278356E+03   -0.43220E-05   -0.19212E-05   968   0.136E-02
  93 F= -.48168128E+03 E0= -.48167325E+03  d E =-.218898E-02
 curvature: -13.00 expect dE=-0.168E-01 dE for cont linesearch -0.104E-05
 trial: gam= 0.88910 g(F)=  0.123E-02 g(S)=  0.615E-04 ort = 0.313E-04 (trialstep = 0.257E+01)
 search vector abs. value=  0.110E-01
 bond charge predicted
       N       E                     dE             d eps       ncg     rms          rms(c)
DAV:   1    -0.481680474021E+03    0.80001E-03   -0.35406E+00  1408   0.406E+00    0.254E-01
DAV:   2    -0.481683518360E+03   -0.30443E-02   -0.39714E-02  1544   0.512E-01    0.174E-01
DAV:   3    -0.481683615813E+03   -0.97454E-04   -0.20735E-03  1640   0.139E-01    0.175E-01
DAV:   4    -0.481683398409E+03    0.21740E-03   -0.70864E-04  1552   0.855E-02    0.102E-01
DAV:   5    -0.481683368152E+03    0.30257E-04   -0.21938E-04  1560   0.494E-02    0.338E-02
DAV:   6    -0.481683381784E+03   -0.13632E-04   -0.55879E-05  1368   0.230E-02    0.128E-02
DAV:   7    -0.481683384740E+03   -0.29552E-05   -0.83592E-06   920   0.921E-03
  94 F= -.48168338E+03 E0= -.48167534E+03  d E =-.210638E-02
 trial-energy change:   -0.002106  1 .order   -0.002111   -0.003399   -0.000823
 step:   3.3953(harm=  3.3953)  dis= 0.01324  next Energy=  -481.683520 (dE=-0.224E-02)
 bond charge predicted
       N       E                     dE             d eps       ncg     rms          rms(c)
DAV:   1    -0.481683220745E+03    0.16104E-03   -0.36097E-01  1408   0.130E+00    0.808E-02
DAV:   2    -0.481683533820E+03   -0.31307E-03   -0.40673E-03  1584   0.164E-01    0.560E-02
DAV:   3    -0.481683545417E+03   -0.11597E-04   -0.21370E-04  1648   0.448E-02    0.565E-02
DAV:   4    -0.481683521699E+03    0.23718E-04   -0.71352E-05  1208   0.274E-02    0.318E-02
DAV:   5    -0.481683521392E+03    0.30688E-06   -0.22120E-05   928   0.165E-02
  95 F= -.48168352E+03 E0= -.48167542E+03  d E =-.224304E-02
 curvature: -14.17 expect dE=-0.179E-01 dE for cont linesearch -0.341E-06
 trial: gam= 1.00969 g(F)=  0.126E-02 g(S)=  0.129E-05 ort = 0.163E-04 (trialstep = 0.241E+01)
 search vector abs. value=  0.125E-01
 bond charge predicted
       N       E                     dE             d eps       ncg     rms          rms(c)
DAV:   1    -0.481682479552E+03    0.10421E-02   -0.35073E+00  1408   0.401E+00    0.245E-01
DAV:   2    -0.481685425049E+03   -0.29455E-02   -0.38086E-02  1560   0.503E-01    0.167E-01
DAV:   3    -0.481685492285E+03   -0.67236E-04   -0.18732E-03  1632   0.131E-01    0.163E-01
DAV:   4    -0.481685334897E+03    0.15739E-03   -0.64969E-04  1544   0.822E-02    0.102E-01
DAV:   5    -0.481685303008E+03    0.31889E-04   -0.20936E-04  1552   0.491E-02    0.318E-02
DAV:   6    -0.481685316283E+03   -0.13275E-04   -0.53348E-05  1344   0.225E-02    0.125E-02
DAV:   7    -0.481685318820E+03   -0.25367E-05   -0.82419E-06   944   0.930E-03
  96 F= -.48168532E+03 E0= -.48167714E+03  d E =-.179743E-02
 trial-energy change:   -0.001797  1 .order   -0.001828   -0.003088   -0.000569
 step:   2.9514(harm=  2.9514)  dis= 0.01303  next Energy=  -481.685414 (dE=-0.189E-02)
 bond charge predicted
       N       E                     dE             d eps       ncg     rms          rms(c)
DAV:   1    -0.481685238020E+03    0.78263E-04   -0.17917E-01  1408   0.908E-01    0.552E-02
DAV:   2    -0.481685391439E+03   -0.15342E-03   -0.19650E-03  1584   0.114E-01    0.382E-02
DAV:   3    -0.481685396953E+03   -0.55141E-05   -0.96400E-05  1448   0.300E-02
  97 F= -.48168540E+03 E0= -.48167695E+03  d E =-.187556E-02
 curvature: -14.43 expect dE=-0.165E-01 dE for cont linesearch -0.227E-05
 trial: gam= 0.89311 g(F)=  0.108E-02 g(S)=  0.617E-04 ort = 0.444E-04 (trialstep = 0.252E+01)
 search vector abs. value=  0.112E-01
 bond charge predicted
       N       E                     dE             d eps       ncg     rms          rms(c)
DAV:   1    -0.481684688725E+03    0.70271E-03   -0.34215E+00  1408   0.394E+00    0.270E-01
DAV:   2    -0.481687511424E+03   -0.28227E-02   -0.37022E-02  1544   0.503E-01    0.231E-01
DAV:   3    -0.481687432531E+03    0.78893E-04   -0.28276E-03  1600   0.163E-01    0.203E-01
DAV:   4    -0.481687061605E+03    0.37093E-03   -0.80561E-04  1552   0.956E-02    0.844E-02
DAV:   5    -0.481687080614E+03   -0.19008E-04   -0.27454E-04  1568   0.496E-02    0.262E-02
DAV:   6    -0.481687087883E+03   -0.72695E-05   -0.42872E-05  1368   0.208E-02
  98 F= -.48168709E+03 E0= -.48167900E+03  d E =-.169093E-02
 trial-energy change:   -0.001691  1 .order   -0.001769   -0.002973   -0.000564
 step:   3.3061(harm=  3.1051)  dis= 0.01472  next Energy=  -481.687174 (dE=-0.178E-02)
 bond charge predicted
       N       E                     dE             d eps       ncg     rms          rms(c)
DAV:   1    -0.481686922320E+03    0.15829E-03   -0.33737E-01  1408   0.124E+00    0.852E-02
DAV:   2    -0.481687231060E+03   -0.30874E-03   -0.37325E-03  1544   0.161E-01    0.830E-02
DAV:   3    -0.481687203142E+03    0.27918E-04   -0.31056E-04  1616   0.544E-02    0.605E-02
DAV:   4    -0.481687171275E+03    0.31867E-04   -0.70036E-05  1240   0.288E-02    0.251E-02
DAV:   5    -0.481687176251E+03   -0.49754E-05   -0.28398E-05  1080   0.159E-02
  99 F= -.48168718E+03 E0= -.48167903E+03  d E =-.177930E-02
 curvature: -13.03 expect dE=-0.161E-01 dE for cont linesearch -0.356E-05
 trial: gam= 1.06391 g(F)=  0.123E-02 g(S)=  0.857E-05 ort =-0.554E-04 (trialstep = 0.217E+01)
 search vector abs. value=  0.138E-01
 bond charge predicted
       N       E                     dE             d eps       ncg     rms          rms(c)
DAV:   1    -0.481686342592E+03    0.82868E-03   -0.32024E+00  1440   0.380E+00    0.242E-01
DAV:   2    -0.481689004784E+03   -0.26622E-02   -0.34105E-02  1544   0.479E-01    0.194E-01
DAV:   3    -0.481689025291E+03   -0.20508E-04   -0.22582E-03  1624   0.144E-01    0.186E-01
DAV:   4    -0.481688711113E+03    0.31418E-03   -0.63198E-04  1552   0.844E-02    0.781E-02
DAV:   5    -0.481688724914E+03   -0.13801E-04   -0.23296E-04  1608   0.457E-02    0.248E-02
DAV:   6    -0.481688733834E+03   -0.89201E-05   -0.37125E-05  1296   0.195E-02
 100 F= -.48168873E+03 E0= -.48168064E+03  d E =-.155758E-02
 trial-energy change:   -0.001558  1 .order   -0.001522   -0.002555   -0.000489
 step:   2.6856(harm=  2.6856)  dis= 0.01407  next Energy=  -481.688756 (dE=-0.158E-02)
 bond charge predicted
       N       E                     dE             d eps       ncg     rms          rms(c)
DAV:   1    -0.481688668276E+03    0.56638E-04   -0.17950E-01  1440   0.901E-01    0.582E-02
DAV:   2    -0.481688822458E+03   -0.15418E-03   -0.19283E-03  1592   0.114E-01    0.482E-02
DAV:   3    -0.481688824492E+03   -0.20345E-05   -0.13093E-04  1400   0.348E-02    0.444E-02
DAV:   4    -0.481688807889E+03    0.16603E-04   -0.35844E-05  1120   0.205E-02    0.183E-02
DAV:   5    -0.481688812515E+03   -0.46254E-05   -0.14807E-05   960   0.116E-02
 101 F= -.48168881E+03 E0= -.48168066E+03  d E =-.163626E-02
 curvature: -15.77 expect dE=-0.159E-01 dE for cont linesearch -0.689E-06
 trial: gam= 0.76501 g(F)=  0.999E-03 g(S)=  0.956E-05 ort = 0.246E-04 (trialstep = 0.227E+01)
 search vector abs. value=  0.913E-02
 bond charge predicted
       N       E                     dE             d eps       ncg     rms          rms(c)
DAV:   1    -0.481688591352E+03    0.21654E-03   -0.23411E+00  1440   0.324E+00    0.197E-01
DAV:   2    -0.481690440620E+03   -0.18493E-02   -0.24460E-02  1560   0.400E-01    0.123E-01
DAV:   3    -0.481690415112E+03    0.25508E-04   -0.92856E-04  1656   0.900E-02    0.966E-02
DAV:   4    -0.481690454526E+03   -0.39414E-04   -0.38934E-04  1576   0.626E-02    0.100E-01
DAV:   5    -0.481690379768E+03    0.74759E-04   -0.16302E-04  1560   0.424E-02    0.250E-02
DAV:   6    -0.481690390079E+03   -0.10312E-04   -0.33323E-05  1200   0.172E-02    0.915E-03
DAV:   7    -0.481690392704E+03   -0.26243E-05   -0.57390E-06   936   0.764E-03
 102 F= -.48169039E+03 E0= -.48168220E+03  d E =-.158019E-02
 trial-energy change:   -0.001580  1 .order   -0.001581   -0.002336   -0.000827
 step:   3.5214(harm=  3.5214)  dis= 0.01592  next Energy=  -481.690621 (dE=-0.181E-02)
 bond charge predicted
       N       E                     dE             d eps       ncg     rms          rms(c)
DAV:   1    -0.481690084817E+03    0.30526E-03   -0.70383E-01  1440   0.177E+00    0.108E-01
DAV:   2    -0.481690643019E+03   -0.55820E-03   -0.73675E-03  1600   0.220E-01    0.680E-02
DAV:   3    -0.481690639237E+03    0.37815E-05   -0.28694E-04  1648   0.505E-02    0.566E-02
DAV:   4    -0.481690641324E+03   -0.20870E-05   -0.11549E-04  1248   0.344E-02    0.518E-02
DAV:   5    -0.481690625340E+03    0.15984E-04   -0.46121E-05  1144   0.233E-02    0.133E-02
DAV:   6    -0.481690629423E+03   -0.40823E-05   -0.10404E-05   968   0.102E-02
 103 F= -.48169063E+03 E0= -.48168245E+03  d E =-.181691E-02
 curvature: -15.66 expect dE=-0.194E-01 dE for cont linesearch -0.575E-06
 trial: gam= 1.26587 g(F)=  0.123E-02 g(S)=  0.105E-04 ort = 0.183E-04 (trialstep = 0.145E+01)
 search vector abs. value=  0.159E-01
 bond charge predicted
       N       E                     dE             d eps       ncg     rms          rms(c)
DAV:   1    -0.481690724180E+03   -0.98839E-04   -0.16480E+00  1408   0.268E+00    0.171E-01
DAV:   2    -0.481692106899E+03   -0.13827E-02   -0.17419E-02  1536   0.337E-01    0.122E-01
DAV:   3    -0.481692149804E+03   -0.42905E-04   -0.97462E-04  1640   0.964E-02    0.128E-01
DAV:   4    -0.481692009805E+03    0.14000E-03   -0.30880E-04  1536   0.581E-02    0.594E-02
DAV:   5    -0.481692013748E+03   -0.39428E-05   -0.94394E-05  1552   0.298E-02
 104 F= -.48169201E+03 E0= -.48168369E+03  d E =-.138433E-02
 trial-energy change:   -0.001384  1 .order   -0.001364   -0.001825   -0.000902
 step:   2.8618(harm=  2.8618)  dis= 0.01780  next Energy=  -481.692433 (dE=-0.180E-02)
 bond charge predicted
       N       E                     dE             d eps       ncg     rms          rms(c)
DAV:   1    -0.481691304867E+03    0.70494E-03   -0.15710E+00  1408   0.262E+00    0.168E-01
DAV:   2    -0.481692596938E+03   -0.12921E-02   -0.16473E-02  1544   0.327E-01    0.114E-01
DAV:   3    -0.481692644457E+03   -0.47518E-04   -0.86167E-04  1648   0.907E-02    0.120E-01
DAV:   4    -0.481692530330E+03    0.11413E-03   -0.29639E-04  1552   0.564E-02    0.606E-02
DAV:   5    -0.481692531967E+03   -0.16375E-05   -0.85230E-05  1448   0.292E-02
 105 F= -.48169253E+03 E0= -.48168418E+03  d E =-.190254E-02
 curvature: -18.07 expect dE=-0.158E-01 dE for cont linesearch -0.443E-05
 trial: gam= 0.64897 g(F)=  0.855E-03 g(S)=  0.183E-04 ort = 0.625E-04 (trialstep = 0.173E+01)
 search vector abs. value=  0.766E-02
 bond charge predicted
       N       E                     dE             d eps       ncg     rms          rms(c)
DAV:   1    -0.481692894005E+03   -0.36368E-03   -0.11424E+00  1408   0.221E+00    0.158E-01
DAV:   2    -0.481693914440E+03   -0.10204E-02   -0.12369E-02  1544   0.291E-01    0.154E-01
DAV:   3    -0.481693802782E+03    0.11166E-03   -0.10841E-03  1552   0.102E-01    0.112E-01
DAV:   4    -0.481693685637E+03    0.11714E-03   -0.23459E-04  1544   0.532E-02    0.474E-02
DAV:   5    -0.481693692628E+03   -0.69913E-05   -0.92630E-05  1536   0.278E-02
 106 F= -.48169369E+03 E0= -.48168530E+03  d E =-.116066E-02
 trial-energy change:   -0.001161  1 .order   -0.001128   -0.001582   -0.000674
 step:   3.0148(harm=  3.0148)  dis= 0.01366  next Energy=  -481.693910 (dE=-0.138E-02)
 bond charge predicted
       N       E                     dE             d eps       ncg     rms          rms(c)
DAV:   1    -0.481693543510E+03    0.14213E-03   -0.62930E-01  1408   0.164E+00    0.118E-01
DAV:   2    -0.481694103016E+03   -0.55951E-03   -0.68240E-03  1552   0.216E-01    0.114E-01
DAV:   3    -0.481694048833E+03    0.54183E-04   -0.59760E-04  1560   0.755E-02    0.846E-02
DAV:   4    -0.481693982502E+03    0.66331E-04   -0.13180E-04  1416   0.399E-02    0.355E-02
DAV:   5    -0.481693988278E+03   -0.57767E-05   -0.51607E-05  1328   0.209E-02
 107 F= -.48169399E+03 E0= -.48168561E+03  d E =-.145631E-02
 curvature: -12.63 expect dE=-0.867E-02 dE for cont linesearch -0.114E-05
 trial: gam= 0.80593 g(F)=  0.685E-03 g(S)=  0.143E-05 ort = 0.262E-04 (trialstep = 0.199E+01)
 search vector abs. value=  0.570E-02
 bond charge predicted
       N       E                     dE             d eps       ncg     rms          rms(c)
DAV:   1    -0.481694142040E+03   -0.15954E-03   -0.11484E+00  1424   0.219E+00    0.149E-01
DAV:   2    -0.481695042197E+03   -0.90016E-03   -0.11711E-02  1576   0.278E-01    0.118E-01
DAV:   3    -0.481695053162E+03   -0.10966E-04   -0.84041E-04  1584   0.897E-02    0.115E-01
DAV:   4    -0.481694926019E+03    0.12714E-03   -0.24138E-04  1512   0.517E-02    0.479E-02
DAV:   5    -0.481694931060E+03   -0.50411E-05   -0.73971E-05  1488   0.254E-02
 108 F= -.48169493E+03 E0= -.48168658E+03  d E =-.942782E-03
 trial-energy change:   -0.000943  1 .order   -0.000927   -0.001407   -0.000447
 step:   2.9118(harm=  2.9118)  dis= 0.01196  next Energy=  -481.695019 (dE=-0.103E-02)
 reached required accuracy - stopping structural energy minimisation
