<?xml version="1.0" encoding="ISO-8859-1"?>
<modeling>
 <generator>
  <i name="program" type="string">vasp </i>
  <i name="version" type="string">6.3.2  </i>
  <i name="subversion" type="string">27Jun22 (build May 04 2024 18:40:40) complex                          parallel </i>
  <i name="platform" type="string">LinuxIFC </i>
  <i name="date" type="string">2024 09 03 </i>
  <i name="time" type="string">02:43:21 </i>
 </generator>
 <incar>
  <i type="string" name="SYSTEM">slab_Cel1-OPT</i>
  <i type="int" name="ISTART">     0</i>
  <i type="string" name="PREC">N</i>
  <i type="string" name="ALGO">N</i>
  <i type="int" name="ICHARG">     2</i>
  <i type="int" name="NELM">   200</i>
  <i type="int" name="IBRION">     2</i>
  <i name="EDIFF">      0.00001000</i>
  <i name="EDIFFG">     -0.05000000</i>
  <i type="int" name="NSW">  1000</i>
  <i type="int" name="ISIF">     3</i>
  <i name="ENCUT">    400.00000000</i>
  <i name="POTIM">      0.10000000</i>
  <i type="string" name="LREAL">AUTO</i>
  <i type="int" name="ISMEAR">     0</i>
  <i name="SIGMA">      0.10000000</i>
  <i type="logical" name="LWAVE"> F  </i>
  <i type="logical" name="LCHARG"> F  </i>
  <i type="logical" name="LELF"> F  </i>
  <i type="logical" name="LAECHG"> F  </i>
  <i type="logical" name="LDIPOL"> T  </i>
  <i type="int" name="IDIPOL">     3</i>
 </incar>
 <primitive_cell>
  <structure name="primitive_cell" >
   <crystal>
    <varray name="basis" >
     <v>      13.75970367       0.00000000       0.00000000 </v>
     <v>       0.00000000      11.28669971       0.00000000 </v>
     <v>       0.00000000       0.00000000      15.00000000 </v>
    </varray>
    <i name="volume">   2329.52465126 </i>
    <varray name="rec_basis" >
     <v>       0.07267598       0.00000000       0.00000000 </v>
     <v>       0.00000000       0.08859986       0.00000000 </v>
     <v>       0.00000000       0.00000000       0.06666667 </v>
    </varray>
   </crystal>
   <varray name="positions" >
    <v>       0.07054120       0.38816457       0.22227495 </v>
    <v>       0.98151180       0.21832942       0.16785344 </v>
    <v>       0.22877304       0.39667288       0.18904348 </v>
    <v>       0.82472337       0.57572318       0.18403191 </v>
    <v>       0.14970601       0.24663792       0.12277753 </v>
    <v>       0.90758628       0.38434512       0.21811946 </v>
    <v>       0.56886571       0.39316130       0.23173729 </v>
    <v>       0.47768100       0.22391730       0.18017943 </v>
    <v>       0.73035049       0.39802658       0.19909345 </v>
    <v>       0.31101118       0.58132963       0.17977696 </v>
    <v>       0.64681854       0.25040749       0.13377315 </v>
    <v>       0.40275100       0.39355427       0.22106508 </v>
    <v>       0.81808056       0.88988957       0.05647519 </v>
    <v>       0.73319531       0.72568325       0.12448457 </v>
    <v>       0.97932824       0.89597624       0.07999408 </v>
    <v>       0.06867909       0.07698375       0.09423854 </v>
    <v>       0.90528082       0.74258583       0.14719628 </v>
    <v>       0.65472406       0.89333727       0.07691603 </v>
    <v>       0.31825350       0.89473226       0.05377466 </v>
    <v>       0.22716619       0.72126926       0.10084126 </v>
    <v>       0.47498917       0.90396535       0.09489577 </v>
    <v>       0.56592959       0.08075138       0.11024766 </v>
    <v>       0.38612516       0.76037560       0.16363174 </v>
    <v>       0.15509033       0.88950396       0.05271529 </v>
    <v>       0.98784551       0.43883046       0.24713656 </v>
    <v>       0.89991795       0.26975381       0.19549767 </v>
    <v>       0.15759857       0.43325808       0.24240148 </v>
    <v>       0.14788829       0.14353661       0.08017307 </v>
    <v>       0.98633649       0.10796021       0.13653167 </v>
    <v>       0.22915942       0.31533454       0.12527490 </v>
    <v>       0.06735802       0.28598388       0.16888911 </v>
    <v>       0.82274912       0.45552252       0.21014877 </v>
    <v>       0.48493735       0.44793349       0.25146232 </v>
    <v>       0.39648714       0.27665554       0.20625030 </v>
    <v>       0.65756919       0.43524210       0.25419888 </v>
    <v>       0.64488604       0.14640144       0.09374788 </v>
    <v>       0.48286722       0.11321356       0.15081376 </v>
    <v>       0.72606390       0.31870920       0.13454719 </v>
    <v>       0.56470606       0.29135323       0.18008364 </v>
    <v>       0.31888640       0.46086995       0.20329135 </v>
    <v>       0.73287748       0.94248397       0.03965616 </v>
    <v>       0.64891188       0.78317499       0.11254597 </v>
    <v>       0.90382696       0.93469024       0.03189926 </v>
    <v>       0.90701680       0.63807548       0.18754912 </v>
    <v>       0.73647441       0.61699787       0.15934394 </v>
    <v>       0.98321706       0.81212363       0.14197152 </v>
    <v>       0.81925020       0.78400528       0.10639513 </v>
    <v>       0.56804185       0.96074410       0.08520074 </v>
    <v>       0.23699719       0.94478449       0.02657725 </v>
    <v>       0.14820250       0.77173059       0.06843984 </v>
    <v>       0.40793432       0.93556381       0.03646331 </v>
    <v>       0.38047481       0.65838217       0.20939239 </v>
    <v>       0.23501053       0.60894863       0.12850628 </v>
    <v>       0.46527775       0.83024755       0.16578047 </v>
    <v>       0.31113112       0.79334051       0.10891910 </v>
    <v>       0.06990262       0.95754122       0.06514651 </v>
    <v>       0.57736557       0.77647674       0.24193941 </v>
    <v>       0.65582252       0.60772566       0.29790490 </v>
    <v>       0.48700699       0.61617049       0.29396059 </v>
   </varray>
  </structure>
  <varray name="primitive_index" >
   <v type="int" >        1 </v>
   <v type="int" >        2 </v>
   <v type="int" >        3 </v>
   <v type="int" >        4 </v>
   <v type="int" >        5 </v>
   <v type="int" >        6 </v>
   <v type="int" >        7 </v>
   <v type="int" >        8 </v>
   <v type="int" >        9 </v>
   <v type="int" >       10 </v>
   <v type="int" >       11 </v>
   <v type="int" >       12 </v>
   <v type="int" >       13 </v>
   <v type="int" >       14 </v>
   <v type="int" >       15 </v>
   <v type="int" >       16 </v>
   <v type="int" >       17 </v>
   <v type="int" >       18 </v>
   <v type="int" >       19 </v>
   <v type="int" >       20 </v>
   <v type="int" >       21 </v>
   <v type="int" >       22 </v>
   <v type="int" >       23 </v>
   <v type="int" >       24 </v>
   <v type="int" >       25 </v>
   <v type="int" >       26 </v>
   <v type="int" >       27 </v>
   <v type="int" >       28 </v>
   <v type="int" >       29 </v>
   <v type="int" >       30 </v>
   <v type="int" >       31 </v>
   <v type="int" >       32 </v>
   <v type="int" >       33 </v>
   <v type="int" >       34 </v>
   <v type="int" >       35 </v>
   <v type="int" >       36 </v>
   <v type="int" >       37 </v>
   <v type="int" >       38 </v>
   <v type="int" >       39 </v>
   <v type="int" >       40 </v>
   <v type="int" >       41 </v>
   <v type="int" >       42 </v>
   <v type="int" >       43 </v>
   <v type="int" >       44 </v>
   <v type="int" >       45 </v>
   <v type="int" >       46 </v>
   <v type="int" >       47 </v>
   <v type="int" >       48 </v>
   <v type="int" >       49 </v>
   <v type="int" >       50 </v>
   <v type="int" >       51 </v>
   <v type="int" >       52 </v>
   <v type="int" >       53 </v>
   <v type="int" >       54 </v>
   <v type="int" >       55 </v>
   <v type="int" >       56 </v>
   <v type="int" >       57 </v>
   <v type="int" >       58 </v>
   <v type="int" >       59 </v>
  </varray>
 </primitive_cell>
 <kpoints>
  <generation param="Gamma">
   <v type="int" name="divisions">       2        2        1 </v>
   <v name="usershift">      0.00000000       0.00000000       0.00000000 </v>
   <v name="genvec1">      0.50000000       0.00000000       0.00000000 </v>
   <v name="genvec2">      0.00000000       0.50000000       0.00000000 </v>
   <v name="genvec3">      0.00000000       0.00000000       1.00000000 </v>
   <v name="shift">      0.00000000       0.00000000       0.00000000 </v>
  </generation>
  <varray name="kpointlist" >
   <v>       0.00000000       0.00000000       0.00000000 </v>
   <v>       0.50000000       0.00000000       0.00000000 </v>
   <v>       0.00000000       0.50000000       0.00000000 </v>
   <v>       0.50000000       0.50000000       0.00000000 </v>
  </varray>
  <varray name="weights" >
   <v>       0.25000000 </v>
   <v>       0.25000000 </v>
   <v>       0.25000000 </v>
   <v>       0.25000000 </v>
  </varray>
 </kpoints>
 <parameters>
  <separator name="general" >
   <i type="string" name="SYSTEM">slab_Cel1-OPT</i>
   <i type="logical" name="LCOMPAT"> F  </i>
  </separator>
  <separator name="electronic" >
   <i type="string" name="PREC">n</i>
   <i name="ENMAX">    400.00000000</i>
   <i name="ENAUG">    644.87300000</i>
   <i name="EDIFF">      0.00001000</i>
   <i type="int" name="IALGO">    38</i>
   <i type="int" name="IWAVPR">    11</i>
   <i type="int" name="NBANDS">   176</i>
   <i type="int" name="NBANDSLOW">    -1</i>
   <i type="int" name="NBANDSHIGH">    -1</i>
   <i name="NELECT">    288.00000000</i>
   <i type="int" name="TURBO">     0</i>
   <i type="int" name="IRESTART">     0</i>
   <i type="int" name="NREBOOT">     0</i>
   <i type="int" name="NMIN">     0</i>
   <i name="EREF">      0.00000000</i>
   <separator name="electronic smearing" >
    <i type="int" name="ISMEAR">     0</i>
    <i name="SIGMA">      0.10000000</i>
    <i name="KSPACING">      0.50000000</i>
    <i type="logical" name="KGAMMA"> T  </i>
    <i type="logical" name="KBLOWUP"> T  </i>
   </separator>
   <separator name="electronic projectors" >
    <i type="logical" name="LREAL"> T  </i>
    <v name="ROPT">     -0.00050000     -0.00050000     -0.00050000     -0.00050000</v>
    <i type="int" name="LMAXPAW">  -100</i>
    <i type="int" name="LMAXMIX">     2</i>
    <i type="logical" name="NLSPLINE"> F  </i>
   </separator>
   <separator name="electronic startup" >
    <i type="int" name="ISTART">     0</i>
    <i type="int" name="ICHARG">     2</i>
    <i type="int" name="INIWAV">     1</i>
   </separator>
   <separator name="electronic spin" >
    <i type="int" name="ISPIN">     1</i>
    <i type="logical" name="LNONCOLLINEAR"> F  </i>
    <v name="MAGMOM">      1.00000000      1.00000000      1.00000000      1.00000000      1.00000000      1.00000000      1.00000000      1.00000000      1.00000000      1.00000000      1.00000000      1.00000000      1.00000000      1.00000000      1.00000000      1.00000000      1.00000000      1.00000000      1.00000000      1.00000000
      1.00000000      1.00000000      1.00000000      1.00000000      1.00000000      1.00000000      1.00000000      1.00000000      1.00000000      1.00000000      1.00000000      1.00000000      1.00000000      1.00000000      1.00000000      1.00000000      1.00000000      1.00000000      1.00000000      1.00000000
      1.00000000      1.00000000      1.00000000      1.00000000      1.00000000      1.00000000      1.00000000      1.00000000      1.00000000      1.00000000      1.00000000      1.00000000      1.00000000      1.00000000      1.00000000      1.00000000      1.00000000      1.00000000      1.00000000</v>
    <i name="NUPDOWN">     -1.00000000</i>
    <i type="logical" name="LSORBIT"> F  </i>
    <v name="SAXIS">      0.00000000      0.00000000      1.00000000</v>
    <i type="logical" name="LSPIRAL"> F  </i>
    <v name="QSPIRAL">      0.00000000      0.00000000      0.00000000</v>
    <i type="logical" name="LZEROZ"> F  </i>
   </separator>
   <separator name="electronic exchange-correlation" >
    <i type="logical" name="LASPH"> F  </i>
    <i type="logical" name="LMETAGGA"> F  </i>
   </separator>
   <separator name="electronic convergence" >
    <i type="int" name="NELM">   200</i>
    <i type="int" name="NELMDL">    -5</i>
    <i type="int" name="NELMIN">     2</i>
    <i name="ENINI">    400.00000000</i>
    <separator name="electronic convergence detail" >
     <i type="logical" name="LDIAG"> T  </i>
     <i type="logical" name="LSUBROT"> F  </i>
     <i name="WEIMIN">      0.00100000</i>
     <i name="EBREAK">      0.00000001</i>
     <i name="DEPER">      0.30000000</i>
     <i type="int" name="NRMM">     4</i>
     <i name="TIME">      0.40000000</i>
    </separator>
   </separator>
   <separator name="electronic mixer" >
    <i name="AMIX">      0.40000000</i>
    <i name="BMIX">      1.00000000</i>
    <i name="AMIN">      0.10000000</i>
    <i name="AMIX_MAG">      1.60000000</i>
    <i name="BMIX_MAG">      1.00000000</i>
    <separator name="electronic mixer details" >
     <i type="int" name="IMIX">     4</i>
     <i type="logical" name="MIXFIRST"> F  </i>
     <i type="int" name="MAXMIX">   -45</i>
     <i name="WC">    100.00000000</i>
     <i type="int" name="INIMIX">     1</i>
     <i type="int" name="MIXPRE">     1</i>
     <i type="int" name="MREMOVE">     5</i>
    </separator>
   </separator>
   <separator name="electronic dipolcorrection" >
    <i type="logical" name="LDIPOL"> T  </i>
    <i type="logical" name="LMONO"> F  </i>
    <i type="int" name="IDIPOL">     3</i>
    <i name="EPSILON">      1.00000000</i>
    <v name="DIPOL">   -100.00000000   -100.00000000   -100.00000000</v>
    <i name="EFIELD">      0.00000000</i>
   </separator>
  </separator>
  <separator name="grids" >
   <i type="int" name="NGX">    70</i>
   <i type="int" name="NGY">    56</i>
   <i type="int" name="NGZ">    80</i>
   <i type="int" name="NGXF">   140</i>
   <i type="int" name="NGYF">   112</i>
   <i type="int" name="NGZF">   160</i>
   <i type="logical" name="ADDGRID"> F  </i>
  </separator>
  <separator name="ionic" >
   <i type="int" name="NSW">  1000</i>
   <i type="int" name="IBRION">     2</i>
   <i type="int" name="MDALGO">     0</i>
   <i type="int" name="ISIF">     3</i>
   <i name="PSTRESS">      0.00000000</i>
   <i name="EDIFFG">     -0.05000000</i>
   <i type="int" name="NFREE">     1</i>
   <i name="POTIM">      0.10000000</i>
   <i name="SMASS">     -3.00000000</i>
   <i name="SCALEE">      1.00000000</i>
  </separator>
  <separator name="ionic md" >
   <i name="TEBEG">      0.00010000</i>
   <i name="TEEND">      0.00010000</i>
   <i type="int" name="NBLOCK">     1</i>
   <i type="int" name="KBLOCK">  1000</i>
   <i type="int" name="NPACO">   256</i>
   <i name="APACO">     10.00000000</i>
  </separator>
  <separator name="symmetry" >
   <i type="int" name="ISYM">     2</i>
   <i name="SYMPREC">      0.00001000</i>
  </separator>
  <separator name="dos" >
   <i type="int" name="LORBIT">     0</i>
   <v name="RWIGS">     -1.00000000     -1.00000000     -1.00000000     -1.00000000</v>
   <i type="int" name="NEDOS">   301</i>
   <i name="EMIN">     10.00000000</i>
   <i name="EMAX">    -10.00000000</i>
   <i name="EFERMI">      0.00000000</i>
  </separator>
  <separator name="writing" >
   <i type="int" name="NWRITE">     2</i>
   <i type="logical" name="LWAVE"> F  </i>
   <i type="logical" name="LDOWNSAMPLE"> F  </i>
   <i type="logical" name="LCHARG"> F  </i>
   <i type="logical" name="LPARD"> F  </i>
   <i type="logical" name="LVTOT"> F  </i>
   <i type="logical" name="LVHAR"> F  </i>
   <i type="logical" name="LELF"> F  </i>
   <i type="logical" name="LOPTICS"> F  </i>
   <v name="STM">      0.00000000      0.00000000      0.00000000      0.00000000      0.00000000      0.00000000      0.00000000</v>
  </separator>
  <separator name="performance" >
   <i type="int" name="NPAR">     4</i>
   <i type="int" name="NSIM">     4</i>
   <i type="int" name="NBLK">    -1</i>
   <i type="logical" name="LPLANE"> T  </i>
   <i type="logical" name="LSCALAPACK"> T  </i>
   <i type="logical" name="LSCAAWARE"> F  </i>
   <i type="logical" name="LSCALU"> F  </i>
   <i type="logical" name="LASYNC"> F  </i>
   <i type="logical" name="LORBITALREAL"> F  </i>
  </separator>
  <separator name="miscellaneous" >
   <i type="int" name="IDIOT">     3</i>
   <i type="int" name="PHON_NSTRUCT">    -1</i>
   <i type="logical" name="LMUSIC"> F  </i>
   <v name="POMASS">     12.01100000     14.00100000    107.86800000    106.42000000</v>
   <v name="DARWINR">      0.00000000      0.00000000      0.00000000      0.00000000</v>
   <v name="DARWINV">      1.00000000      1.00000000      1.00000000      1.00000000</v>
   <i type="logical" name="LCORR"> T  </i>
  </separator>
  <i type="logical" name="GGA_COMPAT"> T  </i>
  <i type="logical" name="LBERRY"> F  </i>
  <i type="int" name="ICORELEVEL">     0</i>
  <i type="logical" name="LDAU"> F  </i>
  <i type="int" name="I_CONSTRAINED_M">     0</i>
  <separator name="electronic exchange-correlation" >
   <i type="string" name="GGA">--</i>
   <i type="int" name="VOSKOWN">     0</i>
   <i type="logical" name="LHFCALC"> F  </i>
   <i type="string" name="PRECFOCK"></i>
   <i type="logical" name="LSYMGRAD"> F  </i>
   <i type="logical" name="LHFONE"> F  </i>
   <i type="logical" name="LRHFCALC"> F  </i>
   <i type="logical" name="LTHOMAS"> F  </i>
   <i type="logical" name="LMODELHF"> F  </i>
   <i type="logical" name="LFOCKACE"> F  </i>
   <i name="ENCUT4O">     -1.00000000</i>
   <i type="int" name="EXXOEP">     0</i>
   <i type="int" name="FOURORBIT">     0</i>
   <i name="AEXX">      0.00000000</i>
   <i name="HFALPHA">      0.00000000</i>
   <i name="MCALPHA">      0.00000000</i>
   <i name="ALDAX">      1.00000000</i>
   <i name="AGGAX">      1.00000000</i>
   <i name="ALDAC">      1.00000000</i>
   <i name="AGGAC">      1.00000000</i>
   <i type="int" name="NKREDX">     1</i>
   <i type="int" name="NKREDY">     1</i>
   <i type="int" name="NKREDZ">     1</i>
   <i type="logical" name="SHIFTRED"> F  </i>
   <i type="logical" name="ODDONLY"> F  </i>
   <i type="logical" name="EVENONLY"> F  </i>
   <i type="int" name="LMAXFOCK">     0</i>
   <i type="int" name="NMAXFOCKAE">     0</i>
   <i type="logical" name="LFOCKAEDFT"> F  </i>
   <i name="HFSCREEN">      0.00000000</i>
   <i name="HFSCREENC">      0.00000000</i>
   <i type="int" name="NBANDSGWLOW">     0</i>
  </separator>
  <separator name="vdW DFT" >
   <i type="logical" name="LUSE_VDW"> F  </i>
   <i name="Zab_VDW">     -0.84910000</i>
   <i name="PARAM1">      0.12340000</i>
   <i name="PARAM2">      1.00000000</i>
   <i name="PARAM3">      0.00000000</i>
  </separator>
  <separator name="model GW" >
   <i type="int" name="MODEL_GW">     0</i>
   <i name="MODEL_EPS0">     23.69008120</i>
   <i name="MODEL_ALPHA">      1.00000000</i>
  </separator>
  <separator name="linear response parameters" >
   <i type="logical" name="LEPSILON"> F  </i>
   <i type="logical" name="LRPA"> F  </i>
   <i type="logical" name="LNABLA"> F  </i>
   <i type="logical" name="LVEL"> F  </i>
   <i name="CSHIFT">      0.10000000</i>
   <i name="OMEGAMAX">     -1.00000000</i>
   <i name="DEG_THRESHOLD">      0.00200000</i>
   <i name="RTIME">     -0.10000000</i>
   <i name="WPLASMAI">      0.00000000</i>
   <v name="DFIELD">      0.00000000      0.00000000      0.00000000</v>
   <v name="WPLASMA">      0.00000000      0.00000000      0.00000000      0.00000000      0.00000000      0.00000000      0.00000000      0.00000000      0.00000000</v>
  </separator>
  <separator name="orbital magnetization" >
   <i type="logical" name="NUCIND"> F  </i>
   <v name="MAGPOS">      0.00000000      0.00000000      0.00000000</v>
   <i type="logical" name="LNICSALL"> T  </i>
   <i type="logical" name="ORBITALMAG"> F  </i>
   <i type="logical" name="LMAGBLOCH"> F  </i>
   <i type="logical" name="LCHIMAG"> F  </i>
   <i type="logical" name="LGAUGE"> T  </i>
   <i type="int" name="MAGATOM">     0</i>
   <v name="MAGDIPOL">      0.00000000      0.00000000      0.00000000</v>
   <v name="AVECCONST">      0.00000000      0.00000000      0.00000000</v>
  </separator>
  <separator name="response functions" >
   <i type="logical" name="LFINITE_TEMPERATURE"> F  </i>
   <i type="logical" name="LADDER"> F  </i>
   <i type="logical" name="LRPAFORCE"> F  </i>
   <i type="logical" name="LFXC"> F  </i>
   <i type="logical" name="LHARTREE"> T  </i>
   <i type="int" name="IBSE">     0</i>
   <v type="int" name="KPOINT">    -1     0     0     0</v>
   <i type="logical" name="LTCTC"> F  </i>
   <i type="logical" name="LTCTE"> F  </i>
   <i type="logical" name="LTETE"> F  </i>
   <i type="logical" name="LTRIPLET"> F  </i>
   <i type="logical" name="LFXCEPS"> F  </i>
   <i type="logical" name="LFXHEG"> F  </i>
   <i type="int" name="NATURALO">     2</i>
   <i type="logical" name="LHOLEGF"> F  </i>
   <i type="logical" name="L2ORDER"> F  </i>
   <i type="logical" name="LDMP1"> F  </i>
   <i type="logical" name="LMP2LT"> F  </i>
   <i type="logical" name="LSMP2LT"> F  </i>
   <i type="logical" name="LGWLF"> F  </i>
   <i name="ENCUTGW">     -2.00000000</i>
   <i name="ENCUTGWSOFT">     -2.00000000</i>
   <i name="ENCUTLF">     -1.00000000</i>
   <i type="logical" name="LESF_SPLINES"> F  </i>
   <i type="int" name="LMAXMP2">    -1</i>
   <i name="SCISSOR">      0.00000000</i>
   <i type="int" name="NOMEGA">     0</i>
   <i type="int" name="NOMEGAR">     0</i>
   <i type="int" name="NBANDSGW">    -1</i>
   <i type="int" name="NBANDSO">    -1</i>
   <i type="int" name="NBANDSV">    -1</i>
   <i type="int" name="NELMGW">     1</i>
   <i type="int" name="NELMHF">     1</i>
   <i type="int" name="DIM">     3</i>
   <i type="int" name="IESPILON">     4</i>
   <i type="int" name="ANTIRES">     0</i>
   <i name="OMEGAMAX">    -30.00000000</i>
   <i name="OMEGAMIN">    -30.00000000</i>
   <i name="OMEGATL">   -200.00000000</i>
   <i type="int" name="OMEGAGRID">     0</i>
   <i name="CSHIFT">     -0.10000000</i>
   <i type="logical" name="LSELFENERGY"> F  </i>
   <i type="logical" name="LSPECTRAL"> F  </i>
   <i type="logical" name="LSPECTRALGW"> F  </i>
   <i type="logical" name="LSINGLES"> F  </i>
   <i type="logical" name="LFERMIGW"> F  </i>
   <i type="logical" name="ODDONLYGW"> F  </i>
   <i type="logical" name="EVENONLYGW"> F  </i>
   <i type="int" name="NKREDLFX">     1</i>
   <i type="int" name="NKREDLFY">     1</i>
   <i type="int" name="NKREDLFZ">     1</i>
   <i type="int" name="MAXMEM">  2800</i>
   <i type="int" name="TELESCOPE">     0</i>
   <i type="int" name="NTAUPAR">    -1</i>
   <i type="int" name="NOMEGAPAR">    -1</i>
   <i name="DAMP_NEWTON">      0.80000001</i>
   <i name="LAMBDA">      1.00000000</i>
  </separator>
  <separator name="External order field" >
   <i name="OFIELD_KAPPA">      0.00000000</i>
   <v name="OFIELD_K">      0.00000000      0.00000000      0.00000000</v>
   <i name="OFIELD_Q6_NEAR">      0.00000000</i>
   <i name="OFIELD_Q6_FAR">      0.00000000</i>
   <i name="OFIELD_A">      0.00000000</i>
  </separator>
  <separator name="optional k-points parameters" >
   <i type="int" name="KPOINTS_OPT_MODE">     1</i>
   <i type="logical" name="LKPOINTS_OPT"> F  </i>
  </separator>
  <separator name="solvation model" >
   <i type="logical" name="LSOL"> F  </i>
  </separator>
 </parameters>
 <atominfo>
  <atoms>      59 </atoms>
  <types>       4 </types>
  <array name="atoms" >
   <dimension dim="1">ion</dimension>
   <field type="string">element</field>
   <field type="int">atomtype</field>
   <set>
    <rc><c>C </c><c>   1</c></rc>
    <rc><c>C </c><c>   1</c></rc>
    <rc><c>C </c><c>   1</c></rc>
    <rc><c>C </c><c>   1</c></rc>
    <rc><c>C </c><c>   1</c></rc>
    <rc><c>C </c><c>   1</c></rc>
    <rc><c>C </c><c>   1</c></rc>
    <rc><c>C </c><c>   1</c></rc>
    <rc><c>C </c><c>   1</c></rc>
    <rc><c>C </c><c>   1</c></rc>
    <rc><c>C </c><c>   1</c></rc>
    <rc><c>C </c><c>   1</c></rc>
    <rc><c>C </c><c>   1</c></rc>
    <rc><c>C </c><c>   1</c></rc>
    <rc><c>C </c><c>   1</c></rc>
    <rc><c>C </c><c>   1</c></rc>
    <rc><c>C </c><c>   1</c></rc>
    <rc><c>C </c><c>   1</c></rc>
    <rc><c>C </c><c>   1</c></rc>
    <rc><c>C </c><c>   1</c></rc>
    <rc><c>C </c><c>   1</c></rc>
    <rc><c>C </c><c>   1</c></rc>
    <rc><c>C </c><c>   1</c></rc>
    <rc><c>C </c><c>   1</c></rc>
    <rc><c>N </c><c>   2</c></rc>
    <rc><c>N </c><c>   2</c></rc>
    <rc><c>N </c><c>   2</c></rc>
    <rc><c>N </c><c>   2</c></rc>
    <rc><c>N </c><c>   2</c></rc>
    <rc><c>N </c><c>   2</c></rc>
    <rc><c>N </c><c>   2</c></rc>
    <rc><c>N </c><c>   2</c></rc>
    <rc><c>N </c><c>   2</c></rc>
    <rc><c>N </c><c>   2</c></rc>
    <rc><c>N </c><c>   2</c></rc>
    <rc><c>N </c><c>   2</c></rc>
    <rc><c>N </c><c>   2</c></rc>
    <rc><c>N </c><c>   2</c></rc>
    <rc><c>N </c><c>   2</c></rc>
    <rc><c>N </c><c>   2</c></rc>
    <rc><c>N </c><c>   2</c></rc>
    <rc><c>N </c><c>   2</c></rc>
    <rc><c>N </c><c>   2</c></rc>
    <rc><c>N </c><c>   2</c></rc>
    <rc><c>N </c><c>   2</c></rc>
    <rc><c>N </c><c>   2</c></rc>
    <rc><c>N </c><c>   2</c></rc>
    <rc><c>N </c><c>   2</c></rc>
    <rc><c>N </c><c>   2</c></rc>
    <rc><c>N </c><c>   2</c></rc>
    <rc><c>N </c><c>   2</c></rc>
    <rc><c>N </c><c>   2</c></rc>
    <rc><c>N </c><c>   2</c></rc>
    <rc><c>N </c><c>   2</c></rc>
    <rc><c>N </c><c>   2</c></rc>
    <rc><c>N </c><c>   2</c></rc>
    <rc><c>Ag</c><c>   3</c></rc>
    <rc><c>Ag</c><c>   3</c></rc>
    <rc><c>Pd</c><c>   4</c></rc>
   </set>
  </array>
  <array name="atomtypes" >
   <dimension dim="1">type</dimension>
   <field type="int">atomspertype</field>
   <field type="string">element</field>
   <field>mass</field>
   <field>valence</field>
   <field type="string">pseudopotential</field>
   <set>
    <rc><c>  24</c><c>C </c><c>     12.01100000</c><c>      4.00000000</c><c>  PAW_PBE C 08Apr2002                   </c></rc>
    <rc><c>  32</c><c>N </c><c>     14.00100000</c><c>      5.00000000</c><c>  PAW_PBE N 08Apr2002                   </c></rc>
    <rc><c>   2</c><c>Ag</c><c>    107.86800000</c><c>     11.00000000</c><c>  PAW_PBE Ag 02Apr2005                  </c></rc>
    <rc><c>   1</c><c>Pd</c><c>    106.42000000</c><c>     10.00000000</c><c>  PAW_PBE Pd 04Jan2005                  </c></rc>
   </set>
  </array>
 </atominfo>
 <structure name="initialpos" >
  <crystal>
   <varray name="basis" >
    <v>      13.75970367       0.00000000       0.00000000 </v>
    <v>       0.00000000      11.28669971       0.00000000 </v>
    <v>       0.00000000       0.00000000      15.00000000 </v>
   </varray>
   <i name="volume">   2329.52465126 </i>
   <varray name="rec_basis" >
    <v>       0.07267598       0.00000000       0.00000000 </v>
    <v>       0.00000000       0.08859986       0.00000000 </v>
    <v>       0.00000000       0.00000000       0.06666667 </v>
   </varray>
  </crystal>
  <varray name="positions" >
   <v>       0.07054120       0.38816457       0.22227495 </v>
   <v>       0.98151180       0.21832942       0.16785344 </v>
   <v>       0.22877304       0.39667288       0.18904348 </v>
   <v>       0.82472337       0.57572318       0.18403191 </v>
   <v>       0.14970601       0.24663792       0.12277753 </v>
   <v>       0.90758628       0.38434512       0.21811946 </v>
   <v>       0.56886571       0.39316130       0.23173729 </v>
   <v>       0.47768100       0.22391730       0.18017943 </v>
   <v>       0.73035049       0.39802658       0.19909345 </v>
   <v>       0.31101118       0.58132963       0.17977696 </v>
   <v>       0.64681854       0.25040749       0.13377315 </v>
   <v>       0.40275100       0.39355427       0.22106508 </v>
   <v>       0.81808056       0.88988957       0.05647519 </v>
   <v>       0.73319531       0.72568325       0.12448457 </v>
   <v>       0.97932824       0.89597624       0.07999408 </v>
   <v>       0.06867909       0.07698375       0.09423854 </v>
   <v>       0.90528082       0.74258583       0.14719628 </v>
   <v>       0.65472406       0.89333727       0.07691603 </v>
   <v>       0.31825350       0.89473226       0.05377466 </v>
   <v>       0.22716619       0.72126926       0.10084126 </v>
   <v>       0.47498917       0.90396535       0.09489577 </v>
   <v>       0.56592959       0.08075138       0.11024766 </v>
   <v>       0.38612516       0.76037560       0.16363174 </v>
   <v>       0.15509033       0.88950396       0.05271529 </v>
   <v>       0.98784551       0.43883046       0.24713656 </v>
   <v>       0.89991795       0.26975381       0.19549767 </v>
   <v>       0.15759857       0.43325808       0.24240148 </v>
   <v>       0.14788829       0.14353661       0.08017307 </v>
   <v>       0.98633649       0.10796021       0.13653167 </v>
   <v>       0.22915942       0.31533454       0.12527490 </v>
   <v>       0.06735802       0.28598388       0.16888911 </v>
   <v>       0.82274912       0.45552252       0.21014877 </v>
   <v>       0.48493735       0.44793349       0.25146232 </v>
   <v>       0.39648714       0.27665554       0.20625030 </v>
   <v>       0.65756919       0.43524210       0.25419888 </v>
   <v>       0.64488604       0.14640144       0.09374788 </v>
   <v>       0.48286722       0.11321356       0.15081376 </v>
   <v>       0.72606390       0.31870920       0.13454719 </v>
   <v>       0.56470606       0.29135323       0.18008364 </v>
   <v>       0.31888640       0.46086995       0.20329135 </v>
   <v>       0.73287748       0.94248397       0.03965616 </v>
   <v>       0.64891188       0.78317499       0.11254597 </v>
   <v>       0.90382696       0.93469024       0.03189926 </v>
   <v>       0.90701680       0.63807548       0.18754912 </v>
   <v>       0.73647441       0.61699787       0.15934394 </v>
   <v>       0.98321706       0.81212363       0.14197152 </v>
   <v>       0.81925020       0.78400528       0.10639513 </v>
   <v>       0.56804185       0.96074410       0.08520074 </v>
   <v>       0.23699719       0.94478449       0.02657725 </v>
   <v>       0.14820250       0.77173059       0.06843984 </v>
   <v>       0.40793432       0.93556381       0.03646331 </v>
   <v>       0.38047481       0.65838217       0.20939239 </v>
   <v>       0.23501053       0.60894863       0.12850628 </v>
   <v>       0.46527775       0.83024755       0.16578047 </v>
   <v>       0.31113112       0.79334051       0.10891910 </v>
   <v>       0.06990262       0.95754122       0.06514651 </v>
   <v>       0.57736557       0.77647674       0.24193941 </v>
   <v>       0.65582252       0.60772566       0.29790490 </v>
   <v>       0.48700699       0.61617049       0.29396059 </v>
  </varray>
 </structure>
 <calculation>
  <scstep>
   <time name="dav">    1.66    1.66</time>
   <time name="total">    1.70    1.70</time>
   <dipole>
    <v name="dipole">      0.00000000       0.00000000       0.00003685 </v>
    <i name="Tr[quadrupol]">  -8096.37377075 </i>
    <i name="Echarged">      0.00000000 </i>
    <i name="Edipol_quadrupol">      0.00000000 </i>
    <i name="Eion">      0.00000000 </i>
   </dipole>
   <energy>
    <i name="alphaZ">    173.36467072 </i>
    <i name="ewald">  28784.59497549 </i>
    <i name="hartreedc"> -41153.91590973 </i>
    <i name="XCdc">    906.47865242 </i>
    <i name="pawpsdc">  11976.03913789 </i>
    <i name="pawaedc"> -11873.36832799 </i>
    <i name="eentropy">     -0.08316534 </i>
    <i name="bandstr">  -1189.23591509 </i>
    <i name="atom">  14878.51419950 </i>
    <i name="e_fr_energy">   2502.38831787 </i>
    <i name="e_wo_entrp">   2502.47148321 </i>
    <i name="e_0_energy">   2502.42990054 </i>
   </energy>
  </scstep>
  <scstep>
   <time name="dav">    1.90    1.91</time>
   <time name="total">    1.90    1.91</time>
   <dipole>
    <v name="dipole">      0.00000000       0.00000000       0.00003685 </v>
    <i name="Tr[quadrupol]">  -8096.37377075 </i>
    <i name="Echarged">      0.00000000 </i>
    <i name="Edipol_quadrupol">      0.00000000 </i>
    <i name="Eion">      0.00000000 </i>
   </dipole>
   <energy>
    <i name="e_fr_energy">    -48.19817150 </i>
    <i name="e_wo_entrp">    -48.19800573 </i>
    <i name="e_0_energy">    -48.19808862 </i>
   </energy>
  </scstep>
  <scstep>
   <time name="dav">    1.68    1.68</time>
   <time name="total">    1.68    1.68</time>
   <dipole>
    <v name="dipole">      0.00000000       0.00000000       0.00003685 </v>
    <i name="Tr[quadrupol]">  -8096.37377075 </i>
    <i name="Echarged">      0.00000000 </i>
    <i name="Edipol_quadrupol">      0.00000000 </i>
    <i name="Eion">      0.00000000 </i>
   </dipole>
   <energy>
    <i name="e_fr_energy">   -496.89716084 </i>
    <i name="e_wo_entrp">   -496.81414967 </i>
    <i name="e_0_energy">   -496.85565525 </i>
   </energy>
  </scstep>
  <scstep>
   <time name="dav">    1.62    1.63</time>
   <time name="total">    1.62    1.63</time>
   <dipole>
    <v name="dipole">      0.00000000       0.00000000       0.00003685 </v>
    <i name="Tr[quadrupol]">  -8096.37377075 </i>
    <i name="Echarged">      0.00000000 </i>
    <i name="Edipol_quadrupol">      0.00000000 </i>
    <i name="Eion">      0.00000000 </i>
   </dipole>
   <energy>
    <i name="e_fr_energy">   -511.71836009 </i>
    <i name="e_wo_entrp">   -511.62578316 </i>
    <i name="e_0_energy">   -511.67207163 </i>
   </energy>
  </scstep>
  <scstep>
   <time name="dav">    1.81    1.81</time>
   <time name="total">    1.85    1.86</time>
   <dipole>
    <v name="dipole">      0.00000000       0.00000000       0.00003685 </v>
    <i name="Tr[quadrupol]">  -8096.37377075 </i>
    <i name="Echarged">      0.00000000 </i>
    <i name="Edipol_quadrupol">      0.00000000 </i>
    <i name="Eion">      0.00000000 </i>
   </dipole>
   <energy>
    <i name="e_fr_energy">   -512.31017050 </i>
    <i name="e_wo_entrp">   -512.21456932 </i>
    <i name="e_0_energy">   -512.26236991 </i>
   </energy>
  </scstep>
  <scstep>
   <time name="dav">    1.59    1.59</time>
   <time name="total">    1.68    1.68</time>
   <dipole>
    <v name="dipole">      0.00000000       0.00000000      -0.55262464 </v>
    <i name="Tr[quadrupol]">  -8097.87084678 </i>
    <i name="Echarged">      0.00000000 </i>
    <i name="Edipol_quadrupol">      0.00000000 </i>
    <i name="Eion">      0.00000000 </i>
   </dipole>
   <energy>
    <i name="e_fr_energy">   -485.57328795 </i>
    <i name="e_wo_entrp">   -485.57328795 </i>
    <i name="e_0_energy">   -485.57328795 </i>
   </energy>
  </scstep>
  <scstep>
   <time name="dav">    1.62    1.63</time>
   <time name="total">    1.70    1.70</time>
   <dipole>
    <v name="dipole">      0.00000000       0.00000000      -0.22883683 </v>
    <i name="Tr[quadrupol]">  -8098.11968815 </i>
    <i name="Echarged">      0.00000000 </i>
    <i name="Edipol_quadrupol">      0.00000000 </i>
    <i name="Eion">      0.00000000 </i>
   </dipole>
   <energy>
    <i name="e_fr_energy">   -480.66126249 </i>
    <i name="e_wo_entrp">   -480.56516300 </i>
    <i name="e_0_energy">   -480.61321275 </i>
   </energy>
  </scstep>
  <scstep>
   <time name="dav">    1.59    1.60</time>
   <time name="total">    1.68    1.69</time>
   <dipole>
    <v name="dipole">      0.00000000       0.00000000      -0.32905282 </v>
    <i name="Tr[quadrupol]">  -8098.82106738 </i>
    <i name="Echarged">      0.00000000 </i>
    <i name="Edipol_quadrupol">      0.00000000 </i>
    <i name="Eion">      0.00000000 </i>
   </dipole>
   <energy>
    <i name="e_fr_energy">   -480.59955281 </i>
    <i name="e_wo_entrp">   -480.59955281 </i>
    <i name="e_0_energy">   -480.59955281 </i>
   </energy>
  </scstep>
  <scstep>
   <time name="dav">    1.56    1.56</time>
   <time name="total">    1.64    1.64</time>
   <dipole>
    <v name="dipole">      0.00000000       0.00000000      -0.15250535 </v>
    <i name="Tr[quadrupol]">  -8099.10959941 </i>
    <i name="Echarged">      0.00000000 </i>
    <i name="Edipol_quadrupol">      0.00000000 </i>
    <i name="Eion">      0.00000000 </i>
   </dipole>
   <energy>
    <i name="e_fr_energy">   -478.14140227 </i>
    <i name="e_wo_entrp">   -478.06802712 </i>
    <i name="e_0_energy">   -478.10471470 </i>
   </energy>
  </scstep>
  <scstep>
   <time name="dav">    1.60    1.60</time>
   <time name="total">    1.68    1.68</time>
   <dipole>
    <v name="dipole">      0.00000000       0.00000000      -0.10968631 </v>
    <i name="Tr[quadrupol]">  -8099.31732010 </i>
    <i name="Echarged">      0.00000000 </i>
    <i name="Edipol_quadrupol">      0.00000000 </i>
    <i name="Eion">      0.00000000 </i>
   </dipole>
   <energy>
    <i name="e_fr_energy">   -478.16217285 </i>
    <i name="e_wo_entrp">   -478.06545617 </i>
    <i name="e_0_energy">   -478.11381451 </i>
   </energy>
  </scstep>
  <scstep>
   <time name="dav">    1.57    1.57</time>
   <time name="total">    1.65    1.65</time>
   <dipole>
    <v name="dipole">      0.00000000       0.00000000      -0.13862067 </v>
    <i name="Tr[quadrupol]">  -8099.65776431 </i>
    <i name="Echarged">      0.00000000 </i>
    <i name="Edipol_quadrupol">      0.00000000 </i>
    <i name="Eion">      0.00000000 </i>
   </dipole>
   <energy>
    <i name="e_fr_energy">   -478.29893578 </i>
    <i name="e_wo_entrp">   -478.29549850 </i>
    <i name="e_0_energy">   -478.29721714 </i>
   </energy>
  </scstep>
  <scstep>
   <time name="dav">    1.58    1.58</time>
   <time name="total">    1.66    1.66</time>
   <dipole>
    <v name="dipole">      0.00000000       0.00000000      -0.08904223 </v>
    <i name="Tr[quadrupol]">  -8099.75686477 </i>
    <i name="Echarged">      0.00000000 </i>
    <i name="Edipol_quadrupol">      0.00000000 </i>
    <i name="Eion">      0.00000000 </i>
   </dipole>
   <energy>
    <i name="e_fr_energy">   -478.07035960 </i>
    <i name="e_wo_entrp">   -478.00509440 </i>
    <i name="e_0_energy">   -478.03772700 </i>
   </energy>
  </scstep>
  <scstep>
   <time name="dav">    1.55    1.55</time>
   <time name="total">    1.63    1.63</time>
   <dipole>
    <v name="dipole">      0.00000000       0.00000000      -0.07089778 </v>
    <i name="Tr[quadrupol]">  -8099.99363405 </i>
    <i name="Echarged">      0.00000000 </i>
    <i name="Edipol_quadrupol">      0.00000000 </i>
    <i name="Eion">      0.00000000 </i>
   </dipole>
   <energy>
    <i name="e_fr_energy">   -478.07201812 </i>
    <i name="e_wo_entrp">   -478.01578000 </i>
    <i name="e_0_energy">   -478.04389906 </i>
   </energy>
  </scstep>
  <scstep>
   <time name="dav">    1.68    1.69</time>
   <time name="total">    1.77    1.78</time>
   <dipole>
    <v name="dipole">      0.00000000       0.00000000      -0.02671242 </v>
    <i name="Tr[quadrupol]">  -8100.26310680 </i>
    <i name="Echarged">      0.00000000 </i>
    <i name="Edipol_quadrupol">      0.00000000 </i>
    <i name="Eion">      0.00000000 </i>
   </dipole>
   <energy>
    <i name="e_fr_energy">   -478.05104772 </i>
    <i name="e_wo_entrp">   -477.95884475 </i>
    <i name="e_0_energy">   -478.00494624 </i>
   </energy>
  </scstep>
  <scstep>
   <time name="dav">    1.54    1.54</time>
   <time name="total">    1.63    1.63</time>
   <dipole>
    <v name="dipole">      0.00000000       0.00000000      -0.02954142 </v>
    <i name="Tr[quadrupol]">  -8100.34676941 </i>
    <i name="Echarged">      0.00000000 </i>
    <i name="Edipol_quadrupol">      0.00000000 </i>
    <i name="Eion">      0.00000000 </i>
   </dipole>
   <energy>
    <i name="e_fr_energy">   -478.05264400 </i>
    <i name="e_wo_entrp">   -477.97608319 </i>
    <i name="e_0_energy">   -478.01436360 </i>
   </energy>
  </scstep>
  <scstep>
   <time name="dav">    1.56    1.56</time>
   <time name="total">    1.64    1.64</time>
   <dipole>
    <v name="dipole">      0.00000000       0.00000000      -0.00525882 </v>
    <i name="Tr[quadrupol]">  -8100.63511574 </i>
    <i name="Echarged">      0.00000000 </i>
    <i name="Edipol_quadrupol">      0.00000000 </i>
    <i name="Eion">      0.00000000 </i>
   </dipole>
   <energy>
    <i name="e_fr_energy">   -478.05564311 </i>
    <i name="e_wo_entrp">   -477.97040123 </i>
    <i name="e_0_energy">   -478.01302217 </i>
   </energy>
  </scstep>
  <scstep>
   <time name="dav">    1.62    1.62</time>
   <time name="total">    1.69    1.70</time>
   <dipole>
    <v name="dipole">      0.00000000       0.00000000       0.01628551 </v>
    <i name="Tr[quadrupol]">  -8100.93799096 </i>
    <i name="Echarged">      0.00000000 </i>
    <i name="Edipol_quadrupol">      0.00000000 </i>
    <i name="Eion">      0.00000000 </i>
   </dipole>
   <energy>
    <i name="e_fr_energy">   -478.06072369 </i>
    <i name="e_wo_entrp">   -477.97508838 </i>
    <i name="e_0_energy">   -478.01790603 </i>
   </energy>
  </scstep>
  <scstep>
   <time name="dav">    1.60    1.60</time>
   <time name="total">    1.68    1.68</time>
   <dipole>
    <v name="dipole">      0.00000000       0.00000000       0.03605315 </v>
    <i name="Tr[quadrupol]">  -8101.22844074 </i>
    <i name="Echarged">      0.00000000 </i>
    <i name="Edipol_quadrupol">      0.00000000 </i>
    <i name="Eion">      0.00000000 </i>
   </dipole>
   <energy>
    <i name="e_fr_energy">   -478.06630173 </i>
    <i name="e_wo_entrp">   -477.97783427 </i>
    <i name="e_0_energy">   -478.02206800 </i>
   </energy>
  </scstep>
  <scstep>
   <time name="dav">    1.63    1.63</time>
   <time name="total">    1.71    1.71</time>
   <dipole>
    <v name="dipole">      0.00000000       0.00000000       0.04019346 </v>
    <i name="Tr[quadrupol]">  -8101.39305091 </i>
    <i name="Echarged">      0.00000000 </i>
    <i name="Edipol_quadrupol">      0.00000000 </i>
    <i name="Eion">      0.00000000 </i>
   </dipole>
   <energy>
    <i name="e_fr_energy">   -478.06909308 </i>
    <i name="e_wo_entrp">   -477.98256638 </i>
    <i name="e_0_energy">   -478.02582973 </i>
   </energy>
  </scstep>
  <scstep>
   <time name="dav">    1.58    1.58</time>
   <time name="total">    1.65    1.66</time>
   <dipole>
    <v name="dipole">      0.00000000       0.00000000       0.04773163 </v>
    <i name="Tr[quadrupol]">  -8101.59433820 </i>
    <i name="Echarged">      0.00000000 </i>
    <i name="Edipol_quadrupol">      0.00000000 </i>
    <i name="Eion">      0.00000000 </i>
   </dipole>
   <energy>
    <i name="e_fr_energy">   -478.07218369 </i>
    <i name="e_wo_entrp">   -477.98683382 </i>
    <i name="e_0_energy">   -478.02950876 </i>
   </energy>
  </scstep>
  <scstep>
   <time name="dav">    1.59    1.59</time>
   <time name="total">    1.67    1.67</time>
   <dipole>
    <v name="dipole">      0.00000000       0.00000000       0.07419089 </v>
    <i name="Tr[quadrupol]">  -8101.79775738 </i>
    <i name="Echarged">      0.00000000 </i>
    <i name="Edipol_quadrupol">      0.00000000 </i>
    <i name="Eion">      0.00000000 </i>
   </dipole>
   <energy>
    <i name="e_fr_energy">   -478.07342279 </i>
    <i name="e_wo_entrp">   -477.98761290 </i>
    <i name="e_0_energy">   -478.03051785 </i>
   </energy>
  </scstep>
  <scstep>
   <time name="dav">    1.36    1.36</time>
   <time name="total">    1.45    1.45</time>
   <dipole>
    <v name="dipole">      0.00000000       0.00000000       0.08076011 </v>
    <i name="Tr[quadrupol]">  -8101.86507206 </i>
    <i name="Echarged">      0.00000000 </i>
    <i name="Edipol_quadrupol">      0.00000000 </i>
    <i name="Eion">      0.00000000 </i>
   </dipole>
   <energy>
    <i name="e_fr_energy">   -478.07364886 </i>
    <i name="e_wo_entrp">   -477.98850164 </i>
    <i name="e_0_energy">   -478.03107525 </i>
   </energy>
  </scstep>
  <scstep>
   <time name="dav">    1.27    1.27</time>
   <time name="total">    1.35    1.36</time>
   <dipole>
    <v name="dipole">      0.00000000       0.00000000       0.07731800 </v>
    <i name="Tr[quadrupol]">  -8101.90943589 </i>
    <i name="Echarged">      0.00000000 </i>
    <i name="Edipol_quadrupol">      0.00000000 </i>
    <i name="Eion">      0.00000000 </i>
   </dipole>
   <energy>
    <i name="e_fr_energy">   -478.07404895 </i>
    <i name="e_wo_entrp">   -477.98968486 </i>
    <i name="e_0_energy">   -478.03186690 </i>
   </energy>
  </scstep>
  <scstep>
   <time name="dav">    1.46    1.46</time>
   <time name="total">    1.54    1.54</time>
   <dipole>
    <v name="dipole">      0.00000000       0.00000000       0.07138580 </v>
    <i name="Tr[quadrupol]">  -8101.96558985 </i>
    <i name="Echarged">      0.00000000 </i>
    <i name="Edipol_quadrupol">      0.00000000 </i>
    <i name="Eion">      0.00000000 </i>
   </dipole>
   <energy>
    <i name="e_fr_energy">   -478.07451675 </i>
    <i name="e_wo_entrp">   -477.99056514 </i>
    <i name="e_0_energy">   -478.03254095 </i>
   </energy>
  </scstep>
  <scstep>
   <time name="dav">    1.19    1.19</time>
   <time name="total">    1.27    1.27</time>
   <dipole>
    <v name="dipole">      0.00000000       0.00000000       0.06787893 </v>
    <i name="Tr[quadrupol]">  -8101.97396870 </i>
    <i name="Echarged">      0.00000000 </i>
    <i name="Edipol_quadrupol">      0.00000000 </i>
    <i name="Eion">      0.00000000 </i>
   </dipole>
   <energy>
    <i name="e_fr_energy">   -478.07465003 </i>
    <i name="e_wo_entrp">   -477.99022022 </i>
    <i name="e_0_energy">   -478.03243512 </i>
   </energy>
  </scstep>
  <scstep>
   <time name="dav">    1.26    1.27</time>
   <time name="total">    1.34    1.35</time>
   <dipole>
    <v name="dipole">      0.00000000       0.00000000       0.06345487 </v>
    <i name="Tr[quadrupol]">  -8101.98867787 </i>
    <i name="Echarged">      0.00000000 </i>
    <i name="Edipol_quadrupol">      0.00000000 </i>
    <i name="Eion">      0.00000000 </i>
   </dipole>
   <energy>
    <i name="e_fr_energy">   -478.07484410 </i>
    <i name="e_wo_entrp">   -477.99005018 </i>
    <i name="e_0_energy">   -478.03244714 </i>
   </energy>
  </scstep>
  <scstep>
   <time name="dav">    1.12    1.13</time>
   <time name="total">    1.20    1.21</time>
   <dipole>
    <v name="dipole">      0.00000000       0.00000000       0.06251943 </v>
    <i name="Tr[quadrupol]">  -8101.99303849 </i>
    <i name="Echarged">      0.00000000 </i>
    <i name="Edipol_quadrupol">      0.00000000 </i>
    <i name="Eion">      0.00000000 </i>
   </dipole>
   <energy>
    <i name="e_fr_energy">   -478.07487890 </i>
    <i name="e_wo_entrp">   -477.99006239 </i>
    <i name="e_0_energy">   -478.03247064 </i>
   </energy>
  </scstep>
  <scstep>
   <time name="dav">    1.12    1.12</time>
   <time name="total">    1.20    1.20</time>
   <dipole>
    <v name="dipole">      0.00000000       0.00000000       0.05953850 </v>
    <i name="Tr[quadrupol]">  -8101.98196213 </i>
    <i name="Echarged">      0.00000000 </i>
    <i name="Edipol_quadrupol">      0.00000000 </i>
    <i name="Eion">      0.00000000 </i>
   </dipole>
   <energy>
    <i name="e_fr_energy">   -478.07494803 </i>
    <i name="e_wo_entrp">   -477.99018429 </i>
    <i name="e_0_energy">   -478.03256616 </i>
   </energy>
  </scstep>
  <scstep>
   <time name="dav">    1.14    1.14</time>
   <time name="total">    1.22    1.22</time>
   <dipole>
    <v name="dipole">      0.00000000       0.00000000       0.05751545 </v>
    <i name="Tr[quadrupol]">  -8101.97440806 </i>
    <i name="Echarged">      0.00000000 </i>
    <i name="Edipol_quadrupol">      0.00000000 </i>
    <i name="Eion">      0.00000000 </i>
   </dipole>
   <energy>
    <i name="e_fr_energy">   -478.07501760 </i>
    <i name="e_wo_entrp">   -477.99003871 </i>
    <i name="e_0_energy">   -478.03252815 </i>
   </energy>
  </scstep>
  <scstep>
   <time name="dav">    1.11    1.11</time>
   <time name="total">    1.19    1.19</time>
   <dipole>
    <v name="dipole">      0.00000000       0.00000000       0.05633497 </v>
    <i name="Tr[quadrupol]">  -8101.97100272 </i>
    <i name="Echarged">      0.00000000 </i>
    <i name="Edipol_quadrupol">      0.00000000 </i>
    <i name="Eion">      0.00000000 </i>
   </dipole>
   <energy>
    <i name="e_fr_energy">   -478.07503946 </i>
    <i name="e_wo_entrp">   -477.99020276 </i>
    <i name="e_0_energy">   -478.03262111 </i>
   </energy>
  </scstep>
  <scstep>
   <time name="dav">    1.08    1.08</time>
   <time name="total">    1.16    1.16</time>
   <dipole>
    <v name="dipole">      0.00000000       0.00000000       0.05584261 </v>
    <i name="Tr[quadrupol]">  -8101.96422457 </i>
    <i name="Echarged">      0.00000000 </i>
    <i name="Edipol_quadrupol">      0.00000000 </i>
    <i name="Eion">      0.00000000 </i>
   </dipole>
   <energy>
    <i name="e_fr_energy">   -478.07505151 </i>
    <i name="e_wo_entrp">   -477.99018559 </i>
    <i name="e_0_energy">   -478.03261855 </i>
   </energy>
  </scstep>
  <scstep>
   <time name="dav">    1.11    1.11</time>
   <time name="total">    1.14    1.14</time>
   <dipole>
    <v name="dipole">      0.00000000       0.00000000       0.05584082 </v>
    <i name="Tr[quadrupol]">  -8101.96583889 </i>
    <i name="Echarged">      0.00000000 </i>
    <i name="Edipol_quadrupol">      0.00000000 </i>
    <i name="Eion">      0.00000000 </i>
   </dipole>
   <energy>
    <i name="alphaZ">    173.58941115 </i>
    <i name="ewald">  28784.59497549 </i>
    <i name="hartreedc"> -41791.33418502 </i>
    <i name="XCdc">    937.42317394 </i>
    <i name="pawpsdc">  30990.28083079 </i>
    <i name="pawaedc"> -30909.55281724 </i>
    <i name="eentropy">     -0.08489770 </i>
    <i name="bandstr">  -3541.50574703 </i>
    <i name="atom">  14878.51419950 </i>
    <i name="e_fr_energy">   -478.07505613 </i>
    <i name="e_wo_entrp">   -477.99015843 </i>
    <i name="e_0_energy">   -478.03260728 </i>
   </energy>
  </scstep>
  <structure>
   <crystal>
    <varray name="basis" >
     <v>      13.75970367       0.00000000       0.00000000 </v>
     <v>       0.00000000      11.28669971       0.00000000 </v>
     <v>       0.00000000       0.00000000      15.00000000 </v>
    </varray>
    <i name="volume">   2329.52465126 </i>
    <varray name="rec_basis" >
     <v>       0.07267598       0.00000000       0.00000000 </v>
     <v>       0.00000000       0.08859986       0.00000000 </v>
     <v>       0.00000000       0.00000000       0.06666667 </v>
    </varray>
   </crystal>
   <varray name="positions" >
    <v>       0.07054120       0.38816457       0.22227495 </v>
    <v>       0.98151180       0.21832942       0.16785344 </v>
    <v>       0.22877304       0.39667288       0.18904348 </v>
    <v>       0.82472337       0.57572318       0.18403191 </v>
    <v>       0.14970601       0.24663792       0.12277753 </v>
    <v>       0.90758628       0.38434512       0.21811946 </v>
    <v>       0.56886571       0.39316130       0.23173729 </v>
    <v>       0.47768100       0.22391730       0.18017943 </v>
    <v>       0.73035049       0.39802658       0.19909345 </v>
    <v>       0.31101118       0.58132963       0.17977696 </v>
    <v>       0.64681854       0.25040749       0.13377315 </v>
    <v>       0.40275100       0.39355427       0.22106508 </v>
    <v>       0.81808056       0.88988957       0.05647519 </v>
    <v>       0.73319531       0.72568325       0.12448457 </v>
    <v>       0.97932824       0.89597624       0.07999408 </v>
    <v>       0.06867909       0.07698375       0.09423854 </v>
    <v>       0.90528082       0.74258583       0.14719628 </v>
    <v>       0.65472406       0.89333727       0.07691603 </v>
    <v>       0.31825350       0.89473226       0.05377466 </v>
    <v>       0.22716619       0.72126926       0.10084126 </v>
    <v>       0.47498917       0.90396535       0.09489577 </v>
    <v>       0.56592959       0.08075138       0.11024766 </v>
    <v>       0.38612516       0.76037560       0.16363174 </v>
    <v>       0.15509033       0.88950396       0.05271529 </v>
    <v>       0.98784551       0.43883046       0.24713656 </v>
    <v>       0.89991795       0.26975381       0.19549767 </v>
    <v>       0.15759857       0.43325808       0.24240148 </v>
    <v>       0.14788829       0.14353661       0.08017307 </v>
    <v>       0.98633649       0.10796021       0.13653167 </v>
    <v>       0.22915942       0.31533454       0.12527490 </v>
    <v>       0.06735802       0.28598388       0.16888911 </v>
    <v>       0.82274912       0.45552252       0.21014877 </v>
    <v>       0.48493735       0.44793349       0.25146232 </v>
    <v>       0.39648714       0.27665554       0.20625030 </v>
    <v>       0.65756919       0.43524210       0.25419888 </v>
    <v>       0.64488604       0.14640144       0.09374788 </v>
    <v>       0.48286722       0.11321356       0.15081376 </v>
    <v>       0.72606390       0.31870920       0.13454719 </v>
    <v>       0.56470606       0.29135323       0.18008364 </v>
    <v>       0.31888640       0.46086995       0.20329135 </v>
    <v>       0.73287748       0.94248397       0.03965616 </v>
    <v>       0.64891188       0.78317499       0.11254597 </v>
    <v>       0.90382696       0.93469024       0.03189926 </v>
    <v>       0.90701680       0.63807548       0.18754912 </v>
    <v>       0.73647441       0.61699787       0.15934394 </v>
    <v>       0.98321706       0.81212363       0.14197152 </v>
    <v>       0.81925020       0.78400528       0.10639513 </v>
    <v>       0.56804185       0.96074410       0.08520074 </v>
    <v>       0.23699719       0.94478449       0.02657725 </v>
    <v>       0.14820250       0.77173059       0.06843984 </v>
    <v>       0.40793432       0.93556381       0.03646331 </v>
    <v>       0.38047481       0.65838217       0.20939239 </v>
    <v>       0.23501053       0.60894863       0.12850628 </v>
    <v>       0.46527775       0.83024755       0.16578047 </v>
    <v>       0.31113112       0.79334051       0.10891910 </v>
    <v>       0.06990262       0.95754122       0.06514651 </v>
    <v>       0.57736557       0.77647674       0.24193941 </v>
    <v>       0.65582252       0.60772566       0.29790490 </v>
    <v>       0.48700699       0.61617049       0.29396059 </v>
   </varray>
  </structure>
  <varray name="forces" >
   <v>       0.01404272      -0.01357918      -0.02672222 </v>
   <v>       0.04197805       0.09757549       0.02989671 </v>
   <v>       0.02294099       0.05528478      -0.01548607 </v>
   <v>       0.31321686      -0.00481220       0.02014949 </v>
   <v>       0.03221952       0.11870058       0.06458994 </v>
   <v>       0.03399472       0.05564182       0.01848072 </v>
   <v>      -0.09032407      -0.17111909      -0.08442028 </v>
   <v>       0.09851464       0.20811523       0.07133015 </v>
   <v>      -0.10714044       0.15733382       0.22826544 </v>
   <v>      -0.22997886      -0.01119378      -0.07114209 </v>
   <v>       0.04920587       0.31465059       0.06638336 </v>
   <v>       0.10579986       0.06806960       0.04551530 </v>
   <v>       0.08784948       0.06414271      -0.00482759 </v>
   <v>       0.34391942       0.11414933      -0.30185415 </v>
   <v>       0.03064920       0.09572970      -0.02980336 </v>
   <v>       0.00480408       0.12579611      -0.01005555 </v>
   <v>       0.08944139       0.20786506      -0.04623585 </v>
   <v>       0.12234904       0.13780291      -0.13728829 </v>
   <v>      -0.07453763      -0.00479132       0.00754775 </v>
   <v>       0.07111450       0.16803828      -0.01353517 </v>
   <v>      -0.00658350       0.11831055       0.00494419 </v>
   <v>       0.04058144       0.27270421      -0.04100456 </v>
   <v>      -0.21728648       0.11392363      -0.24847873 </v>
   <v>      -0.11583735       0.04687461       0.00783493 </v>
   <v>       0.01931223      -0.01017645      -0.01955369 </v>
   <v>      -0.03956912      -0.01043948       0.01074739 </v>
   <v>       0.03183379       0.00361413      -0.00494212 </v>
   <v>      -0.05978233      -0.08850998      -0.02036463 </v>
   <v>       0.06093536      -0.03570596      -0.03413023 </v>
   <v>      -0.01011072      -0.08736073      -0.07099317 </v>
   <v>      -0.01913953      -0.01728238       0.01956237 </v>
   <v>      -0.00104094      -0.09776303       0.06570586 </v>
   <v>      -0.25838417      -1.07353673      -0.57972643 </v>
   <v>       0.01376311      -0.15713361       0.11178032 </v>
   <v>       0.31277917      -1.97166733      -0.52381476 </v>
   <v>      -0.11812382      -0.21369408      -0.02815200 </v>
   <v>       0.04134074      -0.16958484      -0.06348330 </v>
   <v>      -0.17445946      -0.19448111      -0.27367147 </v>
   <v>      -0.12720830      -0.21272899      -0.12719413 </v>
   <v>      -0.09906878      -0.04934588      -0.11691723 </v>
   <v>      -0.02007986       0.00106805       0.03805227 </v>
   <v>       0.61668761       0.04619636      -1.21261636 </v>
   <v>      -0.05239326      -0.02522018       0.03321160 </v>
   <v>      -0.13492367      -0.22564547       0.04301208 </v>
   <v>       0.24103526       0.03651782      -0.57491083 </v>
   <v>      -0.07283059      -0.16656557       0.01323196 </v>
   <v>      -0.15711130      -0.13615210       0.12064814 </v>
   <v>      -0.04742173      -0.15845561      -0.05967977 </v>
   <v>       0.10515990      -0.01903379       0.05206282 </v>
   <v>      -0.04757840      -0.02247548      -0.06792436 </v>
   <v>       0.08675236      -0.05172615      -0.01535000 </v>
   <v>      -1.01065528       0.05634877      -0.85352405 </v>
   <v>       0.06123334      -0.02640188       0.12465743 </v>
   <v>      -1.80880097       0.78562163      -1.22101843 </v>
   <v>      -0.05615071      -0.07158387      -0.00298952 </v>
   <v>      -0.01051772      -0.13647830      -0.03017640 </v>
   <v>       1.29171365       4.15828075       0.77898083 </v>
   <v>       4.15136698      -0.64722490       2.73412420 </v>
   <v>      -3.36949627      -1.34648706       2.22127151 </v>
  </varray>
  <varray name="stress" >
   <v>       6.08302021       3.78819366       1.41252836 </v>
   <v>       3.78819366       4.20060371      -2.37251645 </v>
   <v>       1.41252834      -2.37251647      -6.19301666 </v>
  </varray>
  <energy>
   <i name="e_fr_energy">   -478.07505613 </i>
   <i name="e_wo_entrp">   -477.99015843 </i>
   <i name="e_0_energy">   -478.03260728 </i>
  </energy>
  <time name="totalsc">   50.81   50.93</time>
 </calculation>
 <calculation>
  <scstep>
   <time name="dav">    1.44    1.45</time>
   <time name="total">    1.51    1.52</time>
   <dipole>
    <v name="dipole">      0.00000000       0.00000000       0.05590920 </v>
    <i name="Tr[quadrupol]">  -8108.14708498 </i>
    <i name="Echarged">      0.00000000 </i>
    <i name="Edipol_quadrupol">      0.00000000 </i>
    <i name="Eion">      0.00000000 </i>
   </dipole>
   <energy>
    <i name="alphaZ">    173.16466544 </i>
    <i name="ewald">  28604.96648254 </i>
    <i name="hartreedc"> -41606.74411246 </i>
    <i name="XCdc">    936.42375337 </i>
    <i name="pawpsdc">  30990.28896172 </i>
    <i name="pawaedc"> -30909.56095905 </i>
    <i name="eentropy">     -0.04399906 </i>
    <i name="bandstr">  -3545.74749741 </i>
    <i name="atom">  14878.51419950 </i>
    <i name="e_fr_energy">   -478.73850542 </i>
    <i name="e_wo_entrp">   -478.69450636 </i>
    <i name="e_0_energy">   -478.71650589 </i>
   </energy>
  </scstep>
  <scstep>
   <time name="dav">    1.59    1.60</time>
   <time name="total">    1.68    1.68</time>
   <dipole>
    <v name="dipole">      0.00000000       0.00000000       0.12744862 </v>
    <i name="Tr[quadrupol]">  -8108.10567379 </i>
    <i name="Echarged">      0.00000000 </i>
    <i name="Edipol_quadrupol">      0.00000000 </i>
    <i name="Eion">      0.00000000 </i>
   </dipole>
   <energy>
    <i name="e_fr_energy">   -479.48436980 </i>
    <i name="e_wo_entrp">   -479.39669520 </i>
    <i name="e_0_energy">   -479.44053250 </i>
   </energy>
  </scstep>
  <scstep>
   <time name="dav">    1.54    1.55</time>
   <time name="total">    1.62    1.62</time>
   <dipole>
    <v name="dipole">      0.00000000       0.00000000       0.05468447 </v>
    <i name="Tr[quadrupol]">  -8108.16997055 </i>
    <i name="Echarged">      0.00000000 </i>
    <i name="Edipol_quadrupol">      0.00000000 </i>
    <i name="Eion">      0.00000000 </i>
   </dipole>
   <energy>
    <i name="e_fr_energy">   -478.74185211 </i>
    <i name="e_wo_entrp">   -478.66847582 </i>
    <i name="e_0_energy">   -478.70516396 </i>
   </energy>
  </scstep>
  <scstep>
   <time name="dav">    1.58    1.58</time>
   <time name="total">    1.66    1.67</time>
   <dipole>
    <v name="dipole">      0.00000000       0.00000000       0.06134195 </v>
    <i name="Tr[quadrupol]">  -8108.16950325 </i>
    <i name="Echarged">      0.00000000 </i>
    <i name="Edipol_quadrupol">      0.00000000 </i>
    <i name="Eion">      0.00000000 </i>
   </dipole>
   <energy>
    <i name="e_fr_energy">   -478.74308551 </i>
    <i name="e_wo_entrp">   -478.65257600 </i>
    <i name="e_0_energy">   -478.69783076 </i>
   </energy>
  </scstep>
  <scstep>
   <time name="dav">    1.58    1.58</time>
   <time name="total">    1.67    1.67</time>
   <dipole>
    <v name="dipole">      0.00000000       0.00000000       0.06955411 </v>
    <i name="Tr[quadrupol]">  -8108.14731175 </i>
    <i name="Echarged">      0.00000000 </i>
    <i name="Edipol_quadrupol">      0.00000000 </i>
    <i name="Eion">      0.00000000 </i>
   </dipole>
   <energy>
    <i name="e_fr_energy">   -478.73143990 </i>
    <i name="e_wo_entrp">   -478.65556555 </i>
    <i name="e_0_energy">   -478.69350272 </i>
   </energy>
  </scstep>
  <scstep>
   <time name="dav">    1.60    1.60</time>
   <time name="total">    1.67    1.68</time>
   <dipole>
    <v name="dipole">      0.00000000       0.00000000       0.06022949 </v>
    <i name="Tr[quadrupol]">  -8108.15283807 </i>
    <i name="Echarged">      0.00000000 </i>
    <i name="Edipol_quadrupol">      0.00000000 </i>
    <i name="Eion">      0.00000000 </i>
   </dipole>
   <energy>
    <i name="e_fr_energy">   -478.73748365 </i>
    <i name="e_wo_entrp">   -478.67408063 </i>
    <i name="e_0_energy">   -478.70578214 </i>
   </energy>
  </scstep>
  <scstep>
   <time name="dav">    1.52    1.53</time>
   <time name="total">    1.60    1.61</time>
   <dipole>
    <v name="dipole">      0.00000000       0.00000000       0.05949776 </v>
    <i name="Tr[quadrupol]">  -8108.16342824 </i>
    <i name="Echarged">      0.00000000 </i>
    <i name="Edipol_quadrupol">      0.00000000 </i>
    <i name="Eion">      0.00000000 </i>
   </dipole>
   <energy>
    <i name="e_fr_energy">   -478.72955959 </i>
    <i name="e_wo_entrp">   -478.65933617 </i>
    <i name="e_0_energy">   -478.69444788 </i>
   </energy>
  </scstep>
  <scstep>
   <time name="dav">    1.61    1.61</time>
   <time name="total">    1.68    1.68</time>
   <dipole>
    <v name="dipole">      0.00000000       0.00000000       0.05715413 </v>
    <i name="Tr[quadrupol]">  -8108.16901053 </i>
    <i name="Echarged">      0.00000000 </i>
    <i name="Edipol_quadrupol">      0.00000000 </i>
    <i name="Eion">      0.00000000 </i>
   </dipole>
   <energy>
    <i name="e_fr_energy">   -478.72668599 </i>
    <i name="e_wo_entrp">   -478.65456034 </i>
    <i name="e_0_energy">   -478.69062317 </i>
   </energy>
  </scstep>
  <scstep>
   <time name="dav">    1.63    1.63</time>
   <time name="total">    1.70    1.70</time>
   <dipole>
    <v name="dipole">      0.00000000       0.00000000       0.05542585 </v>
    <i name="Tr[quadrupol]">  -8108.17405038 </i>
    <i name="Echarged">      0.00000000 </i>
    <i name="Edipol_quadrupol">      0.00000000 </i>
    <i name="Eion">      0.00000000 </i>
   </dipole>
   <energy>
    <i name="e_fr_energy">   -478.72503852 </i>
    <i name="e_wo_entrp">   -478.64916016 </i>
    <i name="e_0_energy">   -478.68709934 </i>
   </energy>
  </scstep>
  <scstep>
   <time name="dav">    1.60    1.60</time>
   <time name="total">    1.68    1.68</time>
   <dipole>
    <v name="dipole">      0.00000000       0.00000000       0.05396812 </v>
    <i name="Tr[quadrupol]">  -8108.17878047 </i>
    <i name="Echarged">      0.00000000 </i>
    <i name="Edipol_quadrupol">      0.00000000 </i>
    <i name="Eion">      0.00000000 </i>
   </dipole>
   <energy>
    <i name="e_fr_energy">   -478.72492002 </i>
    <i name="e_wo_entrp">   -478.64751575 </i>
    <i name="e_0_energy">   -478.68621788 </i>
   </energy>
  </scstep>
  <scstep>
   <time name="dav">    1.62    1.62</time>
   <time name="total">    1.70    1.70</time>
   <dipole>
    <v name="dipole">      0.00000000       0.00000000       0.05297039 </v>
    <i name="Tr[quadrupol]">  -8108.18205302 </i>
    <i name="Echarged">      0.00000000 </i>
    <i name="Edipol_quadrupol">      0.00000000 </i>
    <i name="Eion">      0.00000000 </i>
   </dipole>
   <energy>
    <i name="e_fr_energy">   -478.72492360 </i>
    <i name="e_wo_entrp">   -478.64643724 </i>
    <i name="e_0_energy">   -478.68568042 </i>
   </energy>
  </scstep>
  <scstep>
   <time name="dav">    1.21    1.21</time>
   <time name="total">    1.29    1.29</time>
   <dipole>
    <v name="dipole">      0.00000000       0.00000000       0.05237176 </v>
    <i name="Tr[quadrupol]">  -8108.18429677 </i>
    <i name="Echarged">      0.00000000 </i>
    <i name="Edipol_quadrupol">      0.00000000 </i>
    <i name="Eion">      0.00000000 </i>
   </dipole>
   <energy>
    <i name="e_fr_energy">   -478.72496971 </i>
    <i name="e_wo_entrp">   -478.64645467 </i>
    <i name="e_0_energy">   -478.68571219 </i>
   </energy>
  </scstep>
  <scstep>
   <time name="dav">    1.21    1.21</time>
   <time name="total">    1.24    1.24</time>
   <dipole>
    <v name="dipole">      0.00000000       0.00000000       0.05131125 </v>
    <i name="Tr[quadrupol]">  -8108.18831622 </i>
    <i name="Echarged">      0.00000000 </i>
    <i name="Edipol_quadrupol">      0.00000000 </i>
    <i name="Eion">      0.00000000 </i>
   </dipole>
   <energy>
    <i name="alphaZ">    173.14630695 </i>
    <i name="ewald">  28604.96648254 </i>
    <i name="hartreedc"> -41618.05651991 </i>
    <i name="XCdc">    936.85279280 </i>
    <i name="pawpsdc">  30851.54665002 </i>
    <i name="pawaedc"> -30769.39027909 </i>
    <i name="eentropy">     -0.07911218 </i>
    <i name="bandstr">  -3536.22549949 </i>
    <i name="atom">  14878.51419950 </i>
    <i name="e_fr_energy">   -478.72497886 </i>
    <i name="e_wo_entrp">   -478.64586668 </i>
    <i name="e_0_energy">   -478.68542277 </i>
   </energy>
  </scstep>
  <structure>
   <crystal>
    <varray name="basis" >
     <v>      13.77960556       0.00000000       0.00000000 </v>
     <v>       0.00000000      11.29797284       0.00000000 </v>
     <v>       0.00000000       0.00000000      15.00000000 </v>
    </varray>
    <i name="volume">   2335.22414017 </i>
    <varray name="rec_basis" >
     <v>       0.07257102       0.00000000       0.00000000 </v>
     <v>       0.00000000       0.08851145       0.00000000 </v>
     <v>       0.00000000       0.00000000       0.06666667 </v>
    </varray>
   </crystal>
   <varray name="positions" >
    <v>       0.07055105       0.38815297       0.22225776 </v>
    <v>       0.98154124       0.21841284       0.16787267 </v>
    <v>       0.22878912       0.39672014       0.18903352 </v>
    <v>       0.82494300       0.57571906       0.18404487 </v>
    <v>       0.14972860       0.24673939       0.12281907 </v>
    <v>       0.90761012       0.38439268       0.21813135 </v>
    <v>       0.56880237       0.39301502       0.23168299 </v>
    <v>       0.47775008       0.22409520       0.18022531 </v>
    <v>       0.73027536       0.39816108       0.19924028 </v>
    <v>       0.31084992       0.58132006       0.17973119 </v>
    <v>       0.64685305       0.25067647       0.13381585 </v>
    <v>       0.40282519       0.39361246       0.22109435 </v>
    <v>       0.81814217       0.88994440       0.05647209 </v>
    <v>       0.73343647       0.72578083       0.12429041 </v>
    <v>       0.97934973       0.89605807       0.07997491 </v>
    <v>       0.06868246       0.07709129       0.09423207 </v>
    <v>       0.90534354       0.74276352       0.14716654 </v>
    <v>       0.65480985       0.89345508       0.07682772 </v>
    <v>       0.31820123       0.89472817       0.05377951 </v>
    <v>       0.22721605       0.72141291       0.10083255 </v>
    <v>       0.47498455       0.90406649       0.09489895 </v>
    <v>       0.56595805       0.08098450       0.11022129 </v>
    <v>       0.38597279       0.76047298       0.16347191 </v>
    <v>       0.15500910       0.88954403       0.05272032 </v>
    <v>       0.98785906       0.43882176       0.24712398 </v>
    <v>       0.89989020       0.26974489       0.19550459 </v>
    <v>       0.15762089       0.43326117       0.24239830 </v>
    <v>       0.14784637       0.14346095       0.08015997 </v>
    <v>       0.98637922       0.10792969       0.13650972 </v>
    <v>       0.22915233       0.31525986       0.12522924 </v>
    <v>       0.06734459       0.28596911       0.16890169 </v>
    <v>       0.82274839       0.45543894       0.21019104 </v>
    <v>       0.48475617       0.44701577       0.25108942 </v>
    <v>       0.39649680       0.27652121       0.20632220 </v>
    <v>       0.65778851       0.43355660       0.25386195 </v>
    <v>       0.64480321       0.14621876       0.09372977 </v>
    <v>       0.48289621       0.11306859       0.15077292 </v>
    <v>       0.72594157       0.31854294       0.13437116 </v>
    <v>       0.56461686       0.29117138       0.18000182 </v>
    <v>       0.31881694       0.46082777       0.20321615 </v>
    <v>       0.73286340       0.94248488       0.03968064 </v>
    <v>       0.64934431       0.78321448       0.11176597 </v>
    <v>       0.90379022       0.93466868       0.03192062 </v>
    <v>       0.90692219       0.63788259       0.18757679 </v>
    <v>       0.73664343       0.61702908       0.15897413 </v>
    <v>       0.98316599       0.81198124       0.14198003 </v>
    <v>       0.81914003       0.78388889       0.10647273 </v>
    <v>       0.56800859       0.96060864       0.08516235 </v>
    <v>       0.23707093       0.94476822       0.02661074 </v>
    <v>       0.14816914       0.77171138       0.06839615 </v>
    <v>       0.40799515       0.93551959       0.03645344 </v>
    <v>       0.37976612       0.65843034       0.20884338 </v>
    <v>       0.23505347       0.60892606       0.12858647 </v>
    <v>       0.46400939       0.83091914       0.16499507 </v>
    <v>       0.31109175       0.79327931       0.10891718 </v>
    <v>       0.06989525       0.95742455       0.06512710 </v>
    <v>       0.57827134       0.78003148       0.24244048 </v>
    <v>       0.65873352       0.60717237       0.29966358 </v>
    <v>       0.48464424       0.61501943       0.29538939 </v>
   </varray>
  </structure>
  <varray name="forces" >
   <v>       0.02488487       0.00884254      -0.02252187 </v>
   <v>       0.02146338       0.04699302       0.00864247 </v>
   <v>       0.01829797       0.02308468      -0.02666122 </v>
   <v>       0.11071381       0.03788060      -0.09064695 </v>
   <v>       0.01254566       0.02194411       0.01706562 </v>
   <v>       0.02755538       0.01567106       0.00306833 </v>
   <v>      -0.06946894      -0.38029485      -0.23701799 </v>
   <v>       0.09685982       0.01768797      -0.01685175 </v>
   <v>       0.02344954      -0.17130549      -0.13207286 </v>
   <v>      -0.27115340      -0.00376042      -0.14384997 </v>
   <v>      -0.03901686       0.07170707      -0.03202786 </v>
   <v>      -0.03320771      -0.16038621      -0.05665101 </v>
   <v>       0.00052999       0.04461116       0.03022766 </v>
   <v>       0.31210515       0.06765769      -0.28523652 </v>
   <v>      -0.00640432       0.02239879      -0.00968958 </v>
   <v>       0.01687122       0.09253451      -0.01286555 </v>
   <v>      -0.00453393       0.01479504       0.03985434 </v>
   <v>       0.15911190       0.09285035      -0.18029996 </v>
   <v>       0.03603287      -0.01703554       0.04252943 </v>
   <v>       0.05124586       0.09999419      -0.00311661 </v>
   <v>      -0.17772862       0.24094628      -0.25433378 </v>
   <v>       0.02240308       0.14477764      -0.05088441 </v>
   <v>      -0.46647312       0.04580603      -0.37087193 </v>
   <v>      -0.02318398       0.01330657       0.00449086 </v>
   <v>       0.02446633      -0.05224111      -0.05598441 </v>
   <v>       0.05495335       0.02443763      -0.00033753 </v>
   <v>      -0.02341017      -0.03186235      -0.05175603 </v>
   <v>      -0.08384315      -0.00415647       0.03542150 </v>
   <v>       0.08297927       0.05916942      -0.01249054 </v>
   <v>      -0.05550392      -0.06681055      -0.01309193 </v>
   <v>      -0.01105210      -0.00130453       0.02996262 </v>
   <v>       0.01053101      -0.08585720       0.08741964 </v>
   <v>      -0.04904533      -0.63859213      -0.40941856 </v>
   <v>       0.02474965      -0.08875602       0.10994600 </v>
   <v>       0.13365852      -1.32880466      -0.12528727 </v>
   <v>      -0.10627853      -0.04727761       0.03541820 </v>
   <v>       0.04664580       0.00669458      -0.00327711 </v>
   <v>      -0.09777802      -0.04081701      -0.17205607 </v>
   <v>      -0.11237278      -0.17889231      -0.14126159 </v>
   <v>      -0.08515373      -0.06489815      -0.10367062 </v>
   <v>       0.08179047       0.04552177       0.04042683 </v>
   <v>       0.39382756      -0.04969373      -1.02676519 </v>
   <v>      -0.01533356      -0.03770507       0.07638281 </v>
   <v>      -0.05555376      -0.04544479      -0.01016247 </v>
   <v>       0.26953948      -0.05747529      -0.45758393 </v>
   <v>      -0.06953115      -0.08355621      -0.07057760 </v>
   <v>       0.01082375       0.00578559       0.06397858 </v>
   <v>      -0.02121126      -0.06185415      -0.04386237 </v>
   <v>      -0.01797651      -0.04100264       0.08028783 </v>
   <v>       0.02535369       0.02692449      -0.04039475 </v>
   <v>      -0.04741968      -0.01803696      -0.11026183 </v>
   <v>      -0.62714154       0.06999841      -0.60052046 </v>
   <v>      -0.05002744       0.07316724      -0.00020487 </v>
   <v>      -1.08246211       0.45058320      -0.57406317 </v>
   <v>      -0.22255611      -0.02152889      -0.16108994 </v>
   <v>      -0.00839681      -0.07006541      -0.01438887 </v>
   <v>       1.00462772       2.78367308       1.19729728 </v>
   <v>       2.67823135      -0.13391266       2.32714537 </v>
   <v>      -1.84302994      -0.68611630       1.89454155 </v>
  </varray>
  <varray name="stress" >
   <v>       1.54070756       3.98547367       1.68703431 </v>
   <v>       3.98547368       0.10850594      -1.55205992 </v>
   <v>       1.68703431      -1.55205991      -6.62491153 </v>
  </varray>
  <energy>
   <i name="e_fr_energy">   -478.72497886 </i>
   <i name="e_wo_entrp">   -478.64586668 </i>
   <i name="e_0_energy">   -478.68542277 </i>
  </energy>
  <time name="totalsc">   21.97   22.02</time>
 </calculation>
 <calculation>
  <scstep>
   <time name="dav">    1.44    1.44</time>
   <time name="total">    1.51    1.51</time>
   <dipole>
    <v name="dipole">      0.00000000       0.00000000       0.05101627 </v>
    <i name="Tr[quadrupol]">  -8127.13746634 </i>
    <i name="Echarged">      0.00000000 </i>
    <i name="Edipol_quadrupol">      0.00000000 </i>
    <i name="Eion">      0.00000000 </i>
   </dipole>
   <energy>
    <i name="alphaZ">    171.87996315 </i>
    <i name="ewald">  28089.95799971 </i>
    <i name="hartreedc"> -41084.78711263 </i>
    <i name="XCdc">    934.02070982 </i>
    <i name="pawpsdc">  30851.56602354 </i>
    <i name="pawaedc"> -30769.41180221 </i>
    <i name="eentropy">     -0.03305118 </i>
    <i name="bandstr">  -3550.89712031 </i>
    <i name="atom">  14878.51419950 </i>
    <i name="e_fr_energy">   -479.19019060 </i>
    <i name="e_wo_entrp">   -479.15713942 </i>
    <i name="e_0_energy">   -479.17366501 </i>
   </energy>
  </scstep>
  <scstep>
   <time name="dav">    1.57    1.57</time>
   <time name="total">    1.65    1.65</time>
   <dipole>
    <v name="dipole">      0.00000000       0.00000000       0.11298159 </v>
    <i name="Tr[quadrupol]">  -8127.10462420 </i>
    <i name="Echarged">      0.00000000 </i>
    <i name="Edipol_quadrupol">      0.00000000 </i>
    <i name="Eion">      0.00000000 </i>
   </dipole>
   <energy>
    <i name="e_fr_energy">   -480.69611769 </i>
    <i name="e_wo_entrp">   -480.60696497 </i>
    <i name="e_0_energy">   -480.65154133 </i>
   </energy>
  </scstep>
  <scstep>
   <time name="dav">    1.55    1.55</time>
   <time name="total">    1.62    1.62</time>
   <dipole>
    <v name="dipole">      0.00000000       0.00000000       0.01545814 </v>
    <i name="Tr[quadrupol]">  -8127.22292560 </i>
    <i name="Echarged">      0.00000000 </i>
    <i name="Edipol_quadrupol">      0.00000000 </i>
    <i name="Eion">      0.00000000 </i>
   </dipole>
   <energy>
    <i name="e_fr_energy">   -479.47296250 </i>
    <i name="e_wo_entrp">   -479.43310131 </i>
    <i name="e_0_energy">   -479.45303190 </i>
   </energy>
  </scstep>
  <scstep>
   <time name="dav">    1.56    1.56</time>
   <time name="total">    1.64    1.64</time>
   <dipole>
    <v name="dipole">      0.00000000       0.00000000       0.01759353 </v>
    <i name="Tr[quadrupol]">  -8127.24628988 </i>
    <i name="Echarged">      0.00000000 </i>
    <i name="Edipol_quadrupol">      0.00000000 </i>
    <i name="Eion">      0.00000000 </i>
   </dipole>
   <energy>
    <i name="e_fr_energy">   -479.41130050 </i>
    <i name="e_wo_entrp">   -479.33011356 </i>
    <i name="e_0_energy">   -479.37070703 </i>
   </energy>
  </scstep>
  <scstep>
   <time name="dav">    1.72    1.72</time>
   <time name="total">    1.79    1.79</time>
   <dipole>
    <v name="dipole">      0.00000000       0.00000000       0.04494010 </v>
    <i name="Tr[quadrupol]">  -8127.26214158 </i>
    <i name="Echarged">      0.00000000 </i>
    <i name="Edipol_quadrupol">      0.00000000 </i>
    <i name="Eion">      0.00000000 </i>
   </dipole>
   <energy>
    <i name="e_fr_energy">   -479.40567485 </i>
    <i name="e_wo_entrp">   -479.31493183 </i>
    <i name="e_0_energy">   -479.36030334 </i>
   </energy>
  </scstep>
  <scstep>
   <time name="dav">    1.60    1.60</time>
   <time name="total">    1.67    1.68</time>
   <dipole>
    <v name="dipole">      0.00000000       0.00000000       0.00008476 </v>
    <i name="Tr[quadrupol]">  -8127.29277067 </i>
    <i name="Echarged">      0.00000000 </i>
    <i name="Edipol_quadrupol">      0.00000000 </i>
    <i name="Eion">      0.00000000 </i>
   </dipole>
   <energy>
    <i name="e_fr_energy">   -479.38884066 </i>
    <i name="e_wo_entrp">   -479.31772147 </i>
    <i name="e_0_energy">   -479.35328106 </i>
   </energy>
  </scstep>
  <scstep>
   <time name="dav">    1.53    1.53</time>
   <time name="total">    1.61    1.61</time>
   <dipole>
    <v name="dipole">      0.00000000       0.00000000       0.00928568 </v>
    <i name="Tr[quadrupol]">  -8127.29517291 </i>
    <i name="Echarged">      0.00000000 </i>
    <i name="Edipol_quadrupol">      0.00000000 </i>
    <i name="Eion">      0.00000000 </i>
   </dipole>
   <energy>
    <i name="e_fr_energy">   -479.37745993 </i>
    <i name="e_wo_entrp">   -479.30348756 </i>
    <i name="e_0_energy">   -479.34047375 </i>
   </energy>
  </scstep>
  <scstep>
   <time name="dav">    1.58    1.58</time>
   <time name="total">    1.65    1.66</time>
   <dipole>
    <v name="dipole">      0.00000000       0.00000000       0.00557612 </v>
    <i name="Tr[quadrupol]">  -8127.30080379 </i>
    <i name="Echarged">      0.00000000 </i>
    <i name="Edipol_quadrupol">      0.00000000 </i>
    <i name="Eion">      0.00000000 </i>
   </dipole>
   <energy>
    <i name="e_fr_energy">   -479.37486216 </i>
[...]
       <r>    1.8945    0.0000 </r>
       <r>    1.9196    0.0000 </r>
       <r>    2.0070    0.0000 </r>
       <r>    2.0616    0.0000 </r>
       <r>    2.1190    0.0000 </r>
       <r>    2.4722    0.0000 </r>
       <r>    2.5735    0.0000 </r>
       <r>    2.6855    0.0000 </r>
       <r>    2.7102    0.0000 </r>
      </set>
     </set>
    </set>
   </array>
  </eigenvalues>
  <separator name="orbital magnetization" >
   <v name="MAGDIPOLOUT">      0.00000000      0.00000000      0.00000000</v>
  </separator>
  <dos>
   <i name="efermi">     -1.99881277 </i>
   <total>
    <array>
     <dimension dim="1">gridpoints</dimension>
     <dimension dim="2">spin</dimension>
     <field>energy</field>
     <field>total</field>
     <field>integrated</field>
     <set>
      <set comment="spin 1">
       <r>   -27.7200     0.0000     0.0000 </r>
       <r>   -27.6133     0.0000     0.0000 </r>
       <r>   -27.5067     0.0000     0.0000 </r>
       <r>   -27.4000     0.0000     0.0000 </r>
       <r>   -27.2934     0.0000     0.0000 </r>
       <r>   -27.1867     0.0000     0.0000 </r>
       <r>   -27.0801     0.0000     0.0000 </r>
       <r>   -26.9734     0.0000     0.0000 </r>
       <r>   -26.8668     0.0000     0.0000 </r>
       <r>   -26.7601     0.0000     0.0000 </r>
       <r>   -26.6535     0.0000     0.0000 </r>
       <r>   -26.5468     0.0002     0.0000 </r>
       <r>   -26.4402     0.0563     0.0060 </r>
       <r>   -26.3335     1.8181     0.1999 </r>
       <r>   -26.2269     9.4668     1.2096 </r>
       <r>   -26.1202    15.0587     2.8156 </r>
       <r>   -26.0136    24.2852     5.4056 </r>
       <r>   -25.9069    19.8545     7.5231 </r>
       <r>   -25.8003     4.2850     7.9801 </r>
       <r>   -25.6936     0.1851     7.9999 </r>
       <r>   -25.5870     0.0013     8.0000 </r>
       <r>   -25.4803     0.0000     8.0000 </r>
       <r>   -25.3737     0.0006     8.0001 </r>
       <r>   -25.2670     0.0849     8.0091 </r>
       <r>   -25.1603     1.9306     8.2150 </r>
       <r>   -25.0537    10.0595     9.2879 </r>
       <r>   -24.9470    16.6623    11.0649 </r>
       <r>   -24.8404    12.7817    12.4281 </r>
       <r>   -24.7337     9.4482    13.4358 </r>
       <r>   -24.6271     9.2351    14.4207 </r>
       <r>   -24.5204     8.1261    15.2873 </r>
       <r>   -24.4138     1.9140    15.4915 </r>
       <r>   -24.3071     0.0831    15.5003 </r>
       <r>   -24.2005     0.2251    15.5243 </r>
       <r>   -24.0938     1.9196    15.7291 </r>
       <r>   -23.9872     5.1257    16.2757 </r>
       <r>   -23.8805    17.5824    18.1509 </r>
       <r>   -23.7739    29.1026    21.2547 </r>
       <r>   -23.6672    22.3519    23.6386 </r>
       <r>   -23.5606     7.2284    24.4095 </r>
       <r>   -23.4539     0.8285    24.4978 </r>
       <r>   -23.3473     0.1515    24.5140 </r>
       <r>   -23.2406     2.4930    24.7799 </r>
       <r>   -23.1340     8.7844    25.7167 </r>
       <r>   -23.0273     8.9704    26.6734 </r>
       <r>   -22.9207     8.0661    27.5337 </r>
       <r>   -22.8140    11.4555    28.7554 </r>
       <r>   -22.7074    13.1823    30.1613 </r>
       <r>   -22.6007    11.0744    31.3424 </r>
       <r>   -22.4941     5.3767    31.9158 </r>
       <r>   -22.3874     0.7702    31.9980 </r>
       <r>   -22.2808     0.0189    32.0000 </r>
       <r>   -22.1741     0.0285    32.0030 </r>
       <r>   -22.0675     1.1575    32.1265 </r>
       <r>   -21.9608     9.5259    33.1424 </r>
       <r>   -21.8542    27.8914    36.1171 </r>
       <r>   -21.7475    37.2251    40.0871 </r>
       <r>   -21.6409    30.1277    43.3003 </r>
       <r>   -21.5342    27.0479    46.1850 </r>
       <r>   -21.4276    14.8602    47.7698 </r>
       <r>   -21.3209     2.1135    47.9952 </r>
       <r>   -21.2143     0.4518    48.0434 </r>
       <r>   -21.1076     3.0407    48.3677 </r>
       <r>   -21.0010    10.6860    49.5074 </r>
       <r>   -20.8943    21.5487    51.8055 </r>
       <r>   -20.7877    20.6135    54.0040 </r>
       <r>   -20.6810    13.8668    55.4829 </r>
       <r>   -20.5744     4.7806    55.9927 </r>
       <r>   -20.4677     5.9885    56.6314 </r>
       <r>   -20.3611    16.7158    58.4142 </r>
       <r>   -20.2544    23.2873    60.8978 </r>
       <r>   -20.1478    20.8931    63.1260 </r>
       <r>   -20.0411     7.4614    63.9218 </r>
       <r>   -19.9345     0.7193    63.9985 </r>
       <r>   -19.8278     0.0138    64.0000 </r>
       <r>   -19.7212     0.0000    64.0000 </r>
       <r>   -19.6145     0.0000    64.0000 </r>
       <r>   -19.5079     0.0000    64.0000 </r>
       <r>   -19.4012     0.0000    64.0000 </r>
       <r>   -19.2946     0.0000    64.0000 </r>
       <r>   -19.1879     0.0000    64.0000 </r>
       <r>   -19.0813     0.0000    64.0000 </r>
       <r>   -18.9746     0.0000    64.0000 </r>
       <r>   -18.8680     0.0000    64.0000 </r>
       <r>   -18.7613     0.0000    64.0000 </r>
       <r>   -18.6547     0.0000    64.0000 </r>
       <r>   -18.5480     0.0000    64.0000 </r>
       <r>   -18.4414     0.0000    64.0000 </r>
       <r>   -18.3347     0.0000    64.0000 </r>
       <r>   -18.2281     0.0000    64.0000 </r>
       <r>   -18.1214     0.0000    64.0000 </r>
       <r>   -18.0148     0.0000    64.0000 </r>
       <r>   -17.9081     0.0000    64.0000 </r>
       <r>   -17.8015     0.0000    64.0000 </r>
       <r>   -17.6948     0.0031    64.0003 </r>
       <r>   -17.5882     0.2952    64.0318 </r>
       <r>   -17.4815     4.2783    64.4881 </r>
       <r>   -17.3749    12.9481    65.8690 </r>
       <r>   -17.2682    14.8058    67.4481 </r>
       <r>   -17.1615    12.3024    68.7601 </r>
       <r>   -17.0549    15.6457    70.4288 </r>
       <r>   -16.9482    20.0381    72.5658 </r>
       <r>   -16.8416    21.3166    74.8393 </r>
       <r>   -16.7349    14.9338    76.4320 </r>
       <r>   -16.6283    10.4507    77.5465 </r>
       <r>   -16.5216    10.9605    78.7155 </r>
       <r>   -16.4150     6.5822    79.4175 </r>
       <r>   -16.3083     0.7692    79.4995 </r>
       <r>   -16.2017     0.3757    79.5396 </r>
       <r>   -16.0950     2.1552    79.7694 </r>
       <r>   -15.9884     1.9080    79.9729 </r>
       <r>   -15.8817     0.2496    79.9995 </r>
       <r>   -15.7751     0.0115    80.0008 </r>
       <r>   -15.6684     0.6268    80.0676 </r>
       <r>   -15.5618     8.9475    81.0219 </r>
       <r>   -15.4551    27.8430    83.9914 </r>
       <r>   -15.3485    25.4087    86.7012 </r>
       <r>   -15.2418     7.7021    87.5227 </r>
       <r>   -15.1352     2.9560    87.8379 </r>
       <r>   -15.0285     1.9851    88.0496 </r>
       <r>   -14.9219     2.5651    88.3232 </r>
       <r>   -14.8152     2.3699    88.5760 </r>
       <r>   -14.7086     2.6961    88.8635 </r>
       <r>   -14.6019     1.2494    88.9967 </r>
       <r>   -14.4953     2.0003    89.2101 </r>
       <r>   -14.3886    11.4686    90.4332 </r>
       <r>   -14.2820    14.2866    91.9569 </r>
       <r>   -14.1753    10.3596    93.0618 </r>
       <r>   -14.0687    12.0979    94.3520 </r>
       <r>   -13.9620    13.3714    95.7781 </r>
       <r>   -13.8554    23.2924    98.2622 </r>
       <r>   -13.7487    25.3621   100.9671 </r>
       <r>   -13.6421    28.3822   103.9941 </r>
       <r>   -13.5354    31.0009   107.3003 </r>
       <r>   -13.4288    24.6280   109.9269 </r>
       <r>   -13.3221    18.1618   111.8639 </r>
       <r>   -13.2155    17.4231   113.7221 </r>
       <r>   -13.1088     7.5080   114.5228 </r>
       <r>   -13.0022     4.9978   115.0558 </r>
       <r>   -12.8955     6.3819   115.7365 </r>
       <r>   -12.7889     8.3955   116.6319 </r>
       <r>   -12.6822     8.5555   117.5443 </r>
       <r>   -12.5756     6.4139   118.2284 </r>
       <r>   -12.4689     4.2122   118.6776 </r>
       <r>   -12.3623     6.2840   119.3478 </r>
       <r>   -12.2556     7.3896   120.1359 </r>
       <r>   -12.1490     8.4648   121.0387 </r>
       <r>   -12.0423     6.7851   121.7623 </r>
       <r>   -11.9357    10.3616   122.8674 </r>
       <r>   -11.8290    17.4240   124.7256 </r>
       <r>   -11.7224    20.8149   126.9456 </r>
       <r>   -11.6157    23.7644   129.4800 </r>
       <r>   -11.5091    21.3877   131.7611 </r>
       <r>   -11.4024    19.7495   133.8674 </r>
       <r>   -11.2958    17.7694   135.7625 </r>
       <r>   -11.1891    18.4518   137.7304 </r>
       <r>   -11.0825    11.8911   138.9986 </r>
       <r>   -10.9758     9.8899   140.0533 </r>
       <r>   -10.8692     7.4178   140.8444 </r>
       <r>   -10.7625     4.0947   141.2811 </r>
       <r>   -10.6559     6.6103   141.9861 </r>
       <r>   -10.5492    16.4368   143.7391 </r>
       <r>   -10.4426    20.6049   145.9367 </r>
       <r>   -10.3359    19.4657   148.0127 </r>
       <r>   -10.2293    15.6199   149.6786 </r>
       <r>   -10.1226    14.3338   151.2073 </r>
       <r>   -10.0160     6.7956   151.9320 </r>
       <r>    -9.9093     1.7215   152.1156 </r>
       <r>    -9.8027     3.1164   152.4480 </r>
       <r>    -9.6960     6.0920   153.0977 </r>
       <r>    -9.5894    10.0345   154.1679 </r>
       <r>    -9.4827    10.6942   155.3084 </r>
       <r>    -9.3761    19.0917   157.3446 </r>
       <r>    -9.2694    18.1446   159.2797 </r>
       <r>    -9.1628    17.0277   161.0957 </r>
       <r>    -9.0561    29.9205   164.2868 </r>
       <r>    -8.9494    25.9060   167.0497 </r>
       <r>    -8.8428     8.4181   167.9475 </r>
       <r>    -8.7361     4.5567   168.4334 </r>
       <r>    -8.6295    10.3434   169.5366 </r>
       <r>    -8.5228     5.0640   170.0766 </r>
       <r>    -8.4162     2.8196   170.3773 </r>
       <r>    -8.3095     1.9411   170.5844 </r>
       <r>    -8.2029     8.9229   171.5360 </r>
       <r>    -8.0962    16.9748   173.3464 </r>
       <r>    -7.9896    16.7735   175.1353 </r>
       <r>    -7.8829    23.8643   177.6804 </r>
       <r>    -7.7763    17.3781   179.5338 </r>
       <r>    -7.6696     4.1800   179.9796 </r>
       <r>    -7.5630     1.5331   180.1431 </r>
       <r>    -7.4563    14.2438   181.6622 </r>
       <r>    -7.3497    33.7303   185.2596 </r>
       <r>    -7.2430    32.0605   188.6788 </r>
       <r>    -7.1364    36.4897   192.5705 </r>
       <r>    -7.0297    42.2194   197.0732 </r>
       <r>    -6.9231    31.8501   200.4701 </r>
       <r>    -6.8164    13.6174   201.9224 </r>
       <r>    -6.7098     9.8000   202.9675 </r>
       <r>    -6.6031    11.9918   204.2465 </r>
       <r>    -6.4965    21.1427   206.5014 </r>
       <r>    -6.3898    29.4160   209.6386 </r>
       <r>    -6.2832    23.9180   212.1895 </r>
       <r>    -6.1765    17.2818   214.0326 </r>
       <r>    -6.0699    12.3503   215.3498 </r>
       <r>    -5.9632    10.2921   216.4474 </r>
       <r>    -5.8566    13.0906   217.8435 </r>
       <r>    -5.7499    15.4659   219.4930 </r>
       <r>    -5.6433    17.2285   221.3304 </r>
       <r>    -5.5366    18.3486   223.2873 </r>
       <r>    -5.4300    29.0946   226.3903 </r>
       <r>    -5.3233    42.0583   230.8758 </r>
       <r>    -5.2167    41.1381   235.2632 </r>
       <r>    -5.1100    36.0942   239.1127 </r>
       <r>    -5.0034    46.7777   244.1016 </r>
       <r>    -4.8967    50.1264   249.4476 </r>
       <r>    -4.7901    40.7598   253.7946 </r>
       <r>    -4.6834    32.7224   257.2845 </r>
       <r>    -4.5768    34.0819   260.9194 </r>
       <r>    -4.4701    36.3762   264.7989 </r>
       <r>    -4.3635    31.4885   268.1572 </r>
       <r>    -4.2568    23.8345   270.6991 </r>
       <r>    -4.1502    19.7313   272.8035 </r>
       <r>    -4.0435    17.4543   274.6650 </r>
       <r>    -3.9369     9.0935   275.6348 </r>
       <r>    -3.8302     3.0680   275.9620 </r>
       <r>    -3.7236     0.3493   275.9993 </r>
       <r>    -3.6169     0.0066   276.0000 </r>
       <r>    -3.5103     0.0001   276.0000 </r>
       <r>    -3.4036     0.0432   276.0046 </r>
       <r>    -3.2970     1.6953   276.1854 </r>
       <r>    -3.1903     9.0158   277.1470 </r>
       <r>    -3.0837     7.8457   277.9837 </r>
       <r>    -2.9770     8.6594   278.9072 </r>
       <r>    -2.8704    21.8928   281.2421 </r>
       <r>    -2.7637    21.0885   283.4912 </r>
       <r>    -2.6571     6.3969   284.1735 </r>
       <r>    -2.5504     9.2345   285.1583 </r>
       <r>    -2.4438     7.0704   285.9124 </r>
       <r>    -2.3371     0.8520   286.0033 </r>
       <r>    -2.2305     1.6891   286.1834 </r>
       <r>    -2.1238     8.9663   287.1397 </r>
       <r>    -2.0172     7.4680   287.9361 </r>
       <r>    -1.9105     4.8885   288.4575 </r>
       <r>    -1.8039    12.0116   289.7385 </r>
       <r>    -1.6972    11.5369   290.9690 </r>
       <r>    -1.5906    11.5673   292.2026 </r>
       <r>    -1.4839    12.6817   293.5551 </r>
       <r>    -1.3773     9.4125   294.5590 </r>
       <r>    -1.2706     7.6147   295.3711 </r>
       <r>    -1.1640    11.2679   296.5728 </r>
       <r>    -1.0573    23.9299   299.1250 </r>
       <r>    -0.9506    26.3968   301.9402 </r>
       <r>    -0.8440    14.8894   303.5282 </r>
       <r>    -0.7373     5.9843   304.1664 </r>
       <r>    -0.6307     6.8419   304.8961 </r>
       <r>    -0.5240    14.3698   306.4286 </r>
       <r>    -0.4174    29.4637   309.5710 </r>
       <r>    -0.3107    30.5627   312.8305 </r>
       <r>    -0.2041    10.1352   313.9114 </r>
       <r>    -0.0974     0.8179   313.9987 </r>
       <r>     0.0092     0.0126   314.0000 </r>
       <r>     0.1159     0.0000   314.0000 </r>
       <r>     0.2225     0.0002   314.0000 </r>
       <r>     0.3292     0.0551   314.0059 </r>
       <r>     0.4358     1.8880   314.2072 </r>
       <r>     0.5425     9.1382   315.1818 </r>
       <r>     0.6491     6.8705   315.9146 </r>
       <r>     0.7558     0.8203   316.0021 </r>
       <r>     0.8624     1.0040   316.1092 </r>
       <r>     0.9691     6.4584   316.7980 </r>
       <r>     1.0757    15.2313   318.4224 </r>
       <r>     1.1824    17.8561   320.3267 </r>
       <r>     1.2890    15.6716   321.9981 </r>
       <r>     1.3957    19.9552   324.1264 </r>
       <r>     1.5023    22.2104   326.4951 </r>
       <r>     1.6090    19.1466   328.5371 </r>
       <r>     1.7156    24.7662   331.1785 </r>
       <r>     1.8223    23.1513   333.6476 </r>
       <r>     1.9289    24.7530   336.2875 </r>
       <r>     2.0356    27.3054   339.1996 </r>
       <r>     2.1422    23.5453   341.7107 </r>
       <r>     2.2489    14.0020   343.2041 </r>
       <r>     2.3555     9.2327   344.1887 </r>
       <r>     2.4622    12.2557   345.4958 </r>
       <r>     2.5688    18.2240   347.4394 </r>
       <r>     2.6755    19.5387   349.5232 </r>
       <r>     2.7821    15.9002   351.2190 </r>
       <r>     2.8888     6.3130   351.8923 </r>
       <r>     2.9954     0.9760   351.9964 </r>
       <r>     3.1021     0.0338   352.0000 </r>
       <r>     3.2087     0.0002   352.0000 </r>
       <r>     3.3154     0.0000   352.0000 </r>
       <r>     3.4220     0.0000   352.0000 </r>
       <r>     3.5287     0.0000   352.0000 </r>
       <r>     3.6353     0.0000   352.0000 </r>
       <r>     3.7420     0.0000   352.0000 </r>
       <r>     3.8486     0.0000   352.0000 </r>
       <r>     3.9553     0.0000   352.0000 </r>
       <r>     4.0619     0.0000   352.0000 </r>
       <r>     4.1686     0.0000   352.0000 </r>
       <r>     4.2752     0.0000   352.0000 </r>
      </set>
     </set>
    </array>
   </total>
  </dos>
 </calculation>
 <structure name="finalpos" >
  <crystal>
   <varray name="basis" >
    <v>      13.68976958       0.00000000       0.00000000 </v>
    <v>       0.00000000      10.81775874       0.00000000 </v>
    <v>       0.00000000       0.00000000      15.00000000 </v>
   </varray>
   <i name="volume">   2221.38936819 </i>
   <varray name="rec_basis" >
    <v>       0.07304725       0.00000000       0.00000000 </v>
    <v>       0.00000000       0.09244059       0.00000000 </v>
    <v>       0.00000000       0.00000000       0.06666667 </v>
   </varray>
  </crystal>
  <varray name="positions" >
   <v>       0.07109927       0.38777946       0.23117053 </v>
   <v>       0.98092651       0.21848794       0.16759847 </v>
   <v>       0.23070847       0.39399529       0.20211226 </v>
   <v>       0.81721658       0.58035642       0.18894322 </v>
   <v>       0.15018495       0.24980350       0.12495742 </v>
   <v>       0.90729238       0.38680985       0.22528974 </v>
   <v>       0.57244595       0.38496157       0.23423282 </v>
   <v>       0.48005044       0.21760502       0.17207869 </v>
   <v>       0.73069543       0.39386792       0.20211324 </v>
   <v>       0.31571400       0.58064763       0.18847133 </v>
   <v>       0.64767931       0.25363757       0.12311435 </v>
   <v>       0.40710260       0.38767772       0.22864129 </v>
   <v>       0.81794752       0.88780477       0.04317631 </v>
   <v>       0.72809105       0.71948710       0.10857405 </v>
   <v>       0.97738387       0.89551557       0.07284838 </v>
   <v>       0.06836380       0.07857419       0.08659238 </v>
   <v>       0.89681373       0.75340974       0.15169016 </v>
   <v>       0.65394130       0.88676607       0.04943088 </v>
   <v>       0.31764303       0.88703181       0.03944765 </v>
   <v>       0.22804391       0.71721377       0.10419050 </v>
   <v>       0.47645788       0.89785886       0.07201122 </v>
   <v>       0.56591903       0.08145723       0.08671312 </v>
   <v>       0.39438560       0.75701962       0.15062953 </v>
   <v>       0.15379430       0.88407477       0.04553091 </v>
   <v>       0.98817208       0.44186672       0.25527822 </v>
   <v>       0.89953942       0.26783143       0.19980038 </v>
   <v>       0.15905995       0.42764922       0.25686288 </v>
   <v>       0.14842159       0.14718929       0.07622685 </v>
   <v>       0.98514893       0.10768130       0.12893608 </v>
   <v>       0.23067380       0.31841476       0.13256254 </v>
   <v>       0.06749233       0.28705684       0.17247740 </v>
   <v>       0.82121816       0.45665405       0.21857667 </v>
   <v>       0.48956767       0.44331286       0.25683018 </v>
   <v>       0.39997686       0.26734950       0.20706745 </v>
   <v>       0.66069630       0.42285335       0.25988179 </v>
   <v>       0.64384323       0.15235783       0.07294517 </v>
   <v>       0.48342041       0.10824010       0.13155568 </v>
   <v>       0.72705958       0.32402249       0.12879622 </v>
   <v>       0.56674805       0.28585489       0.17551174 </v>
   <v>       0.32117413       0.45787472       0.21892429 </v>
   <v>       0.73476892       0.94116269       0.01862146 </v>
   <v>       0.64641567       0.76824904       0.07618458 </v>
   <v>       0.90608332       0.92697469       0.01700569 </v>
   <v>       0.89581815       0.65122721       0.20075758 </v>
   <v>       0.73324938       0.60875355       0.14745852 </v>
   <v>       0.97691538       0.82286132       0.14399613 </v>
   <v>       0.81440986       0.78852429       0.10303888 </v>
   <v>       0.56805296       0.95821591       0.05547431 </v>
   <v>       0.23436395       0.93826229       0.01361708 </v>
   <v>       0.14652633       0.76525066       0.07170293 </v>
   <v>       0.40593129       0.92821227       0.01522539 </v>
   <v>       0.39148578       0.65703268       0.20386234 </v>
   <v>       0.23454672       0.60636245       0.14283248 </v>
   <v>       0.47436747       0.82541171       0.14372783 </v>
   <v>       0.31379638       0.78771033       0.09975819 </v>
   <v>       0.06902997       0.95592487       0.05472994 </v>
   <v>       0.55471471       0.84454627       0.37217799 </v>
   <v>       0.64739439       0.63617926       0.42034635 </v>
   <v>       0.50717682       0.63017515       0.30086801 </v>
  </varray>
 </structure>
</modeling>
