slab_Cel1-OPT                           
           1
    13.759704    0.000000    0.000000
     0.000000   11.286700    0.000000
     0.000000    0.000000   15.000000
   C    N    Ag   Pd
    24    32     2     1
Direct configuration=     1
   0.07054120  0.38816457  0.22227495
   0.98151180  0.21832942  0.16785344
   0.22877304  0.39667288  0.18904348
   0.82472337  0.57572318  0.18403191
   0.14970601  0.24663792  0.12277753
   0.90758628  0.38434512  0.21811946
   0.56886571  0.39316130  0.23173729
   0.47768100  0.22391730  0.18017943
   0.73035049  0.39802658  0.19909345
   0.31101118  0.58132963  0.17977696
   0.64681854  0.25040749  0.13377315
   0.40275100  0.39355427  0.22106508
   0.81808056  0.88988957  0.05647519
   0.73319531  0.72568325  0.12448457
   0.97932824  0.89597624  0.07999408
   0.06867909  0.07698375  0.09423854
   0.90528082  0.74258583  0.14719628
   0.65472406  0.89333727  0.07691603
   0.31825350  0.89473226  0.05377466
   0.22716619  0.72126926  0.10084126
   0.47498917  0.90396535  0.09489577
   0.56592959  0.08075138  0.11024766
   0.38612516  0.76037560  0.16363174
   0.15509033  0.88950396  0.05271529
   0.98784551  0.43883046  0.24713656
   0.89991795  0.26975381  0.19549767
   0.15759857  0.43325808  0.24240148
   0.14788829  0.14353661  0.08017307
   0.98633649  0.10796021  0.13653167
   0.22915942  0.31533454  0.12527490
   0.06735802  0.28598388  0.16888911
   0.82274912  0.45552252  0.21014877
   0.48493735  0.44793349  0.25146232
   0.39648714  0.27665554  0.20625030
   0.65756919  0.43524210  0.25419888
   0.64488604  0.14640144  0.09374788
   0.48286722  0.11321356  0.15081376
   0.72606390  0.31870920  0.13454719
   0.56470606  0.29135323  0.18008364
   0.31888640  0.46086995  0.20329135
   0.73287748  0.94248397  0.03965616
   0.64891188  0.78317499  0.11254597
   0.90382696  0.93469024  0.03189926
   0.90701680  0.63807548  0.18754912
   0.73647441  0.61699787  0.15934394
   0.98321706  0.81212363  0.14197152
   0.81925020  0.78400528  0.10639513
   0.56804185  0.96074410  0.08520074
   0.23699719  0.94478449  0.02657725
   0.14820250  0.77173059  0.06843984
   0.40793432  0.93556381  0.03646331
   0.38047481  0.65838217  0.20939239
   0.23501053  0.60894863  0.12850628
   0.46527775  0.83024755  0.16578047
   0.31113112  0.79334051  0.10891910
   0.06990262  0.95754122  0.06514651
   0.57736557  0.77647674  0.24193941
   0.65582252  0.60772566  0.29790490
   0.48700699  0.61617049  0.29396059
slab_Cel1-OPT                           
           1
    13.779606    0.000000    0.000000
     0.000000   11.297973    0.000000
     0.000000    0.000000   15.000000
   C    N    Ag   Pd
    24    32     2     1
Direct configuration=     2
   0.07055105  0.38815297  0.22225776
   0.98154124  0.21841284  0.16787267
   0.22878912  0.39672014  0.18903352
   0.82494300  0.57571906  0.18404487
   0.14972860  0.24673939  0.12281907
   0.90761012  0.38439268  0.21813135
   0.56880237  0.39301502  0.23168299
   0.47775008  0.22409520  0.18022531
   0.73027536  0.39816108  0.19924028
   0.31084992  0.58132006  0.17973119
   0.64685305  0.25067647  0.13381585
   0.40282519  0.39361246  0.22109435
   0.81814217  0.88994440  0.05647209
   0.73343647  0.72578083  0.12429041
   0.97934973  0.89605807  0.07997491
   0.06868246  0.07709129  0.09423207
   0.90534354  0.74276352  0.14716654
   0.65480985  0.89345508  0.07682772
   0.31820123  0.89472817  0.05377951
   0.22721605  0.72141291  0.10083255
   0.47498455  0.90406649  0.09489895
   0.56595805  0.08098450  0.11022129
   0.38597279  0.76047298  0.16347191
   0.15500910  0.88954403  0.05272032
   0.98785906  0.43882176  0.24712398
   0.89989020  0.26974489  0.19550459
   0.15762089  0.43326117  0.24239830
   0.14784637  0.14346095  0.08015997
   0.98637922  0.10792969  0.13650972
   0.22915233  0.31525986  0.12522924
   0.06734459  0.28596911  0.16890169
   0.82274839  0.45543894  0.21019104
   0.48475617  0.44701577  0.25108942
   0.39649680  0.27652121  0.20632220
   0.65778851  0.43355660  0.25386195
   0.64480321  0.14621876  0.09372977
   0.48289621  0.11306859  0.15077292
   0.72594157  0.31854294  0.13437116
   0.56461686  0.29117138  0.18000182
   0.31881694  0.46082777  0.20321615
   0.73286340  0.94248488  0.03968064
   0.64934431  0.78321448  0.11176597
   0.90379022  0.93466868  0.03192062
   0.90692219  0.63788259  0.18757679
   0.73664343  0.61702908  0.15897413
   0.98316599  0.81198124  0.14198003
   0.81914003  0.78388889  0.10647273
   0.56800859  0.96060864  0.08516235
   0.23707093  0.94476822  0.02661074
   0.14816914  0.77171138  0.06839615
   0.40799515  0.93551959  0.03645344
   0.37976612  0.65843034  0.20884338
   0.23505347  0.60892606  0.12858647
   0.46400939  0.83091914  0.16499507
   0.31109175  0.79327931  0.10891718
   0.06989525  0.95742455  0.06512710
   0.57827134  0.78003148  0.24244048
   0.65873352  0.60717237  0.29966358
   0.48464424  0.61501943  0.29538939
slab_Cel1-OPT                           
           1
    13.839311    0.000000    0.000000
     0.000000   11.331792    0.000000
     0.000000    0.000000   15.000000
   C    N    Ag   Pd
    24    32     2     1
Direct configuration=     3
   0.07058055  0.38811818  0.22220619
   0.98162941  0.21866283  0.16793036
   0.22883731  0.39686178  0.18900364
   0.82560095  0.57570674  0.18408376
   0.14979628  0.24704350  0.12294371
   0.90768153  0.38453524  0.21816701
   0.56861264  0.39257661  0.23152009
   0.47795702  0.22462840  0.18036296
   0.73005030  0.39856417  0.19968077
   0.31036682  0.58129138  0.17959391
   0.64695641  0.25148261  0.13394395
   0.40304743  0.39378685  0.22118218
   0.81832670  0.89010874  0.05646277
   0.73415891  0.72607328  0.12370792
   0.97941411  0.89630333  0.07991740
   0.06869255  0.07741358  0.09421267
   0.90553142  0.74329607  0.14707732
   0.65506686  0.89380813  0.07656280
   0.31804466  0.89471589  0.05379408
   0.22736544  0.72184343  0.10080644
   0.47497072  0.90436960  0.09490849
   0.56604330  0.08168317  0.11014216
   0.38551636  0.76076486  0.16299242
   0.15476577  0.88966412  0.05273544
   0.98789962  0.43879569  0.24708625
   0.89980708  0.26971814  0.19552532
   0.15768776  0.43327043  0.24238876
   0.14772079  0.14323418  0.08012067
   0.98650722  0.10783821  0.13644385
   0.22913109  0.31503604  0.12509224
   0.06730439  0.28592483  0.16893944
   0.82274621  0.45518847  0.21031783
   0.48421340  0.44426535  0.24997071
   0.39652571  0.27611864  0.20653791
   0.65844554  0.42850516  0.25285114
   0.64455508  0.14567127  0.09367545
   0.48298305  0.11263411  0.15065042
   0.72557509  0.31804468  0.13384305
   0.56434965  0.29062636  0.17975637
   0.31860883  0.46070134  0.20299053
   0.73282122  0.94248761  0.03975407
   0.65063973  0.78333283  0.10942598
   0.90368016  0.93460407  0.03198471
   0.90663877  0.63730448  0.18765979
   0.73714975  0.61712264  0.15786472
   0.98301301  0.81155450  0.14200557
   0.81881000  0.78354006  0.10670555
   0.56790898  0.96020268  0.08504718
   0.23729183  0.94471946  0.02671120
   0.14806920  0.77165380  0.06826508
   0.40817739  0.93538707  0.03642382
   0.37764313  0.65857471  0.20719633
   0.23518210  0.60885842  0.12882702
   0.46020980  0.83293192  0.16263886
   0.31097380  0.79309592  0.10891141
   0.06987315  0.95707489  0.06506887
   0.58098473  0.79068507  0.24394368
   0.66745393  0.60551417  0.30493964
   0.47756624  0.61156971  0.29967579
slab_Cel1-OPT                           
           1
    13.810194    0.000000    0.000000
     0.000000   11.300713    0.000000
     0.000000    0.000000   15.000000
   C    N    Ag   Pd
    24    32     2     1
Direct configuration=     4
   0.07064567  0.38821824  0.22219228
   0.98160154  0.21859848  0.16789744
   0.22885625  0.39680618  0.18893515
   0.82524229  0.57588027  0.18374121
   0.14976636  0.24677715  0.12285987
   0.90772434  0.38441917  0.21814058
   0.56852476  0.39116651  0.23079089
   0.47805453  0.22400655  0.18012527
   0.73063808  0.39712064  0.19845920
   0.30975149  0.58117383  0.17917825
   0.64661272  0.25076092  0.13363560
   0.40245346  0.39262219  0.22080903
   0.81804919  0.89016073  0.05657908
   0.73445740  0.72594725  0.12328467
   0.97930464  0.89615403  0.07993657
   0.06873780  0.07750338  0.09419018
   0.90525442  0.74274502  0.14731753
   0.65536440  0.89391480  0.07618552
   0.31838724  0.89467399  0.05392328
   0.22736458  0.72182618  0.10082129
   0.47428730  0.90541424  0.09372754
   0.56596517  0.08151394  0.11005398
   0.38405018  0.76059092  0.16214315
   0.15497450  0.88959703  0.05273749
   0.98796597  0.43855511  0.24691274
   0.90015285  0.26987648  0.19549548
   0.15750448  0.43308580  0.24219622
   0.14751808  0.14349588  0.08031120
   0.98671024  0.10826613  0.13647681
   0.22891268  0.31495869  0.12521386
   0.06731746  0.28597630  0.16900609
   0.82281305  0.45508808  0.21050194
   0.48489864  0.44435014  0.24982165
   0.39660321  0.27613464  0.20670965
   0.65797477  0.42773667  0.25378259
   0.64447250  0.14619515  0.09388539
   0.48307969  0.11323674  0.15078552
   0.72566348  0.31846223  0.13381602
   0.56423234  0.29039768  0.17949043
   0.31848573  0.46054801  0.20285383
   0.73329719  0.94272435  0.03978799
   0.65079450  0.78288682  0.10836265
   0.90376032  0.93448564  0.03221881
   0.90679820  0.63775736  0.18750666
   0.73765765  0.61677948  0.15743304
   0.98290068  0.81160804  0.14172560
   0.81942284  0.78406987  0.10666655
   0.56798104  0.96039217  0.08503859
   0.23695201  0.94456470  0.02690614
   0.14832270  0.77184060  0.06827491
   0.40774150  0.93549032  0.03598265
   0.37771240  0.65891258  0.20692129
   0.23477052  0.60933077  0.12851139
   0.46017231  0.83276842  0.16342333
   0.31011512  0.79321037  0.10827611
   0.06986211  0.95712264  0.06507825
   0.58223426  0.79405196  0.24610559
   0.67001053  0.60597210  0.30785131
   0.47628149  0.61116588  0.30218231
slab_Cel1-OPT                           
           1
    13.794552    0.000000    0.000000
     0.000000   11.284017    0.000000
     0.000000    0.000000   15.000000
   C    N    Ag   Pd
    24    32     2     1
Direct configuration=     5
   0.07068073  0.38827215  0.22218481
   0.98158654  0.21856381  0.16787975
   0.22886645  0.39677623  0.18889835
   0.82504921  0.57597375  0.18355719
   0.14975026  0.24663367  0.12281482
   0.90774739  0.38435665  0.21812638
   0.56847745  0.39040690  0.23039915
   0.47810703  0.22367156  0.17999758
   0.73095451  0.39634303  0.19780296
   0.30942023  0.58111051  0.17895495
   0.64642770  0.25037215  0.13346996
   0.40213370  0.39199479  0.22060857
   0.81789980  0.89018874  0.05664156
   0.73461809  0.72587936  0.12305729
   0.97924571  0.89607360  0.07994686
   0.06876216  0.07755175  0.09417810
   0.90510529  0.74244818  0.14744658
   0.65552459  0.89397225  0.07598284
   0.31857167  0.89465141  0.05399270
   0.22736412  0.72181689  0.10082928
   0.47391938  0.90597697  0.09309312
   0.56592312  0.08142277  0.11000660
   0.38326086  0.76049722  0.16168691
   0.15508686  0.88956088  0.05273859
   0.98800168  0.43842552  0.24681953
   0.90033900  0.26996178  0.19547945
   0.15740582  0.43298634  0.24209279
   0.14740896  0.14363686  0.08041355
   0.98681954  0.10849665  0.13649452
   0.22879509  0.31491702  0.12527920
   0.06732450  0.28600402  0.16904189
   0.82284904  0.45503401  0.21060084
   0.48526753  0.44439581  0.24974158
   0.39664493  0.27614326  0.20680191
   0.65772133  0.42732269  0.25428299
   0.64442805  0.14647735  0.09399818
   0.48313172  0.11356137  0.15085809
   0.72571107  0.31868717  0.13380149
   0.56416919  0.29027449  0.17934756
   0.31841946  0.46046541  0.20278040
   0.73355342  0.94285187  0.03980621
   0.65087782  0.78264655  0.10779142
   0.90380347  0.93442184  0.03234458
   0.90688403  0.63800133  0.18742440
   0.73793108  0.61659463  0.15720113
   0.98284021  0.81163688  0.14157519
   0.81975275  0.78435527  0.10664559
   0.56801983  0.96049424  0.08503397
   0.23676907  0.94448133  0.02701086
   0.14845917  0.77194122  0.06828020
   0.40750685  0.93554594  0.03574565
   0.37774969  0.65909459  0.20677353
   0.23454895  0.60958521  0.12834183
   0.46015213  0.83268034  0.16384476
   0.30965286  0.79327202  0.10793481
   0.06985617  0.95714837  0.06508329
   0.58290694  0.79586568  0.24726700
   0.67138687  0.60621879  0.30941550
   0.47558985  0.61094833  0.30352885
slab_Cel1-OPT                           
           1
    13.761181    0.000000    0.000000
     0.000000   11.259572    0.000000
     0.000000    0.000000   15.000000
   C    N    Ag   Pd
    24    32     2     1
Direct configuration=     6
   0.07060596  0.38809339  0.22202428
   0.98183990  0.21875685  0.16787274
   0.22865067  0.39654345  0.18883554
   0.82503373  0.57572525  0.18328922
   0.14948516  0.24672047  0.12296631
   0.90787538  0.38439823  0.21812174
   0.56870230  0.38984033  0.23011404
   0.47779347  0.22368133  0.18000152
   0.73065379  0.39609081  0.19812367
   0.30931612  0.58123246  0.17868637
   0.64630174  0.25041894  0.13327930
   0.40239015  0.39206564  0.22047477
   0.81850634  0.89029281  0.05678786
   0.73472966  0.72571748  0.12245827
   0.97920338  0.89584189  0.07996995
   0.06863033  0.07727426  0.09414179
   0.90526904  0.74288093  0.14736744
   0.65565195  0.89378899  0.07543154
   0.31760618  0.89489680  0.05364505
   0.22667737  0.72203931  0.10040869
   0.47366566  0.90548402  0.09347155
   0.56577494  0.08084139  0.10991085
   0.38302033  0.76082473  0.16122358
   0.15496818  0.88955566  0.05280830
   0.98798976  0.43855090  0.24680839
   0.90034613  0.26987665  0.19544850
   0.15755164  0.43310821  0.24202152
   0.14749091  0.14363166  0.08032726
   0.98685281  0.10849557  0.13645120
   0.22884697  0.31488489  0.12530434
   0.06741510  0.28599194  0.16903828
   0.82283462  0.45496439  0.21062758
   0.48529317  0.44470819  0.24942562
   0.39655234  0.27499689  0.20676057
   0.65822153  0.42683438  0.25492712
   0.64450445  0.14630806  0.09383828
   0.48319930  0.11316916  0.15067634
   0.72566318  0.31788689  0.13270059
   0.56419452  0.28941880  0.17852778
   0.31809373  0.46017789  0.20256167
   0.73379201  0.94373093  0.03970396
   0.65059531  0.78174936  0.10691286
   0.90374488  0.93461074  0.03234962
   0.90697321  0.63773118  0.18753707
   0.73793289  0.61622558  0.15658700
   0.98289082  0.81145480  0.14153759
   0.81998973  0.78463673  0.10669541
   0.56798851  0.96104240  0.08485017
   0.23702929  0.94466108  0.02713132
   0.14835919  0.77187921  0.06823484
   0.40677111  0.93629378  0.03448363
   0.37779270  0.65880079  0.20667586
   0.23378165  0.60940552  0.12793580
   0.46058866  0.83296772  0.16410464
   0.30904872  0.79357554  0.10711100
   0.06984058  0.95740397  0.06509118
   0.58410569  0.79795323  0.25040025
   0.67272997  0.60744598  0.31259634
   0.47580407  0.61151094  0.30637970
slab_Cel1-OPT                           
           1
    13.734458    0.000000    0.000000
     0.000000   11.239996    0.000000
     0.000000    0.000000   15.000000
   C    N    Ag   Pd
    24    32     2     1
Direct configuration=     7
   0.07054593  0.38794993  0.22189573
   0.98204328  0.21891177  0.16786712
   0.22847746  0.39635665  0.18878525
   0.82502130  0.57552583  0.18307463
   0.14927237  0.24679012  0.12308762
   0.90797813  0.38443159  0.21811804
   0.56888279  0.38938565  0.22988574
   0.47754178  0.22368917  0.18000468
   0.73041241  0.39588841  0.19838049
   0.30923255  0.58133032  0.17847130
   0.64620062  0.25045648  0.13312663
   0.40259601  0.39212250  0.22036762
   0.81899322  0.89037633  0.05690502
   0.73481922  0.72558758  0.12197858
   0.97916939  0.89565594  0.07998845
   0.06852451  0.07705158  0.09411272
   0.90540048  0.74322822  0.14730406
   0.65575419  0.89364192  0.07499007
   0.31683118  0.89509373  0.05336666
   0.22612611  0.72221780  0.10007189
   0.47346200  0.90508843  0.09377458
   0.56565599  0.08037482  0.10983417
   0.38282725  0.76108756  0.16085255
   0.15487291  0.88955148  0.05286412
   0.98798019  0.43865152  0.24679947
   0.90035186  0.26980834  0.19542372
   0.15766870  0.43320602  0.24196445
   0.14755670  0.14362748  0.08025815
   0.98687951  0.10849470  0.13641652
   0.22888861  0.31485911  0.12532448
   0.06748783  0.28598224  0.16903538
   0.82282305  0.45490853  0.21064899
   0.48531374  0.44495888  0.24917261
   0.39647802  0.27407691  0.20672747
   0.65862305  0.42644250  0.25544292
   0.64456578  0.14617220  0.09371024
   0.48325354  0.11285441  0.15053079
   0.72562474  0.31724466  0.13181902
   0.56421485  0.28873209  0.17787132
   0.31783227  0.45994716  0.20238653
   0.73398352  0.94443639  0.03962208
   0.65036854  0.78102936  0.10620934
   0.90369785  0.93476234  0.03235365
   0.90704480  0.63751438  0.18762729
   0.73793435  0.61592941  0.15609521
   0.98293144  0.81130868  0.14150748
   0.82017995  0.78486261  0.10673530
   0.56796337  0.96148230  0.08470299
   0.23723817  0.94480534  0.02722777
   0.14827893  0.77182945  0.06819852
   0.40618052  0.93689392  0.03347305
   0.37782722  0.65856501  0.20659764
   0.23316574  0.60926131  0.12761066
   0.46093906  0.83319835  0.16431274
   0.30856376  0.79381911  0.10645132
   0.06982807  0.95760910  0.06509750
   0.58506795  0.79962851  0.25290927
   0.67380809  0.60843082  0.31514347
   0.47597604  0.61196244  0.30866259
slab_Cel1-OPT                           
           1
    13.727223    0.000000    0.000000
     0.000000   11.227875    0.000000
     0.000000    0.000000   15.000000
   C    N    Ag   Pd
    24    32     2     1
Direct configuration=     8
   0.07062787  0.38800282  0.22187793
   0.98213406  0.21892326  0.16785035
   0.22847482  0.39622798  0.18872086
   0.82510664  0.57521140  0.18292956
   0.14927441  0.24678280  0.12308306
   0.90785726  0.38450968  0.21811382
   0.56905498  0.38944738  0.22995087
   0.47746997  0.22309106  0.17974401
   0.73012944  0.39546132  0.19851344
   0.30902458  0.58126258  0.17818906
   0.64609840  0.25006648  0.13266170
   0.40274208  0.39230568  0.22026979
   0.81902011  0.89061940  0.05696337
   0.73466516  0.72518446  0.12142655
   0.97933933  0.89570830  0.07992959
   0.06853492  0.07701878  0.09405527
   0.90540010  0.74311976  0.14737314
   0.65568761  0.89348882  0.07451488
   0.31684753  0.89525651  0.05295655
   0.22585532  0.72183032  0.09982968
   0.47292905  0.90503571  0.09365349
   0.56576059  0.08043999  0.10974657
   0.38312404  0.76122645  0.16084803
   0.15466180  0.88981664  0.05281203
   0.98805611  0.43895955  0.24691002
   0.90020597  0.26962016  0.19542025
   0.15759738  0.43338262  0.24205558
   0.14768227  0.14351763  0.08009185
   0.98668966  0.10827877  0.13641669
   0.22897656  0.31469166  0.12518593
   0.06750232  0.28601382  0.16904691
   0.82271591  0.45470605  0.21061930
   0.48542611  0.44521712  0.24878926
   0.39600828  0.27355219  0.20692325
   0.65912128  0.42599699  0.25577832
   0.64464568  0.14547819  0.09333712
   0.48302118  0.11209418  0.15039847
   0.72587517  0.31748407  0.13130824
   0.56415084  0.28882038  0.17746162
   0.31783175  0.45987118  0.20215656
   0.73419936  0.94506480  0.03957955
   0.64992893  0.78045970  0.10545759
   0.90413118  0.93517084  0.03219985
   0.90719820  0.63737662  0.18768615
   0.73765828  0.61561269  0.15546711
   0.98340909  0.81138125  0.14157918
   0.82019640  0.78501962  0.10680854
   0.56783717  0.96104295  0.08436994
   0.23631721  0.94561957  0.02698300
   0.14726805  0.77212688  0.06780614
   0.40629474  0.93704477  0.03304386
   0.37801619  0.65857542  0.20642165
   0.23261244  0.60889345  0.12737914
   0.46113757  0.83333470  0.16433440
   0.30868281  0.79375682  0.10610876
   0.06975988  0.95747884  0.06505578
   0.58603427  0.80096932  0.25590133
   0.67450637  0.60969519  0.31797768
   0.47664618  0.61274380  0.31110506
slab_Cel1-OPT                           
           1
    13.710994    0.000000    0.000000
     0.000000   11.200681    0.000000
     0.000000    0.000000   15.000000
   C    N    Ag   Pd
    24    32     2     1
Direct configuration=     9
   0.07081177  0.38812161  0.22183800
   0.98233782  0.21894906  0.16781274
   0.22846888  0.39593903  0.18857643
   0.82529819  0.57450523  0.18260409
   0.14927897  0.24676635  0.12307284
   0.90758597  0.38468504  0.21810435
   0.56944149  0.38958602  0.23009700
   0.47730879  0.22174781  0.17915923
   0.72949429  0.39450216  0.19881170
   0.30855777  0.58111044  0.17755586
   0.64586897  0.24919061  0.13161868
   0.40306993  0.39271708  0.22005031
   0.81908047  0.89116531  0.05709426
   0.73431936  0.72427912  0.12018811
   0.97972078  0.89582589  0.07979754
   0.06855831  0.07694513  0.09392639
   0.90539926  0.74287617  0.14752810
   0.65553816  0.89314499  0.07344884
   0.31688425  0.89562207  0.05203651
   0.22524750  0.72096010  0.09928630
   0.47173280  0.90491731  0.09338183
   0.56599536  0.08058636  0.10955003
   0.38379022  0.76153837  0.16083789
   0.15418794  0.89041215  0.05269517
   0.98822651  0.43965133  0.24715801
   0.89987852  0.26919755  0.19541245
   0.15743731  0.43377922  0.24226002
   0.14796411  0.14327092  0.07971876
   0.98626352  0.10779382  0.13641709
   0.22917398  0.31431560  0.12487510
   0.06753483  0.28608474  0.16907278
   0.82247542  0.45425130  0.21055269
   0.48567834  0.44579709  0.24792926
   0.39495391  0.27237375  0.20736245
   0.66023962  0.42499644  0.25653075
   0.64482502  0.14391958  0.09250007
   0.48249963  0.11038682  0.15010161
   0.72643729  0.31802177  0.13016234
   0.56400716  0.28901866  0.17654249
   0.31783060  0.45970055  0.20164067
   0.73468382  0.94647611  0.03948412
   0.64894220  0.77918033  0.10377113
   0.90510382  0.93608829  0.03185481
   0.90754252  0.63706722  0.18781820
   0.73703863  0.61490138  0.15405801
   0.98448121  0.81154424  0.14174001
   0.82023331  0.78537225  0.10697284
   0.56755390  0.96005622  0.08362275
   0.23425004  0.94744820  0.02643386
   0.14499902  0.77279487  0.06692588
   0.40655114  0.93738356  0.03208102
   0.37844036  0.65859878  0.20602683
   0.23137051  0.60806729  0.12685975
   0.46158315  0.83364094  0.16438300
   0.30895003  0.79361693  0.10534025
   0.06960683  0.95718629  0.06496220
   0.58820328  0.80398057  0.26261375
   0.67607372  0.61253477  0.32433598
   0.47815039  0.61449861  0.31658452
slab_Cel1-OPT                           
           1
    13.693825    0.000000    0.000000
     0.000000   11.182063    0.000000
     0.000000    0.000000   15.000000
   C    N    Ag   Pd
    24    32     2     1
Direct configuration=    10
   0.07065559  0.38863880  0.22210838
   0.98189613  0.21857027  0.16783817
   0.22861923  0.39597342  0.18861648
   0.82471924  0.57435273  0.18238921
   0.14956732  0.24636713  0.12272107
   0.90754826  0.38465716  0.21823933
   0.56962214  0.39013004  0.23037200
   0.47642210  0.22130757  0.17903603
   0.72993596  0.39372296  0.19827209
   0.30861018  0.58101475  0.17734816
   0.64646971  0.24913078  0.13068121
   0.40288378  0.39231636  0.21980030
   0.81914342  0.89202800  0.05695505
   0.73351595  0.72370090  0.11926897
   0.98007087  0.89600846  0.07976603
   0.06851235  0.07700147  0.09380693
   0.90578765  0.74294897  0.14759747
   0.65504537  0.89266305  0.07296615
   0.31620502  0.89640896  0.05093890
   0.22418949  0.72109168  0.09844129
   0.47188028  0.90537272  0.09287516
   0.56574190  0.07931634  0.10906141
   0.38425832  0.76118280  0.16110759
   0.15329632  0.89073530  0.05240460
   0.98809274  0.43987653  0.24724528
   0.89977336  0.26905993  0.19548612
   0.15771075  0.43388766  0.24229431
   0.14794879  0.14320070  0.07954117
   0.98613674  0.10749309  0.13641048
   0.22929239  0.31417993  0.12465812
   0.06757006  0.28607705  0.16903028
   0.82228321  0.45401135  0.21049378
   0.48623041  0.44657470  0.24751255
   0.39497443  0.27227637  0.20776450
   0.66008071  0.42446453  0.25704660
   0.64524017  0.14346627  0.09190192
   0.48225560  0.10930091  0.14993229
   0.72610768  0.31869135  0.13009563
   0.56392010  0.28964108  0.17616200
   0.31819970  0.46012270  0.20122673
   0.73475710  0.94668333  0.03960837
   0.64862674  0.77890541  0.10254881
   0.90546816  0.93639532  0.03164220
   0.90756844  0.63679096  0.18781077
   0.73713433  0.61379633  0.15332725
   0.98471961  0.81141016  0.14203535
   0.82008433  0.78553647  0.10710747
   0.56730968  0.95917223  0.08295792
   0.23432734  0.94832287  0.02609516
   0.14454727  0.77218565  0.06658267
   0.40676120  0.93693249  0.03216375
   0.37868734  0.65828619  0.20571119
   0.23089979  0.60758973  0.12679099
   0.46175196  0.83379826  0.16425747
   0.30937103  0.79323181  0.10504697
   0.06932435  0.95750791  0.06486846
   0.58932456  0.80560922  0.26700227
   0.67668887  0.61431550  0.32850313
   0.47939539  0.61565479  0.31970366
slab_Cel1-OPT                           
           1
    13.688604    0.000000    0.000000
     0.000000   11.176402    0.000000
     0.000000    0.000000   15.000000
   C    N    Ag   Pd
    24    32     2     1
Direct configuration=    11
   0.07060804  0.38879634  0.22219059
   0.98176165  0.21845489  0.16784590
   0.22866501  0.39598389  0.18862865
   0.82454296  0.57430629  0.18232386
   0.14965512  0.24624553  0.12261410
   0.90753678  0.38464867  0.21828038
   0.56967715  0.39029575  0.23045562
   0.47615213  0.22117347  0.17899857
   0.73007043  0.39348562  0.19810800
   0.30862613  0.58098561  0.17728500
   0.64665262  0.24911256  0.13039613
   0.40282710  0.39219430  0.21972427
   0.81916258  0.89229077  0.05691272
   0.73327134  0.72352478  0.11898948
   0.98017747  0.89606407  0.07975645
   0.06849836  0.07701863  0.09377061
   0.90590590  0.74297114  0.14761857
   0.65489533  0.89251625  0.07281937
   0.31599822  0.89664864  0.05060513
   0.22386736  0.72113175  0.09818433
   0.47192518  0.90551144  0.09272109
   0.56566473  0.07892950  0.10891283
   0.38440085  0.76107450  0.16118960
   0.15302485  0.89083373  0.05231624
   0.98805201  0.43994512  0.24727182
   0.89974134  0.26901801  0.19550852
   0.15779400  0.43392070  0.24230474
   0.14794412  0.14317931  0.07948717
   0.98609813  0.10740149  0.13640848
   0.22932844  0.31413860  0.12459214
   0.06758078  0.28607471  0.16901736
   0.82222468  0.45393826  0.21047587
   0.48639850  0.44681156  0.24738583
   0.39498067  0.27224671  0.20788676
   0.66003232  0.42430252  0.25720347
   0.64536657  0.14332820  0.09172002
   0.48218130  0.10897014  0.14988080
   0.72600732  0.31889531  0.13007535
   0.56389360  0.28983066  0.17604629
   0.31831207  0.46025129  0.20110086
   0.73477941  0.94674645  0.03964615
   0.64853069  0.77882167  0.10217711
   0.90557909  0.93648883  0.03157755
   0.90757633  0.63670681  0.18780851
   0.73716347  0.61345974  0.15310504
   0.98479220  0.81136932  0.14212516
   0.82003898  0.78558649  0.10714842
   0.56723532  0.95890297  0.08275576
   0.23435087  0.94858928  0.02599217
   0.14440973  0.77200009  0.06647831
   0.40682515  0.93679510  0.03218891
   0.37876254  0.65819097  0.20561520
   0.23075647  0.60744427  0.12677008
   0.46180335  0.83384618  0.16421930
   0.30949922  0.79311450  0.10495779
   0.06923835  0.95760587  0.06483995
   0.58966595  0.80610530  0.26833676
   0.67687616  0.61485789  0.32977031
   0.47977445  0.61600695  0.32065215
slab_Cel1-OPT                           
           1
    13.676900    0.000000    0.000000
     0.000000   11.167102    0.000000
     0.000000    0.000000   15.000000
   C    N    Ag   Pd
    24    32     2     1
Direct configuration=    12
   0.07061836  0.38892314  0.22230820
   0.98153698  0.21823907  0.16790280
   0.22885221  0.39609188  0.18854162
   0.82421436  0.57456479  0.18233509
   0.14976294  0.24632327  0.12250626
   0.90752141  0.38454211  0.21843349
   0.56978318  0.39034607  0.23034513
   0.47606618  0.22127284  0.17897682
   0.73022211  0.39386043  0.19825589
   0.30888388  0.58145461  0.17720606
   0.64650751  0.24935878  0.13015259
   0.40306532  0.39242805  0.21975286
   0.81921554  0.89248044  0.05692335
   0.73305202  0.72313290  0.11869411
   0.97991246  0.89591446  0.07997336
   0.06829213  0.07737277  0.09374748
   0.90581435  0.74284942  0.14762078
   0.65474551  0.89225442  0.07265425
   0.31613846  0.89638145  0.05055780
   0.22423642  0.72090713  0.09810298
   0.47242484  0.90514170  0.09276634
   0.56559190  0.07822282  0.10843791
   0.38434990  0.76096908  0.16100017
   0.15296274  0.89071384  0.05181897
   0.98773001  0.43996133  0.24736053
   0.89959651  0.26908960  0.19568760
   0.15815732  0.43387695  0.24232971
   0.14779407  0.14289899  0.07928703
   0.98614965  0.10716780  0.13637668
   0.22952458  0.31438403  0.12459130
   0.06749832  0.28599366  0.16897138
   0.82227465  0.45385539  0.21045476
   0.48609972  0.44753301  0.24738674
   0.39518957  0.27256271  0.20818761
   0.66003888  0.42419869  0.25715597
   0.64541167  0.14341476  0.09150121
   0.48220447  0.10888255  0.14988101
   0.72575810  0.31903744  0.12999846
   0.56383807  0.28988594  0.17584124
   0.31861812  0.46016021  0.20093996
   0.73428004  0.94634216  0.03977257
   0.64849157  0.77866680  0.10157830
   0.90554611  0.93634355  0.03150997
   0.90724028  0.63652723  0.18769157
   0.73708221  0.61299272  0.15262615
   0.98472028  0.81164222  0.14220128
   0.81981911  0.78570012  0.10715125
   0.56728822  0.95872938  0.08223214
   0.23449995  0.94855448  0.02577603
   0.14453414  0.77187695  0.06610566
   0.40660770  0.93647445  0.03222895
   0.37898481  0.65745876  0.20571581
   0.23081943  0.60766826  0.12684465
   0.46211374  0.83401658  0.16411471
   0.30919086  0.79299268  0.10460780
   0.06918074  0.95799698  0.06469698
   0.58979206  0.80669619  0.27018241
   0.67689571  0.61540428  0.33165713
   0.48041951  0.61635712  0.32151876
slab_Cel1-OPT                           
           1
    13.668239    0.000000    0.000000
     0.000000   11.160220    0.000000
     0.000000    0.000000   15.000000
   C    N    Ag   Pd