       N       E                     dE             d eps       ncg     rms          rms(c)
DAV:   1     0.244919212814E+04    0.24492E+04   -0.93468E+04  1536   0.101E+03
DAV:   2     0.136174253286E+02   -0.24356E+04   -0.23210E+04  1912   0.281E+02
DAV:   3    -0.489951940160E+03   -0.50357E+03   -0.49807E+03  1600   0.138E+02
DAV:   4    -0.507661997707E+03   -0.17710E+02   -0.17115E+02  1528   0.304E+01
DAV:   5    -0.508327500870E+03   -0.66550E+00   -0.65680E+00  1792   0.491E+00    0.420E+01
DAV:   6    -0.476591979069E+03    0.31736E+02   -0.94889E+01  1520   0.239E+01    0.231E+01
DAV:   7    -0.473108355328E+03    0.34836E+01   -0.12122E+01  1536   0.850E+00    0.129E+01
DAV:   8    -0.471918728317E+03    0.11896E+01   -0.38089E+00  1488   0.467E+00    0.319E+00
DAV:   9    -0.471793236964E+03    0.12549E+00   -0.39856E-01  1648   0.185E+00    0.119E+00
DAV:  10    -0.471769985743E+03    0.23251E-01   -0.11255E-01  1624   0.952E-01    0.657E-01
DAV:  11    -0.471757235406E+03    0.12750E-01   -0.25441E-02  1504   0.474E-01    0.312E-01
DAV:  12    -0.471751433307E+03    0.58021E-02   -0.11977E-02  1520   0.282E-01    0.197E-01
DAV:  13    -0.471750527709E+03    0.90560E-03   -0.51692E-03  1472   0.175E-01    0.108E-01
DAV:  14    -0.471752986582E+03   -0.24589E-02   -0.86137E-03  1372   0.169E-01    0.850E-02
DAV:  15    -0.471755943482E+03   -0.29569E-02   -0.56633E-04  1544   0.582E-02    0.564E-02
DAV:  16    -0.471760021933E+03   -0.40785E-02   -0.24816E-03  1440   0.108E-01    0.505E-02
DAV:  17    -0.471761319028E+03   -0.12971E-02   -0.26461E-04  1576   0.368E-02    0.419E-02
DAV:  18    -0.471763419060E+03   -0.21000E-02   -0.17580E-04  1368   0.314E-02    0.233E-02
DAV:  19    -0.471766623900E+03   -0.32048E-02   -0.33472E-04  1472   0.357E-02    0.203E-02
DAV:  20    -0.471768312390E+03   -0.16885E-02   -0.16448E-04  1360   0.258E-02    0.972E-03
DAV:  21    -0.471769393424E+03   -0.10810E-02   -0.74090E-05  1240   0.146E-02    0.717E-03
DAV:  22    -0.471769615917E+03   -0.22249E-03   -0.73252E-06  1016   0.634E-03    0.574E-03
DAV:  23    -0.471769765190E+03   -0.14927E-03   -0.12318E-05   912   0.785E-03    0.201E-03
DAV:  24    -0.471769790110E+03   -0.24920E-04   -0.39947E-06   924   0.420E-03    0.190E-03
DAV:  25    -0.471769795855E+03   -0.57450E-05   -0.26921E-06   864   0.326E-03
   1 F= -.47176980E+03 E0= -.47173284E+03  d E =-.471770E+03
       N       E                     dE             d eps       ncg     rms          rms(c)
DAV:   1    -0.471820068232E+03   -0.50278E-01   -0.20566E+00  1328   0.377E+00    0.666E-01
DAV:   2    -0.471820341526E+03   -0.27329E-03   -0.47260E-02  1456   0.554E-01    0.436E-01
DAV:   3    -0.471819496103E+03    0.84542E-03   -0.27757E-03  1416   0.161E-01    0.221E-01
DAV:   4    -0.471819298780E+03    0.19732E-03   -0.10816E-03  1468   0.954E-02    0.809E-02
DAV:   5    -0.471819282002E+03    0.16779E-04   -0.14983E-04  1420   0.383E-02    0.247E-02
DAV:   6    -0.471819280852E+03    0.11501E-05   -0.32039E-05  1032   0.161E-02
   2 F= -.47181928E+03 E0= -.47178222E+03  d E =-.494850E-01
       N       E                     dE             d eps       ncg     rms          rms(c)
DAV:   1    -0.471849986278E+03   -0.30704E-01   -0.48318E+00  1320   0.578E+00    0.988E-01
DAV:   2    -0.471850607349E+03   -0.62107E-03   -0.10958E-01  1440   0.844E-01    0.647E-01
DAV:   3    -0.471848638504E+03    0.19688E-02   -0.64041E-03  1404   0.243E-01    0.331E-01
DAV:   4    -0.471848147710E+03    0.49079E-03   -0.24717E-03  1448   0.146E-01    0.122E-01
DAV:   5    -0.471848115574E+03    0.32136E-04   -0.36430E-04  1440   0.587E-02    0.379E-02
DAV:   6    -0.471848115797E+03   -0.22340E-06   -0.90063E-05  1472   0.260E-02
   3 F= -.47184812E+03 E0= -.47181089E+03  d E =-.783199E-01
       N       E                     dE             d eps       ncg     rms          rms(c)
DAV:   1    -0.471871960372E+03   -0.23845E-01   -0.23379E+00  1320   0.423E+00    0.515E-01
DAV:   2    -0.471875108278E+03   -0.31479E-02   -0.54497E-02  1492   0.606E-01    0.267E-01
DAV:   3    -0.471874736452E+03    0.37183E-03   -0.30784E-03  1536   0.179E-01    0.175E-01
DAV:   4    -0.471874659989E+03    0.76463E-04   -0.77411E-04  1472   0.789E-02    0.954E-02
DAV:   5    -0.471874646560E+03    0.13428E-04   -0.16540E-04  1512   0.376E-02    0.212E-02
DAV:   6    -0.471874645109E+03    0.14510E-05   -0.61876E-05  1024   0.207E-02
   4 F= -.47187465E+03 E0= -.47183755E+03  d E =-.265293E-01
       N       E                     dE             d eps       ncg     rms          rms(c)
DAV:   1    -0.471878879559E+03   -0.42330E-02   -0.11965E+00  1312   0.303E+00    0.373E-01
DAV:   2    -0.471880455805E+03   -0.15762E-02   -0.28100E-02  1532   0.436E-01    0.189E-01
DAV:   3    -0.471880261566E+03    0.19424E-03   -0.16053E-03  1528   0.129E-01    0.124E-01
DAV:   4    -0.471880218007E+03    0.43559E-04   -0.39446E-04  1480   0.561E-02    0.684E-02
DAV:   5    -0.471880212716E+03    0.52904E-05   -0.85546E-05  1448   0.271E-02
   5 F= -.47188021E+03 E0= -.47184319E+03  d E =-.320969E-01
       N       E                     dE             d eps       ncg     rms          rms(c)
DAV:   1    -0.471892801206E+03   -0.12583E-01   -0.18782E+00  1312   0.389E+00    0.428E-01
DAV:   2    -0.471896322154E+03   -0.35209E-02   -0.45105E-02  1536   0.554E-01    0.226E-01
DAV:   3    -0.471895885248E+03    0.43691E-03   -0.19807E-03  1512   0.167E-01    0.144E-01
DAV:   4    -0.471895855347E+03    0.29901E-04   -0.90878E-04  1500   0.847E-02    0.704E-02
DAV:   5    -0.471895861068E+03   -0.57203E-05   -0.10691E-04  1500   0.313E-02    0.222E-02
DAV:   6    -0.471895866546E+03   -0.54785E-05   -0.42070E-05   832   0.171E-02
   6 F= -.47189587E+03 E0= -.47185886E+03  d E =-.156538E-01
       N       E                     dE             d eps       ncg     rms          rms(c)
DAV:   1    -0.471897669676E+03   -0.18086E-02   -0.82349E-01  1312   0.258E+00    0.284E-01
DAV:   2    -0.471899230564E+03   -0.15609E-02   -0.19891E-02  1604   0.368E-01    0.148E-01
DAV:   3    -0.471899039247E+03    0.19132E-03   -0.85481E-04  1496   0.111E-01    0.951E-02
DAV:   4    -0.471899027902E+03    0.11346E-04   -0.39872E-04  1516   0.562E-02    0.466E-02
DAV:   5    -0.471899033079E+03   -0.51775E-05   -0.36515E-05  1000   0.201E-02
   7 F= -.47189903E+03 E0= -.47186204E+03  d E =-.188204E-01
       N       E                     dE             d eps       ncg     rms          rms(c)
DAV:   1    -0.471905281083E+03   -0.62532E-02   -0.96194E-01  1312   0.275E+00    0.258E-01
DAV:   2    -0.471906920445E+03   -0.16394E-02   -0.21580E-02  1536   0.378E-01    0.154E-01
DAV:   3    -0.471906746932E+03    0.17351E-03   -0.83835E-04  1476   0.104E-01    0.103E-01
DAV:   4    -0.471906729819E+03    0.17113E-04   -0.33310E-04  1552   0.537E-02    0.527E-02
DAV:   5    -0.471906734662E+03   -0.48425E-05   -0.53814E-05  1360   0.232E-02
   8 F= -.47190673E+03 E0= -.47186989E+03  d E =-.770158E-02
       N       E                     dE             d eps       ncg     rms          rms(c)
DAV:   1    -0.471907900645E+03   -0.11708E-02   -0.10257E+00  1312   0.284E+00    0.268E-01
DAV:   2    -0.471909644628E+03   -0.17440E-02   -0.22993E-02  1560   0.390E-01    0.159E-01
DAV:   3    -0.471909458194E+03    0.18643E-03   -0.88261E-04  1480   0.108E-01    0.105E-01
DAV:   4    -0.471909438056E+03    0.20138E-04   -0.35069E-04  1568   0.552E-02    0.534E-02
DAV:   5    -0.471909442700E+03   -0.46442E-05   -0.44966E-05  1256   0.221E-02
   9 F= -.47190944E+03 E0= -.47187275E+03  d E =-.104096E-01
       N       E                     dE             d eps       ncg     rms          rms(c)
DAV:   1    -0.471914231038E+03   -0.47930E-02   -0.56454E-01  1312   0.210E+00    0.231E-01
DAV:   2    -0.471914983825E+03   -0.75279E-03   -0.12442E-02  1500   0.293E-01    0.117E-01
DAV:   3    -0.471914899563E+03    0.84262E-04   -0.59298E-04  1488   0.834E-02    0.733E-02
DAV:   4    -0.471914889787E+03    0.97754E-05   -0.17124E-04  1480   0.378E-02    0.379E-02
DAV:   5    -0.471914892535E+03   -0.27477E-05   -0.26673E-05   832   0.175E-02
  10 F= -.47191489E+03 E0= -.47187824E+03  d E =-.544984E-02
       N       E                     dE             d eps       ncg     rms          rms(c)
DAV:   1    -0.471916446356E+03   -0.15566E-02   -0.15629E+00  1312   0.350E+00    0.381E-01
DAV:   2    -0.471918533569E+03   -0.20872E-02   -0.34363E-02  1504   0.487E-01    0.194E-01
DAV:   3    -0.471918291298E+03    0.24227E-03   -0.16047E-03  1472   0.138E-01    0.123E-01
DAV:   4    -0.471918253709E+03    0.37589E-04   -0.47988E-04  1508   0.629E-02    0.632E-02
DAV:   5    -0.471918252528E+03    0.11813E-05   -0.72802E-05  1436   0.279E-02
  11 F= -.47191825E+03 E0= -.47188169E+03  d E =-.880983E-02
       N       E                     dE             d eps       ncg     rms          rms(c)
DAV:   1    -0.471920155371E+03   -0.19017E-02   -0.27161E-01  1312   0.144E+00    0.146E-01
DAV:   2    -0.471920488777E+03   -0.33341E-03   -0.53944E-03  1472   0.198E-01    0.761E-02
DAV:   3    -0.471920439067E+03    0.49710E-04   -0.24426E-04  1504   0.529E-02    0.449E-02
DAV:   4    -0.471920434086E+03    0.49813E-05   -0.11032E-04  1436   0.316E-02    0.171E-02
DAV:   5    -0.471920436590E+03   -0.25044E-05   -0.17262E-05   896   0.132E-02
  12 F= -.47192044E+03 E0= -.47188383E+03  d E =-.218406E-02
       N       E                     dE             d eps       ncg     rms          rms(c)
DAV:   1    -0.471920738788E+03   -0.30470E-03   -0.12368E-01  1312   0.969E-01    0.999E-02
DAV:   2    -0.471920891514E+03   -0.15273E-03   -0.24699E-03  1544   0.134E-01    0.515E-02
DAV:   3    -0.471920867814E+03    0.23700E-04   -0.10773E-04  1528   0.357E-02    0.305E-02
DAV:   4    -0.471920865599E+03    0.22157E-05   -0.48195E-05  1396   0.214E-02
  13 F= -.47192087E+03 E0= -.47188423E+03  d E =-.261307E-02
       N       E                     dE             d eps       ncg     rms          rms(c)
DAV:   1    -0.471921994229E+03   -0.11264E-02   -0.17137E-01  1312   0.108E+00    0.900E-02
DAV:   2    -0.471922237796E+03   -0.24357E-03   -0.30659E-03  1496   0.145E-01    0.542E-02
DAV:   3    -0.471922219295E+03    0.18501E-04   -0.12852E-04  1544   0.354E-02    0.348E-02
DAV:   4    -0.471922217958E+03    0.13374E-05   -0.34327E-05  1028   0.180E-02
  14 F= -.47192222E+03 E0= -.47188557E+03  d E =-.135236E-02
       N       E                     dE             d eps       ncg     rms          rms(c)
DAV:   1    -0.471922451920E+03   -0.23262E-03   -0.31994E-01  1312   0.147E+00    0.123E-01
DAV:   2    -0.471922893404E+03   -0.44148E-03   -0.56525E-03  1488   0.196E-01    0.742E-02
DAV:   3    -0.471922858312E+03    0.35092E-04   -0.23871E-04  1504   0.485E-02    0.474E-02
DAV:   4    -0.471922853889E+03    0.44234E-05   -0.72352E-05  1396   0.253E-02
  15 F= -.47192285E+03 E0= -.47188619E+03  d E =-.198829E-02
       N       E                     dE             d eps       ncg     rms          rms(c)
DAV:   1    -0.471923854484E+03   -0.99617E-03   -0.17520E-01  1312   0.100E+00    0.737E-02
DAV:   2    -0.471924051258E+03   -0.19677E-03   -0.25392E-03  1440   0.126E-01    0.447E-02
DAV:   3    -0.471924044688E+03    0.65696E-05   -0.10402E-04  1544   0.287E-02    0.277E-02
DAV:   4    -0.471924045668E+03   -0.97949E-06   -0.20835E-05   864   0.142E-02
  16 F= -.47192405E+03 E0= -.47188738E+03  d E =-.119178E-02
       N       E                     dE             d eps       ncg     rms          rms(c)
DAV:   1    -0.471924455404E+03   -0.41072E-03   -0.15793E+00  1312   0.301E+00    0.214E-01
DAV:   2    -0.471926253171E+03   -0.17978E-02   -0.22990E-02  1440   0.380E-01    0.129E-01
DAV:   3    -0.471926191933E+03    0.61238E-04   -0.95132E-04  1540   0.858E-02    0.816E-02
DAV:   4    -0.471926184844E+03    0.70897E-05   -0.20695E-04  1484   0.422E-02    0.333E-02
DAV:   5    -0.471926192818E+03   -0.79742E-05   -0.43304E-05  1096   0.195E-02
  17 F= -.47192619E+03 E0= -.47188952E+03  d E =-.333893E-02
       N       E                     dE             d eps       ncg     rms          rms(c)
DAV:   1    -0.471926031384E+03    0.15346E-03   -0.38117E-01  1312   0.148E+00    0.106E-01
DAV:   2    -0.471926471245E+03   -0.43986E-03   -0.55643E-03  1432   0.186E-01    0.630E-02
DAV:   3    -0.471926459113E+03    0.12132E-04   -0.22394E-04  1600   0.417E-02    0.398E-02
DAV:   4    -0.471926459339E+03   -0.22642E-06   -0.46484E-05  1176   0.205E-02
  18 F= -.47192646E+03 E0= -.47188979E+03  d E =-.360545E-02
       N       E                     dE             d eps       ncg     rms          rms(c)
DAV:   1    -0.471927510015E+03   -0.10509E-02   -0.20934E-01  1312   0.104E+00    0.732E-02
DAV:   2    -0.471927733698E+03   -0.22368E-03   -0.29496E-03  1500   0.134E-01    0.449E-02
DAV:   3    -0.471927726463E+03    0.72350E-05   -0.12581E-04  1484   0.306E-02    0.275E-02
DAV:   4    -0.471927728114E+03   -0.16502E-05   -0.29455E-05   896   0.161E-02
  19 F= -.47192773E+03 E0= -.47189108E+03  d E =-.126877E-02
       N       E                     dE             d eps       ncg     rms          rms(c)
DAV:   1    -0.471928279594E+03   -0.55313E-03   -0.18843E+00  1312   0.313E+00    0.216E-01
DAV:   2    -0.471930286141E+03   -0.20065E-02   -0.26579E-02  1488   0.404E-01    0.135E-01
DAV:   3    -0.471930201397E+03    0.84745E-04   -0.11753E-03  1476   0.937E-02    0.832E-02
DAV:   4    -0.471930192456E+03    0.89405E-05   -0.29462E-04  1496   0.489E-02    0.375E-02
DAV:   5    -0.471930201710E+03   -0.92539E-05   -0.80319E-05  1432   0.263E-02
  20 F= -.47193020E+03 E0= -.47189363E+03  d E =-.374237E-02
       N       E                     dE             d eps       ncg     rms          rms(c)
DAV:   1    -0.471921250156E+03    0.89423E-02   -0.75457E+00  1312   0.626E+00    0.430E-01
DAV:   2    -0.471929433844E+03   -0.81837E-02   -0.10672E-01  1484   0.811E-01    0.269E-01
DAV:   3    -0.471929071124E+03    0.36272E-03   -0.46488E-03  1488   0.186E-01    0.167E-01
DAV:   4    -0.471929026113E+03    0.45011E-04   -0.11752E-03  1520   0.978E-02    0.755E-02
DAV:   5    -0.471929058859E+03   -0.32746E-04   -0.33357E-04  1552   0.532E-02    0.264E-02
DAV:   6    -0.471929074975E+03   -0.16116E-04   -0.63916E-05  1368   0.238E-02    0.147E-02
DAV:   7    -0.471929085028E+03   -0.10054E-04   -0.91527E-06   828   0.896E-03    0.812E-03
DAV:   8    -0.471929097398E+03   -0.12370E-04   -0.41917E-06   852   0.571E-03    0.329E-03
DAV:   9    -0.471929104039E+03   -0.66409E-05   -0.16465E-06   856   0.320E-03
  21 F= -.47192910E+03 E0= -.47189268E+03  d E =-.264470E-02
       N       E                     dE             d eps       ncg     rms          rms(c)
DAV:   1    -0.471927466174E+03    0.16312E-02   -0.31672E+00  1312   0.406E+00    0.284E-01
DAV:   2    -0.471930896573E+03   -0.34304E-02   -0.44859E-02  1484   0.526E-01    0.173E-01
DAV:   3    -0.471930763478E+03    0.13309E-03   -0.19479E-03  1492   0.121E-01    0.107E-01
DAV:   4    -0.471930743388E+03    0.20089E-04   -0.49675E-04  1504   0.637E-02    0.476E-02
DAV:   5    -0.471930758297E+03   -0.14908E-04   -0.13577E-04  1592   0.339E-02    0.169E-02
DAV:   6    -0.471930763834E+03   -0.55370E-05   -0.23780E-05   928   0.151E-02
  22 F= -.47193076E+03 E0= -.47189424E+03  d E =-.430449E-02
       N       E                     dE             d eps       ncg     rms          rms(c)
DAV:   1    -0.471931814705E+03   -0.10564E-02   -0.20901E-01  1312   0.100E+00    0.635E-02
DAV:   2    -0.471932022010E+03   -0.20730E-03   -0.27100E-03  1472   0.125E-01    0.409E-02
DAV:   3    -0.471932016504E+03    0.55060E-05   -0.10193E-04  1368   0.262E-02    0.241E-02
DAV:   4    -0.471932019554E+03   -0.30501E-05   -0.21116E-05   860   0.138E-02
  23 F= -.47193202E+03 E0= -.47189551E+03  d E =-.125572E-02
       N       E                     dE             d eps       ncg     rms          rms(c)
DAV:   1    -0.471933620420E+03   -0.16039E-02   -0.18831E+00  1312   0.302E+00    0.191E-01
DAV:   2    -0.471935545371E+03   -0.19250E-02   -0.24594E-02  1444   0.375E-01    0.122E-01
DAV:   3    -0.471935492681E+03    0.52691E-04   -0.91804E-04  1536   0.780E-02    0.742E-02
DAV:   4    -0.471935505953E+03   -0.13272E-04   -0.19913E-04  1464   0.399E-02    0.270E-02
DAV:   5    -0.471935517088E+03   -0.11135E-04   -0.40104E-05  1128   0.188E-02    0.110E-02
DAV:   6    -0.471935518564E+03   -0.14765E-05   -0.88796E-06   848   0.897E-03
  24 F= -.47193552E+03 E0= -.47189906E+03  d E =-.475473E-02
       N       E                     dE             d eps       ncg     rms          rms(c)
DAV:   1    -0.471933564564E+03    0.19525E-02   -0.75388E+00  1312   0.604E+00    0.381E-01
DAV:   2    -0.471941351985E+03   -0.77874E-02   -0.98659E-02  1476   0.751E-01    0.245E-01
DAV:   3    -0.471941082824E+03    0.26916E-03   -0.36640E-03  1536   0.155E-01    0.150E-01
DAV:   4    -0.471941127885E+03   -0.45061E-04   -0.79635E-04  1480   0.794E-02    0.534E-02
DAV:   5    -0.471941168788E+03   -0.40903E-04   -0.15953E-04  1552   0.367E-02    0.218E-02
DAV:   6    -0.471941175322E+03   -0.65345E-05   -0.30511E-05   920   0.163E-02
  25 F= -.47194118E+03 E0= -.47190483E+03  d E =-.104115E-01
       N       E                     dE             d eps       ncg     rms          rms(c)
DAV:   1    -0.471915097168E+03    0.26072E-01   -0.30241E+01  1312   0.121E+01    0.766E-01
DAV:   2    -0.471947091071E+03   -0.31994E-01   -0.39764E-01  1480   0.151E+00    0.500E-01
DAV:   3    -0.471945857516E+03    0.12336E-02   -0.14868E-02  1592   0.310E-01    0.309E-01
DAV:   4    -0.471945793414E+03    0.64102E-04   -0.31468E-03  1456   0.158E-01    0.111E-01
DAV:   5    -0.471945948466E+03   -0.15505E-03   -0.64201E-04  1600   0.733E-02    0.443E-02
DAV:   6    -0.471945972132E+03   -0.23666E-04   -0.13577E-04  1488   0.333E-02    0.251E-02
DAV:   7    -0.471945989128E+03   -0.16996E-04   -0.22595E-05   928   0.147E-02    0.129E-02
DAV:   8    -0.471946015636E+03   -0.26508E-04   -0.10613E-05   904   0.885E-03    0.435E-03
DAV:   9    -0.471946028607E+03   -0.12971E-04   -0.27830E-06   888   0.435E-03    0.237E-03
DAV:  10    -0.471946041698E+03   -0.13091E-04   -0.11451E-06   840   0.231E-03    0.121E-03
DAV:  11    -0.471946058304E+03   -0.16607E-04   -0.12454E-06   864   0.187E-03    0.726E-04
DAV:  12    -0.471946068794E+03   -0.10489E-04   -0.81322E-07   864   0.139E-03    0.659E-04
DAV:  13    -0.471946076362E+03   -0.75689E-05   -0.65480E-07   872   0.121E-03
  26 F= -.47194608E+03 E0= -.47190993E+03  d E =-.153125E-01
       N       E                     dE             d eps       ncg     rms          rms(c)
DAV:   1    -0.471948036447E+03   -0.19677E-02   -0.10291E+00  1312   0.220E+00    0.147E-01
DAV:   2    -0.471949067188E+03   -0.10307E-02   -0.13300E-02  1480   0.275E-01    0.878E-02
DAV:   3    -0.471949032057E+03    0.35131E-04   -0.50670E-04  1552   0.566E-02    0.532E-02
DAV:   4    -0.471949038998E+03   -0.69409E-05   -0.11873E-04  1432   0.310E-02    0.173E-02
DAV:   5    -0.471949044241E+03   -0.52425E-05   -0.19911E-05   952   0.137E-02
  27 F= -.47194904E+03 E0= -.47191295E+03  d E =-.296788E-02
       N       E                     dE             d eps       ncg     rms          rms(c)
DAV:   1    -0.471947247528E+03    0.17915E-02   -0.92709E+00  1312   0.659E+00    0.443E-01
DAV:   2    -0.471956647795E+03   -0.94003E-02   -0.12019E-01  1480   0.828E-01    0.264E-01
DAV:   3    -0.471956341553E+03    0.30624E-03   -0.45750E-03  1536   0.169E-01    0.161E-01
DAV:   4    -0.471956358753E+03   -0.17200E-04   -0.10533E-03  1448   0.919E-02    0.517E-02
DAV:   5    -0.471956396685E+03   -0.37931E-04   -0.18543E-04  1496   0.408E-02    0.251E-02
DAV:   6    -0.471956408297E+03   -0.11612E-04   -0.29858E-05   992   0.159E-02    0.122E-02
DAV:   7    -0.471956414222E+03   -0.59249E-05   -0.62726E-06   844   0.795E-03
  28 F= -.47195641E+03 E0= -.47192046E+03  d E =-.103379E-01
       N       E                     dE             d eps       ncg     rms          rms(c)
DAV:   1    -0.471927509497E+03    0.28899E-01   -0.37220E+01  1312   0.132E+01    0.892E-01
DAV:   2    -0.471966057283E+03   -0.38548E-01   -0.48595E-01  1496   0.167E+00    0.539E-01
DAV:   3    -0.471964530461E+03    0.15268E-02   -0.18544E-02  1576   0.339E-01    0.330E-01
DAV:   4    -0.471964535698E+03   -0.52363E-05   -0.40962E-03  1472   0.181E-01    0.104E-01
DAV:   5    -0.471964675768E+03   -0.14007E-03   -0.74033E-04  1472   0.831E-02    0.532E-02
DAV:   6    -0.471964709982E+03   -0.34215E-04   -0.14431E-04  1544   0.350E-02    0.267E-02
DAV:   7    -0.471964727774E+03   -0.17791E-04   -0.23044E-05   952   0.154E-02    0.147E-02
DAV:   8    -0.471964752864E+03   -0.25090E-04   -0.12909E-05   952   0.101E-02    0.561E-03
DAV:   9    -0.471964766671E+03   -0.13808E-04   -0.30483E-06   896   0.494E-03    0.250E-03
DAV:  10    -0.471964782180E+03   -0.15508E-04   -0.13592E-06   856   0.249E-03    0.138E-03
DAV:  11    -0.471964797455E+03   -0.15275E-04   -0.10744E-06   880   0.180E-03    0.752E-04
DAV:  12    -0.471964809363E+03   -0.11908E-04   -0.10102E-06   896   0.157E-03    0.704E-04
DAV:  13    -0.471964817597E+03   -0.82337E-05   -0.68779E-07   888   0.123E-03
  29 F= -.47196482E+03 E0= -.47192915E+03  d E =-.187412E-01
       N       E                     dE             d eps       ncg     rms          rms(c)
DAV:   1    -0.471972860001E+03   -0.80506E-02   -0.13167E+00  1312   0.264E+00    0.213E-01
DAV:   2    -0.471974084778E+03   -0.12248E-02   -0.18710E-02  1456   0.347E-01    0.115E-01
DAV:   3    -0.471974009603E+03    0.75175E-04   -0.96412E-04  1496   0.878E-02    0.707E-02
DAV:   4    -0.471973998833E+03    0.10770E-04   -0.22274E-04  1440   0.447E-02    0.323E-02
DAV:   5    -0.471974006445E+03   -0.76126E-05   -0.59637E-05  1248   0.230E-02
  30 F= -.47197401E+03 E0= -.47193837E+03  d E =-.918885E-02
       N       E                     dE             d eps       ncg     rms          rms(c)
DAV:   1    -0.471981167732E+03   -0.71689E-02   -0.11857E+01  1312   0.792E+00    0.646E-01
DAV:   2    -0.471992281148E+03   -0.11113E-01   -0.16959E-01  1436   0.104E+00    0.345E-01
DAV:   3    -0.471991595690E+03    0.68546E-03   -0.86692E-03  1524   0.263E-01    0.214E-01
DAV:   4    -0.471991510068E+03    0.85622E-04   -0.19688E-03  1472   0.133E-01    0.993E-02
DAV:   5    -0.471991575396E+03   -0.65328E-04   -0.55427E-04  1476   0.697E-02    0.437E-02
DAV:   6    -0.471991596475E+03   -0.21079E-04   -0.11337E-04  1508   0.323E-02    0.207E-02
DAV:   7    -0.471991610895E+03   -0.14420E-04   -0.16045E-05   884   0.121E-02    0.106E-02
DAV:   8    -0.471991625514E+03   -0.14619E-04   -0.61746E-06   864   0.685E-03    0.444E-03
DAV:   9    -0.471991633744E+03   -0.82303E-05   -0.21798E-06   888   0.384E-03
  31 F= -.47199163E+03 E0= -.47195601E+03  d E =-.268161E-01
       N       E                     dE             d eps       ncg     rms          rms(c)
DAV:   1    -0.471939819718E+03    0.51806E-01   -0.47579E+01  1336   0.159E+01    0.131E+00
DAV:   2    -0.471985008989E+03   -0.45189E-01   -0.68058E-01  1460   0.209E+00    0.689E-01
DAV:   3    -0.471981816573E+03    0.31924E-02   -0.33883E-02  1528   0.521E-01    0.434E-01
DAV:   4    -0.471981269627E+03    0.54695E-03   -0.76473E-03  1452   0.264E-01    0.205E-01
DAV:   5    -0.471981485231E+03   -0.21560E-03   -0.23047E-03  1460   0.144E-01    0.912E-02
DAV:   6    -0.471981557154E+03   -0.71923E-04   -0.47761E-04  1496   0.667E-02    0.419E-02
DAV:   7    -0.471981600825E+03   -0.43671E-04   -0.72958E-05  1408   0.243E-02    0.223E-02
DAV:   8    -0.471981638851E+03   -0.38026E-04   -0.19319E-05   968   0.127E-02    0.921E-03
DAV:   9    -0.471981664755E+03   -0.25905E-04   -0.83898E-06   896   0.766E-03    0.331E-03
DAV:  10    -0.471981685679E+03   -0.20923E-04   -0.25864E-06   896   0.385E-03    0.207E-03
DAV:  11    -0.471981711879E+03   -0.26200E-04   -0.18852E-06   892   0.254E-03    0.109E-03
DAV:  12    -0.471981733941E+03   -0.22062E-04   -0.18444E-06   924   0.207E-03    0.790E-04
DAV:  13    -0.471981747269E+03   -0.13328E-04   -0.11191E-06   896   0.160E-03    0.419E-04
DAV:  14    -0.471981754404E+03   -0.71353E-05   -0.72074E-07   888   0.121E-03
  32 F= -.47198175E+03 E0= -.47194617E+03  d E =-.169368E-01
       N       E                     dE             d eps       ncg     rms          rms(c)
DAV:   1    -0.471976671638E+03    0.50756E-02   -0.21046E+01  1328   0.105E+01    0.869E-01
DAV:   2    -0.471996707293E+03   -0.20036E-01   -0.29592E-01  1448   0.137E+00    0.468E-01
DAV:   3    -0.471995268522E+03    0.14388E-02   -0.15069E-02  1536   0.349E-01    0.288E-01
DAV:   4    -0.471995009134E+03    0.25939E-03   -0.37361E-03  1440   0.183E-01    0.123E-01
DAV:   5    -0.471995094577E+03   -0.85443E-04   -0.96568E-04  1480   0.924E-02    0.560E-02
DAV:   6    -0.471995115725E+03   -0.21148E-04   -0.19100E-04  1540   0.420E-02    0.279E-02
DAV:   7    -0.471995129424E+03   -0.13699E-04   -0.27783E-05  1136   0.156E-02    0.148E-02
DAV:   8    -0.471995143795E+03   -0.14371E-04   -0.99665E-06   928   0.888E-03    0.603E-03
DAV:   9    -0.471995152721E+03   -0.89259E-05   -0.32240E-06   904   0.491E-03
  33 F= -.47199515E+03 E0= -.47195955E+03  d E =-.303351E-01
       N       E                     dE             d eps       ncg     rms          rms(c)
DAV:   1    -0.472002192419E+03   -0.70486E-02   -0.14581E+00  1360   0.284E+00    0.206E-01
DAV:   2    -0.472003679432E+03   -0.14870E-02   -0.20409E-02  1416   0.359E-01    0.120E-01
DAV:   3    -0.472003587896E+03    0.91536E-04   -0.82870E-04  1536   0.784E-02    0.714E-02
DAV:   4    -0.472003595660E+03   -0.77641E-05   -0.24047E-04  1420   0.456E-02    0.259E-02
DAV:   5    -0.472003606852E+03   -0.11192E-04   -0.54576E-05  1260   0.225E-02    0.125E-02
DAV:   6    -0.472003611078E+03   -0.42258E-05   -0.96914E-06   840   0.101E-02
  34 F= -.47200361E+03 E0= -.47196795E+03  d E =-.845836E-02
       N       E                     dE             d eps       ncg     rms          rms(c)
DAV:   1    -0.472008825879E+03   -0.52190E-02   -0.13130E+01  1344   0.852E+00    0.623E-01
DAV:   2    -0.472022439930E+03   -0.13614E-01   -0.18669E-01  1424   0.108E+00    0.362E-01
DAV:   3    -0.472021560556E+03    0.87937E-03   -0.75640E-03  1552   0.235E-01    0.219E-01
DAV:   4    -0.472021550878E+03    0.96788E-05   -0.20856E-03  1444   0.134E-01    0.823E-02
DAV:   5    -0.472021616601E+03   -0.65723E-04   -0.52862E-04  1520   0.686E-02    0.394E-02
DAV:   6    -0.472021636564E+03   -0.19963E-04   -0.99571E-05  1488   0.310E-02    0.210E-02
DAV:   7    -0.472021650152E+03   -0.13588E-04   -0.15926E-05   848   0.124E-02    0.105E-02
DAV:   8    -0.472021662271E+03   -0.12119E-04   -0.63815E-06   856   0.717E-03    0.426E-03
DAV:   9    -0.472021669981E+03   -0.77101E-05   -0.21536E-06   864   0.384E-03
  35 F= -.47202167E+03 E0= -.47198579E+03  d E =-.265173E-01
       N       E                     dE             d eps       ncg     rms          rms(c)
DAV:   1    -0.471970860980E+03    0.50801E-01   -0.52656E+01  1360   0.171E+01    0.128E+00
DAV:   2    -0.472026695699E+03   -0.55835E-01   -0.75667E-01  1480   0.218E+00    0.742E-01
DAV:   3    -0.472022595272E+03    0.41004E-02   -0.28988E-02  1536   0.463E-01    0.452E-01
DAV:   4    -0.472022222298E+03    0.37297E-03   -0.78815E-03  1480   0.260E-01    0.181E-01
DAV:   5    -0.472022504836E+03   -0.28254E-03   -0.22934E-03  1552   0.140E-01    0.820E-02
DAV:   6    -0.472022572501E+03   -0.67665E-04   -0.45282E-04  1544   0.658E-02    0.422E-02
DAV:   7    -0.472022621805E+03   -0.49303E-04   -0.75453E-05  1440   0.253E-02    0.214E-02
DAV:   8    -0.472022663394E+03   -0.41589E-04   -0.23118E-05   928   0.136E-02    0.843E-03
DAV:   9    -0.472022688419E+03   -0.25025E-04   -0.88238E-06   888   0.758E-03    0.303E-03
DAV:  10    -0.472022711241E+03   -0.22822E-04   -0.25406E-06   912   0.379E-03    0.169E-03
DAV:  11    -0.472022732197E+03   -0.20956E-04   -0.15269E-06   864   0.238E-03    0.105E-03
DAV:  12    -0.472022753282E+03   -0.21085E-04   -0.17440E-06   896   0.207E-03    0.707E-04
DAV:  13    -0.472022764690E+03   -0.11408E-04   -0.10230E-06   896   0.154E-03    0.534E-04
DAV:  14    -0.472022770709E+03   -0.60191E-05   -0.57184E-07   832   0.112E-03
  36 F= -.47202277E+03 E0= -.47198640E+03  d E =-.276180E-01
       N       E                     dE             d eps       ncg     rms          rms(c)
DAV:   1    -0.472016546193E+03    0.62185E-02   -0.12153E+01  1376   0.819E+00    0.597E-01
DAV:   2    -0.472028913581E+03   -0.12367E-01   -0.16800E-01  1448   0.103E+00    0.349E-01
DAV:   3    -0.472028031835E+03    0.88175E-03   -0.66636E-03  1552   0.225E-01    0.205E-01
DAV:   4    -0.472028003686E+03    0.28148E-04   -0.20789E-03  1452   0.134E-01    0.706E-02
DAV:   5    -0.472028046050E+03   -0.42364E-04   -0.47261E-04  1492   0.654E-02    0.364E-02
DAV:   6    -0.472028059775E+03   -0.13725E-04   -0.82877E-05  1464   0.283E-02    0.200E-02
DAV:   7    -0.472028067573E+03   -0.77981E-05   -0.13997E-05   864   0.117E-02
  37 F= -.47202807E+03 E0= -.47199196E+03  d E =-.329149E-01
       N       E                     dE             d eps       ncg     rms          rms(c)
DAV:   1    -0.472039981110E+03   -0.11921E-01   -0.45423E+00  1376   0.523E+00    0.348E-01
DAV:   2    -0.472044502633E+03   -0.45215E-02   -0.62111E-02  1432   0.629E-01    0.218E-01
DAV:   3    -0.472044154967E+03    0.34767E-03   -0.22655E-03  1568   0.130E-01    0.124E-01
DAV:   4    -0.472044196009E+03   -0.41043E-04   -0.59662E-04  1448   0.729E-02    0.365E-02
DAV:   5    -0.472044224631E+03   -0.28621E-04   -0.10433E-04  1440   0.304E-02    0.193E-02
DAV:   6    -0.472044230626E+03   -0.59949E-05   -0.10503E-05   780   0.991E-03
  38 F= -.47204423E+03 E0= -.47200816E+03  d E =-.161631E-01
       N       E                     dE             d eps       ncg     rms          rms(c)
DAV:   1    -0.472039086813E+03    0.51378E-02   -0.31355E+01  1376   0.137E+01    0.939E-01
DAV:   2    -0.472071228821E+03   -0.32142E-01   -0.43656E-01  1496   0.167E+00    0.584E-01
DAV:   3    -0.472068492704E+03    0.27361E-02   -0.15687E-02  1592   0.340E-01    0.345E-01
DAV:   4    -0.472068550722E+03   -0.58018E-04   -0.38422E-03  1456   0.185E-01    0.109E-01
DAV:   5    -0.472068811542E+03   -0.26082E-03   -0.73203E-04  1616   0.770E-02    0.485E-02
DAV:   6    -0.472068860252E+03   -0.48710E-04   -0.69656E-05  1360   0.244E-02    0.241E-02
DAV:   7    -0.472068898239E+03   -0.37987E-04   -0.16287E-05   904   0.124E-02    0.995E-03
DAV:   8    -0.472068924546E+03   -0.26307E-04   -0.75069E-06   904   0.746E-03    0.321E-03
DAV:   9    -0.472068942279E+03   -0.17733E-04   -0.22058E-06   888   0.362E-03    0.202E-03
DAV:  10    -0.472068966065E+03   -0.23786E-04   -0.19708E-06   880   0.265E-03    0.121E-03
DAV:  11    -0.472068984188E+03   -0.18123E-04   -0.16855E-06   888   0.210E-03    0.920E-04
DAV:  12    -0.472068994468E+03   -0.10280E-04   -0.10523E-06   896   0.162E-03    0.667E-04
DAV:  13    -0.472069001275E+03   -0.68073E-05   -0.79447E-07   896   0.128E-03
  39 F= -.47206900E+03 E0= -.47203305E+03  d E =-.409337E-01
       N       E                     dE             d eps       ncg     rms          rms(c)
DAV:   1    -0.472064913738E+03    0.40807E-02   -0.68912E+00  1360   0.645E+00    0.433E-01
DAV:   2    -0.472071913541E+03   -0.69998E-02   -0.95974E-02  1472   0.779E-01    0.273E-01
DAV:   3    -0.472071371639E+03    0.54190E-03   -0.34116E-03  1544   0.160E-01    0.158E-01
DAV:   4    -0.472071445517E+03   -0.73878E-04   -0.86954E-04  1456   0.878E-02    0.484E-02
DAV:   5    -0.472071498139E+03   -0.52622E-04   -0.16118E-04  1592   0.365E-02    0.234E-02
DAV:   6    -0.472071508733E+03   -0.10594E-04   -0.13431E-05   808   0.119E-02    0.117E-02
DAV:   7    -0.472071517689E+03   -0.89561E-05   -0.52581E-06   860   0.731E-03
  40 F= -.47207152E+03 E0= -.47203562E+03  d E =-.434501E-01
       N       E                     dE             d eps       ncg     rms          rms(c)
DAV:   1    -0.472084618222E+03   -0.13109E-01   -0.67237E+00  1352   0.658E+00    0.440E-01
DAV:   2    -0.472091261943E+03   -0.66437E-02   -0.95270E-02  1480   0.788E-01    0.271E-01
DAV:   3    -0.472090669863E+03    0.59208E-03   -0.35228E-03  1592   0.166E-01    0.153E-01
DAV:   4    -0.472090778315E+03   -0.10845E-03   -0.10913E-03  1512   0.977E-02    0.444E-02
DAV:   5    -0.472090827297E+03   -0.48982E-04   -0.19222E-04  1504   0.424E-02    0.237E-02
DAV:   6    -0.472090848897E+03   -0.21600E-04   -0.25240E-05   896   0.155E-02    0.127E-02
DAV:   7    -0.472090860804E+03   -0.11907E-04   -0.61207E-06   848   0.780E-03    0.631E-03
DAV:   8    -0.472090871142E+03   -0.10339E-04   -0.26564E-06   896   0.468E-03    0.264E-03
DAV:   9    -0.472090878125E+03   -0.69831E-05   -0.10266E-06   856   0.251E-03
  41 F= -.47209088E+03 E0= -.47205497E+03  d E =-.193604E-01
       N       E                     dE             d eps       ncg     rms          rms(c)
DAV:   1    -0.472065032832E+03    0.25838E-01   -0.60529E+01  1360   0.197E+01    0.138E+00
DAV:   2    -0.472128907507E+03   -0.63875E-01   -0.87791E-01  1496   0.240E+00    0.816E-01
DAV:   3    -0.472123447209E+03    0.54603E-02   -0.33881E-02  1640   0.499E-01    0.486E-01
DAV:   4    -0.472122889756E+03    0.55745E-03   -0.87476E-03  1496   0.281E-01    0.157E-01
DAV:   5    -0.472123344628E+03   -0.45487E-03   -0.18489E-03  1544   0.131E-01    0.761E-02
DAV:   6    -0.472123486255E+03   -0.14163E-03   -0.32669E-04  1504   0.547E-02    0.416E-02
DAV:   7    -0.472123546426E+03   -0.60171E-04   -0.52205E-05  1240   0.231E-02    0.199E-02
DAV:   8    -0.472123596504E+03   -0.50079E-04   -0.15336E-05   952   0.121E-02    0.717E-03
DAV:   9    -0.472123626933E+03   -0.30428E-04   -0.57890E-06   912   0.648E-03    0.286E-03
DAV:  10    -0.472123656928E+03   -0.29995E-04   -0.31225E-06   924   0.364E-03    0.172E-03
DAV:  11    -0.472123686742E+03   -0.29815E-04   -0.26701E-06   952   0.267E-03    0.108E-03
DAV:  12    -0.472123709134E+03   -0.22392E-04   -0.25190E-06   944   0.231E-03    0.826E-04
DAV:  13    -0.472123720141E+03   -0.11007E-04   -0.12320E-06   928   0.167E-03    0.432E-04
DAV:  14    -0.472123725610E+03   -0.54694E-05   -0.71587E-07   904   0.121E-03
  42 F= -.47212373E+03 E0= -.47208775E+03  d E =-.522079E-01
       N       E                     dE             d eps       ncg     rms          rms(c)
DAV:   1    -0.472118929102E+03    0.47910E-02   -0.71326E+00  1360   0.678E+00    0.455E-01
DAV:   2    -0.472126104615E+03   -0.71755E-02   -0.10163E-01  1444   0.813E-01    0.280E-01
DAV:   3    -0.472125513285E+03    0.59133E-03   -0.37110E-03  1600   0.170E-01    0.160E-01
DAV:   4    -0.472125623555E+03   -0.11027E-03   -0.11399E-03  1492   0.100E-01    0.479E-02
DAV:   5    -0.472125668978E+03   -0.45424E-04   -0.22813E-04  1496   0.460E-02    0.257E-02
DAV:   6    -0.472125687869E+03   -0.18891E-04   -0.33839E-05  1032   0.185E-02    0.145E-02
DAV:   7    -0.472125696138E+03   -0.82683E-05   -0.63424E-06   824   0.828E-03
  43 F= -.47212570E+03 E0= -.47208970E+03  d E =-.541784E-01
       N       E                     dE             d eps       ncg     rms          rms(c)
DAV:   1    -0.472140085794E+03   -0.14398E-01   -0.16436E+01  1360   0.107E+01    0.709E-01
DAV:   2    -0.472158257941E+03   -0.18172E-01   -0.25031E-01  1520   0.128E+00    0.449E-01
DAV:   3    -0.472156363218E+03    0.18947E-02   -0.87344E-03  1584   0.270E-01    0.261E-01
DAV:   4    -0.472156491359E+03   -0.12814E-03   -0.27616E-03  1524   0.156E-01    0.932E-02
DAV:   5    -0.472156632678E+03   -0.14132E-03   -0.69090E-04  1536   0.787E-02    0.429E-02
DAV:   6    -0.472156683223E+03   -0.50545E-04   -0.14849E-04  1532   0.362E-02    0.234E-02
DAV:   7    -0.472156706455E+03   -0.23232E-04   -0.18067E-05   940   0.127E-02    0.120E-02
DAV:   8    -0.472156727214E+03   -0.20759E-04   -0.65905E-06   884   0.748E-03    0.425E-03
DAV:   9    -0.472156738079E+03   -0.10865E-04   -0.24324E-06   864   0.396E-03    0.185E-03
DAV:  10    -0.472156747951E+03   -0.98720E-05   -0.10370E-06   836   0.214E-03
  44 F= -.47215675E+03 E0= -.47212096E+03  d E =-.310518E-01
       N       E                     dE             d eps       ncg     rms          rms(c)
DAV:   1    -0.472135856915E+03    0.20881E-01   -0.35806E+01  1360   0.157E+01    0.107E+00
DAV:   2    -0.472176676984E+03   -0.40820E-01   -0.55348E-01  1528   0.190E+00    0.667E-01
DAV:   3    -0.472172562359E+03    0.41146E-02   -0.19057E-02  1624   0.396E-01    0.398E-01
DAV:   4    -0.472172451594E+03    0.11076E-03   -0.56226E-03  1500   0.222E-01    0.144E-01
DAV:   5    -0.472172769157E+03   -0.31756E-03   -0.14450E-03  1612   0.112E-01    0.629E-02
DAV:   6    -0.472172858846E+03   -0.89690E-04   -0.33992E-04  1508   0.536E-02    0.331E-02
DAV:   7    -0.472172896742E+03   -0.37896E-04   -0.40429E-05  1256   0.187E-02    0.171E-02
DAV:   8    -0.472172934673E+03   -0.37931E-04   -0.11171E-05   896   0.101E-02    0.581E-03
DAV:   9    -0.472172954546E+03   -0.19873E-04   -0.48856E-06   912   0.561E-03    0.232E-03
DAV:  10    -0.472172969833E+03   -0.15287E-04   -0.17017E-06   824   0.290E-03    0.143E-03
DAV:  11    -0.472172988365E+03   -0.18531E-04   -0.14656E-06   904   0.210E-03    0.844E-04
DAV:  12    -0.472173004514E+03   -0.16149E-04   -0.14705E-06   900   0.180E-03    0.672E-04
DAV:  13    -0.472173012845E+03   -0.83307E-05   -0.72612E-07   896   0.130E-03
  45 F= -.47217301E+03 E0= -.47213760E+03  d E =-.473167E-01
       N       E                     dE             d eps       ncg     rms          rms(c)
DAV:   1    -0.472189290414E+03   -0.16286E-01   -0.16266E+01  1376   0.110E+01    0.742E-01
DAV:   2    -0.472208062003E+03   -0.18772E-01   -0.26216E-01  1496   0.132E+00    0.474E-01
DAV:   3    -0.472206138169E+03    0.19238E-02   -0.88671E-03  1564   0.286E-01    0.282E-01
DAV:   4    -0.472206221322E+03   -0.83153E-04   -0.28411E-03  1492   0.159E-01    0.100E-01
DAV:   5    -0.472206398767E+03   -0.17745E-03   -0.59675E-04  1644   0.745E-02    0.427E-02
DAV:   6    -0.472206437820E+03   -0.39053E-04   -0.12215E-04  1468   0.332E-02    0.237E-02
DAV:   7    -0.472206456652E+03   -0.18832E-04   -0.17648E-05   872   0.137E-02    0.119E-02
DAV:   8    -0.472206479239E+03   -0.22587E-04   -0.72058E-06   924   0.783E-03    0.400E-03
DAV:   9    -0.472206490879E+03   -0.11640E-04   -0.22898E-06   872   0.395E-03    0.209E-03
DAV:  10    -0.472206501908E+03   -0.11029E-04   -0.12037E-06   860   0.231E-03    0.116E-03
DAV:  11    -0.472206512878E+03   -0.10970E-04   -0.91332E-07   872   0.165E-03    0.700E-04
DAV:  12    -0.472206522112E+03   -0.92337E-05   -0.98038E-07   936   0.149E-03
  46 F= -.47220652E+03 E0= -.47217099E+03  d E =-.335093E-01
       N       E                     dE             d eps       ncg     rms          rms(c)
DAV:   1    -0.472188117161E+03    0.18396E-01   -0.32818E+01  1376   0.157E+01    0.107E+00
DAV:   2    -0.472227197281E+03   -0.39080E-01   -0.53603E-01  1512   0.189E+00    0.676E-01
DAV:   3    -0.472223187487E+03    0.40098E-02   -0.17863E-02  1584   0.404E-01    0.412E-01
DAV:   4    -0.472223024960E+03    0.16253E-03   -0.56181E-03  1476   0.224E-01    0.151E-01
DAV:   5    -0.472223407438E+03   -0.38248E-03   -0.12423E-03  1656   0.106E-01    0.611E-02
DAV:   6    -0.472223481804E+03   -0.74366E-04   -0.24722E-04  1472   0.469E-02    0.335E-02
DAV:   7    -0.472223517752E+03   -0.35947E-04   -0.37427E-05  1032   0.198E-02    0.166E-02
DAV:   8    -0.472223558315E+03   -0.40563E-04   -0.13030E-05   940   0.107E-02    0.551E-03
DAV:   9    -0.472223580534E+03   -0.22220E-04   -0.45222E-06   904   0.551E-03    0.287E-03
DAV:  10    -0.472223601277E+03   -0.20743E-04   -0.23327E-06   880   0.329E-03    0.163E-03
DAV:  11    -0.472223622655E+03   -0.21377E-04   -0.19286E-06   920   0.236E-03    0.986E-04
DAV:  12    -0.472223639113E+03   -0.16458E-04   -0.18167E-06   936   0.207E-03    0.774E-04
DAV:  13    -0.472223648440E+03   -0.93269E-05   -0.11345E-06   912   0.160E-03
  47 F= -.47222365E+03 E0= -.47218790E+03  d E =-.506356E-01
       N       E                     dE             d eps       ncg     rms          rms(c)
DAV:   1    -0.472236693352E+03   -0.13054E-01   -0.15346E+01  1344   0.111E+01    0.826E-01
DAV:   2    -0.472256370728E+03   -0.19677E-01   -0.28343E-01  1572   0.139E+00    0.502E-01
DAV:   3    -0.472254283326E+03    0.20874E-02   -0.10377E-02  1600   0.322E-01    0.299E-01
DAV:   4    -0.472254294913E+03   -0.11587E-04   -0.30944E-03  1496   0.169E-01    0.126E-01
DAV:   5    -0.472254476195E+03   -0.18128E-03   -0.64221E-04  1664   0.781E-02    0.481E-02
DAV:   6    -0.472254516633E+03   -0.40438E-04   -0.13422E-04  1512   0.353E-02    0.254E-02
DAV:   7    -0.472254527198E+03   -0.10565E-04   -0.22870E-05   840   0.161E-02    0.130E-02
DAV:   8    -0.472254541052E+03   -0.13854E-04   -0.76690E-06   884   0.856E-03    0.452E-03
DAV:   9    -0.472254547073E+03   -0.60210E-05   -0.17734E-06   864   0.398E-03
  48 F= -.47225455E+03 E0= -.47221899E+03  d E =-.308986E-01
       N       E                     dE             d eps       ncg     rms          rms(c)
DAV:   1    -0.472253487306E+03    0.10537E-02   -0.48001E+00  1344   0.618E+00    0.455E-01
DAV:   2    -0.472259561420E+03   -0.60741E-02   -0.88276E-02  1556   0.774E-01    0.281E-01
DAV:   3    -0.472258941346E+03    0.62007E-03   -0.32405E-03  1584   0.180E-01    0.167E-01
DAV:   4    -0.472258971126E+03   -0.29780E-04   -0.97468E-04  1476   0.951E-02    0.695E-02
DAV:   5    -0.472259030995E+03   -0.59869E-04   -0.20438E-04  1648   0.436E-02    0.261E-02
DAV:   6    -0.472259047108E+03   -0.16113E-04   -0.36223E-05  1024   0.188E-02    0.137E-02
DAV:   7    -0.472259053873E+03   -0.67649E-05   -0.73716E-06   836   0.897E-03
  49 F= -.47225905E+03 E0= -.47222367E+03  d E =-.354054E-01
       N       E                     dE             d eps       ncg     rms          rms(c)
DAV:   1    -0.472270573994E+03   -0.11527E-01   -0.14658E+01  1312   0.108E+01    0.816E-01
DAV:   2    -0.472290280645E+03   -0.19707E-01   -0.28504E-01  1568   0.136E+00    0.506E-01
DAV:   3    -0.472288221919E+03    0.20587E-02   -0.10476E-02  1584   0.320E-01    0.314E-01
DAV:   4    -0.472288155280E+03    0.66640E-04   -0.33275E-03  1464   0.173E-01    0.150E-01
DAV:   5    -0.472288319856E+03   -0.16458E-03   -0.90338E-04  1624   0.866E-02    0.570E-02
DAV:   6    -0.472288370966E+03   -0.51109E-04   -0.19696E-04  1468   0.408E-02    0.274E-02
DAV:   7    -0.472288387393E+03   -0.16427E-04   -0.28734E-05   936   0.167E-02    0.135E-02
DAV:   8    -0.472288406269E+03   -0.18876E-04   -0.78150E-06   920   0.823E-03    0.430E-03
DAV:   9    -0.472288414206E+03   -0.79367E-05   -0.20431E-06   864   0.403E-03
  50 F= -.47228841E+03 E0= -.47225281E+03  d E =-.293603E-01
       N       E                     dE             d eps       ncg     rms          rms(c)
DAV:   1    -0.472286531238E+03    0.18750E-02   -0.61067E+00  1312   0.694E+00    0.518E-01
DAV:   2    -0.472294640182E+03   -0.81089E-02   -0.11788E-01  1576   0.876E-01    0.326E-01
DAV:   3    -0.472293802580E+03    0.83760E-03   -0.42928E-03  1592   0.205E-01    0.200E-01
DAV:   4    -0.472293802402E+03    0.17806E-06   -0.14014E-03  1480   0.112E-01    0.942E-02
DAV:   5    -0.472293869837E+03   -0.67435E-04   -0.36284E-04  1612   0.549E-02    0.362E-02
DAV:   6    -0.472293893430E+03   -0.23594E-04   -0.77804E-05  1296   0.255E-02    0.176E-02
DAV:   7    -0.472293902738E+03   -0.93075E-05   -0.11910E-05   832   0.109E-02
  51 F= -.47229390E+03 E0= -.47225815E+03  d E =-.348489E-01
       N       E                     dE             d eps       ncg     rms          rms(c)
DAV:   1    -0.472304832425E+03   -0.10939E-01   -0.15862E+01  1312   0.109E+01    0.813E-01
DAV:   2    -0.472325855664E+03   -0.21023E-01   -0.29949E-01  1508   0.140E+00    0.517E-01
DAV:   3    -0.472324124436E+03    0.17312E-02   -0.11340E-02  1608   0.316E-01    0.322E-01
DAV:   4    -0.472323915515E+03    0.20892E-03   -0.32064E-03  1440   0.175E-01    0.154E-01
DAV:   5    -0.472324085160E+03   -0.16964E-03   -0.88331E-04  1552   0.887E-02    0.534E-02
DAV:   6    -0.472324133738E+03   -0.48578E-04   -0.17018E-04  1504   0.390E-02    0.282E-02
DAV:   7    -0.472324153738E+03   -0.20000E-04   -0.30749E-05   908   0.170E-02    0.138E-02
DAV:   8    -0.472324177655E+03   -0.23917E-04   -0.89965E-06   892   0.903E-03    0.475E-03
DAV:   9    -0.472324188496E+03   -0.10841E-04   -0.22702E-06   856   0.437E-03    0.269E-03
DAV:  10    -0.472324201399E+03   -0.12903E-04   -0.13823E-06   816   0.274E-03    0.139E-03
DAV:  11    -0.472324211415E+03   -0.10017E-04   -0.85719E-07   832   0.185E-03    0.760E-04
DAV:  12    -0.472324219730E+03   -0.83143E-05   -0.72258E-07   872   0.148E-03
  52 F= -.47232422E+03 E0= -.47228897E+03  d E =-.303170E-01
       N       E                     dE             d eps       ncg     rms          rms(c)
DAV:   1    -0.472316211114E+03    0.80003E-02   -0.14987E+01  1312   0.106E+01    0.791E-01
DAV:   2    -0.472336059516E+03   -0.19848E-01   -0.28280E-01  1496   0.136E+00    0.502E-01
DAV:   3    -0.472334435928E+03    0.16236E-02   -0.10677E-02  1588   0.306E-01    0.313E-01
DAV:   4    -0.472334248136E+03    0.18779E-03   -0.29649E-03  1424   0.168E-01    0.148E-01
DAV:   5    -0.472334409450E+03   -0.16131E-03   -0.76997E-04  1548   0.830E-02    0.502E-02
DAV:   6    -0.472334450012E+03   -0.40562E-04   -0.14135E-04  1448   0.353E-02    0.265E-02
DAV:   7    -0.472334465314E+03   -0.15302E-04   -0.27128E-05   884   0.157E-02    0.127E-02
DAV:   8    -0.472334483828E+03   -0.18514E-04   -0.79524E-06   896   0.858E-03    0.452E-03
DAV:   9    -0.472334492749E+03   -0.89213E-05   -0.20299E-06   844   0.419E-03
  53 F= -.47233449E+03 E0= -.47229976E+03  d E =-.405900E-01
       N       E                     dE             d eps       ncg     rms          rms(c)
DAV:   1    -0.472348216408E+03   -0.13733E-01   -0.11734E+01  1312   0.907E+00    0.639E-01
DAV:   2    -0.472363961594E+03   -0.15745E-01   -0.20972E-01  1528   0.116E+00    0.430E-01
DAV:   3    -0.472362825594E+03    0.11360E-02   -0.71351E-03  1592   0.249E-01    0.263E-01
DAV:   4    -0.472362725707E+03    0.99887E-04   -0.22590E-03  1504   0.148E-01    0.118E-01
DAV:   5    -0.472362838551E+03   -0.11284E-03   -0.50630E-04  1484   0.695E-02    0.416E-02
DAV:   6    -0.472362867047E+03   -0.28495E-04   -0.87985E-05  1348   0.257E-02    0.239E-02
DAV:   7    -0.472362875763E+03   -0.87164E-05   -0.17107E-05   852   0.120E-02
  54 F= -.47236288E+03 E0= -.47232804E+03  d E =-.283830E-01
       N       E                     dE             d eps       ncg     rms          rms(c)
DAV:   1    -0.472327466509E+03    0.35401E-01   -0.52678E+01  1328   0.192E+01    0.143E+00
DAV:   2    -0.472399325640E+03   -0.71859E-01   -0.95513E-01  1524   0.249E+00    0.914E-01
DAV:   3    -0.472394159385E+03    0.51663E-02   -0.32974E-02  1608   0.535E-01    0.570E-01
DAV:   4    -0.472393092634E+03    0.10668E-02   -0.96423E-03  1492   0.305E-01    0.273E-01
DAV:   5    -0.472393586801E+03   -0.49417E-03   -0.21718E-03  1500   0.147E-01    0.879E-02
DAV:   6    -0.472393717302E+03   -0.13050E-03   -0.39952E-04  1460   0.552E-02    0.496E-02
DAV:   7    -0.472393750577E+03   -0.33275E-04   -0.74867E-05  1220   0.244E-02    0.205E-02
DAV:   8    -0.472393783673E+03   -0.33095E-04   -0.25421E-05   940   0.145E-02    0.733E-03
DAV:   9    -0.472393799064E+03   -0.15391E-04   -0.62137E-06   872   0.705E-03    0.466E-03
DAV:  10    -0.472393817137E+03   -0.18073E-04   -0.21845E-06   860   0.377E-03    0.218E-03
DAV:  11    -0.472393833203E+03   -0.16067E-04   -0.14285E-06   880   0.262E-03    0.102E-03
DAV:  12    -0.472393843112E+03   -0.99087E-05   -0.84439E-07   856   0.181E-03
  55 F= -.47239384E+03 E0= -.47235877E+03  d E =-.593504E-01
       N       E                     dE             d eps       ncg     rms          rms(c)
DAV:   1    -0.472413964473E+03   -0.20131E-01   -0.14523E+01  1312   0.981E+00    0.643E-01
DAV:   2    -0.472433042556E+03   -0.19078E-01   -0.24595E-01  1504   0.126E+00    0.416E-01
DAV:   3    -0.472431963393E+03    0.10792E-02   -0.97957E-03  1596   0.277E-01    0.270E-01
DAV:   4    -0.472431820649E+03    0.14274E-03   -0.20436E-03  1504   0.137E-01    0.121E-01
DAV:   5    -0.472431983615E+03   -0.16297E-03   -0.61254E-04  1604   0.711E-02    0.383E-02
DAV:   6    -0.472432011769E+03   -0.28154E-04   -0.12949E-04  1456   0.321E-02    0.218E-02
DAV:   7    -0.472432018949E+03   -0.71805E-05   -0.19135E-05   868   0.127E-02
  56 F= -.47243202E+03 E0= -.47239691E+03  d E =-.381758E-01
       N       E                     dE             d eps       ncg     rms          rms(c)
DAV:   1    -0.472319452795E+03    0.11256E+00   -0.12819E+02  1344   0.291E+01    0.210E+00
DAV:   2    -0.472494261509E+03   -0.17481E+00   -0.22232E+00  1516   0.382E+00    0.125E+00
DAV:   3    -0.472484075265E+03    0.10186E-01   -0.86843E-02  1600   0.829E-01    0.866E-01
DAV:   4    -0.472480934895E+03    0.31404E-02   -0.16745E-02  1544   0.392E-01    0.424E-01
DAV:   5    -0.472481796613E+03   -0.86172E-03   -0.58602E-03  1532   0.221E-01    0.124E-01
DAV:   6    -0.472482114422E+03   -0.31781E-03   -0.14013E-03  1504   0.103E-01    0.687E-02
DAV:   7    -0.472482180405E+03   -0.65983E-04   -0.20390E-04  1436   0.394E-02    0.337E-02
DAV:   8    -0.472482262478E+03   -0.82073E-04   -0.50872E-05  1212   0.200E-02    0.108E-02
DAV:   9    -0.472482298431E+03   -0.35953E-04   -0.11448E-05   912   0.971E-03    0.670E-03
DAV:  10    -0.472482333060E+03   -0.34630E-04   -0.40056E-06   888   0.524E-03    0.354E-03
DAV:  11    -0.472482376385E+03   -0.43325E-04   -0.36396E-06   892   0.392E-03    0.161E-03
DAV:  12    -0.472482401338E+03   -0.24953E-04   -0.25063E-06   920   0.271E-03    0.147E-03
DAV:  13    -0.472482424134E+03   -0.22796E-04   -0.27373E-06   896   0.248E-03    0.884E-04
DAV:  14    -0.472482433653E+03   -0.95188E-05   -0.15512E-06   936   0.180E-03
  57 F= -.47248243E+03 E0= -.47244735E+03  d E =-.885905E-01
       N       E                     dE             d eps       ncg     rms          rms(c)
DAV:   1    -0.472494649157E+03   -0.12225E-01   -0.26931E+00  1344   0.419E+00    0.262E-01
DAV:   2    -0.472498066369E+03   -0.34172E-02   -0.43207E-02  1496   0.526E-01    0.173E-01
DAV:   3    -0.472497873532E+03    0.19284E-03   -0.14605E-03  1548   0.107E-01    0.110E-01
DAV:   4    -0.472497877058E+03   -0.35258E-05   -0.37636E-04  1524   0.597E-02    0.413E-02
DAV:   5    -0.472497905929E+03   -0.28871E-04   -0.79628E-05  1388   0.266E-02    0.141E-02
DAV:   6    -0.472497909961E+03   -0.40313E-05   -0.95339E-06   876   0.958E-03
  58 F= -.47249791E+03 E0= -.47246279E+03  d E =-.154763E-01
       N       E                     dE             d eps       ncg     rms          rms(c)
DAV:   1    -0.472509450330E+03   -0.11544E-01   -0.24239E+01  1344   0.126E+01    0.811E-01
DAV:   2    -0.472540823070E+03   -0.31373E-01   -0.39366E-01  1472   0.159E+00    0.520E-01
DAV:   3    -0.472539065652E+03    0.17574E-02   -0.13335E-02  1568   0.325E-01    0.336E-01
DAV:   4    -0.472538852388E+03    0.21326E-03   -0.32188E-03  1528   0.174E-01    0.133E-01
DAV:   5    -0.472539113299E+03   -0.26091E-03   -0.72564E-04  1620   0.782E-02    0.431E-02
DAV:   6    -0.472539152385E+03   -0.39086E-04   -0.86098E-05  1400   0.262E-02    0.219E-02
DAV:   7    -0.472539167530E+03   -0.15145E-04   -0.17866E-05   872   0.116E-02    0.925E-03
DAV:   8    -0.472539181530E+03   -0.14001E-04   -0.77044E-06   864   0.754E-03    0.353E-03
DAV:   9    -0.472539190004E+03   -0.84738E-05   -0.17677E-06   836   0.376E-03
  59 F= -.47253919E+03 E0= -.47250399E+03  d E =-.567564E-01
       N       E                     dE             d eps       ncg     rms          rms(c)
DAV:   1    -0.472474980410E+03    0.64201E-01   -0.96935E+01  1344   0.252E+01    0.174E+00
DAV:   2    -0.472605011771E+03   -0.13003E+00   -0.16152E+00  1464   0.322E+00    0.105E+00
DAV:   3    -0.472598019413E+03    0.69924E-02   -0.58038E-02  1600   0.668E-01    0.713E-01
DAV:   4    -0.472596011610E+03    0.20078E-02   -0.11751E-02  1512   0.334E-01    0.314E-01
DAV:   5    -0.472596907174E+03   -0.89556E-03   -0.31753E-03  1576   0.165E-01    0.946E-02
DAV:   6    -0.472597088970E+03   -0.18180E-03   -0.51393E-04  1488   0.648E-02    0.490E-02
DAV:   7    -0.472597134863E+03   -0.45893E-04   -0.90075E-05  1400   0.272E-02    0.241E-02
DAV:   8    -0.472597187683E+03   -0.52820E-04   -0.31799E-05  1104   0.157E-02    0.678E-03
DAV:   9    -0.472597217607E+03   -0.29923E-04   -0.63793E-06   916   0.729E-03    0.465E-03
DAV:  10    -0.472597245757E+03   -0.28150E-04   -0.28684E-06   888   0.407E-03    0.232E-03
DAV:  11    -0.472597274659E+03   -0.28903E-04   -0.21406E-06   892   0.291E-03    0.146E-03
DAV:  12    -0.472597296040E+03   -0.21380E-04   -0.22573E-06   932   0.229E-03    0.128E-03
DAV:  13    -0.472597311017E+03   -0.14977E-04   -0.16413E-06   884   0.196E-03    0.688E-04
DAV:  14    -0.472597317014E+03   -0.59966E-05   -0.94088E-07   920   0.145E-03
  60 F= -.47259732E+03 E0= -.47256213E+03  d E =-.114883E+00
       N       E                     dE             d eps       ncg     rms          rms(c)
DAV:   1    -0.472066055870E+03    0.53126E+00   -0.38821E+02  1360   0.503E+01    0.427E+00
DAV:   2    -0.472641302747E+03   -0.57525E+00   -0.70467E+00  1472   0.678E+00    0.223E+00
DAV:   3    -0.472611545697E+03    0.29757E-01   -0.24861E-01  1608   0.140E+00    0.167E+00
DAV:   4    -0.472600341774E+03    0.11204E-01   -0.43668E-02  1512   0.648E-01    0.872E-01
DAV:   5    -0.472601190784E+03   -0.84901E-03   -0.15388E-02  1508   0.392E-01    0.233E-01
DAV:   6    -0.472602179092E+03   -0.98831E-03   -0.39321E-03  1504   0.181E-01    0.122E-01
DAV:   7    -0.472602360504E+03   -0.18141E-03   -0.48328E-04  1448   0.631E-02    0.594E-02
DAV:   8    -0.472602528379E+03   -0.16788E-03   -0.13515E-04  1440   0.320E-02    0.138E-02
DAV:   9    -0.472602606308E+03   -0.77929E-04   -0.21346E-05   984   0.136E-02    0.892E-03
DAV:  10    -0.472602680297E+03   -0.73988E-04   -0.96383E-06   912   0.731E-03    0.431E-03
DAV:  11    -0.472602750002E+03   -0.69705E-04   -0.57791E-06   924   0.476E-03    0.249E-03
DAV:  12    -0.472602811497E+03   -0.61495E-04   -0.71904E-06   940   0.409E-03    0.204E-03
DAV:  13    -0.472602852743E+03   -0.41246E-04   -0.58748E-06   952   0.340E-03    0.130E-03
DAV:  14    -0.472602866306E+03   -0.13563E-04   -0.22369E-06   932   0.229E-03    0.768E-04
DAV:  15    -0.472602872387E+03   -0.60801E-05   -0.11212E-06   896   0.162E-03
  61 F= -.47260287E+03 E0= -.47256830E+03  d E =-.120439E+00
       N       E                     dE             d eps       ncg     rms          rms(c)
DAV:   1    -0.472511618882E+03    0.91247E-01   -0.88858E+01  1344   0.241E+01    0.151E+00
DAV:   2    -0.472626504606E+03   -0.11489E+00   -0.14154E+00  1468   0.303E+00    0.997E-01
DAV:   3    -0.472620557124E+03    0.59475E-02   -0.50982E-02  1600   0.630E-01    0.623E-01
DAV:   4    -0.472618635540E+03    0.19216E-02   -0.12985E-02  1488   0.355E-01    0.245E-01
DAV:   5    -0.472619292075E+03   -0.65653E-03   -0.31785E-03  1552   0.172E-01    0.897E-02
DAV:   6    -0.472619425942E+03   -0.13387E-03   -0.51464E-04  1448   0.662E-02    0.520E-02
DAV:   7    -0.472619449525E+03   -0.23583E-04   -0.86502E-05  1464   0.265E-02    0.239E-02
DAV:   8    -0.472619488632E+03   -0.39107E-04   -0.31828E-05  1096   0.157E-02    0.796E-03
DAV:   9    -0.472619508285E+03   -0.19652E-04   -0.58886E-06   912   0.742E-03    0.494E-03
DAV:  10    -0.472619530797E+03   -0.22513E-04   -0.20434E-06   856   0.377E-03    0.239E-03
DAV:  11    -0.472619555389E+03   -0.24592E-04   -0.15388E-06   884   0.266E-03    0.135E-03
DAV:  12    -0.472619571756E+03   -0.16367E-04   -0.10841E-06   888   0.188E-03    0.132E-03
DAV:  13    -0.472619585792E+03   -0.14036E-04   -0.12645E-06   900   0.171E-03    0.742E-04
DAV:  14    -0.472619590852E+03   -0.50608E-05   -0.55805E-07   860   0.114E-03
  62 F= -.47261959E+03 E0= -.47258464E+03  d E =-.137157E+00
       N       E                     dE             d eps       ncg     rms          rms(c)
DAV:   1    -0.472653693971E+03   -0.34108E-01   -0.15474E+01  1360   0.101E+01    0.678E-01
DAV:   2    -0.472672559871E+03   -0.18866E-01   -0.25092E-01  1436   0.130E+00    0.457E-01
DAV:   3    -0.472671501760E+03    0.10581E-02   -0.95638E-03  1608   0.279E-01    0.273E-01
DAV:   4    -0.472671339099E+03    0.16266E-03   -0.30438E-03  1472   0.173E-01    0.120E-01
DAV:   5    -0.472671467861E+03   -0.12876E-03   -0.69518E-04  1460   0.806E-02    0.450E-02
DAV:   6    -0.472671501195E+03   -0.33333E-04   -0.97989E-05  1524   0.274E-02    0.261E-02
DAV:   7    -0.472671507687E+03   -0.64926E-05   -0.19224E-05   912   0.128E-02
  63 F= -.47267151E+03 E0= -.47263683E+03  d E =-.519168E-01
       N       E                     dE             d eps       ncg     rms          rms(c)
DAV:   1    -0.472587428978E+03    0.84072E-01   -0.13941E+02  1360   0.304E+01    0.230E+00
DAV:   2    -0.472768740751E+03   -0.18131E+00   -0.23704E+00  1452   0.400E+00    0.135E+00
DAV:   3    -0.472757586011E+03    0.11155E-01   -0.88872E-02  1608   0.851E-01    0.841E-01
DAV:   4    -0.472754137242E+03    0.34488E-02   -0.22432E-02  1520   0.465E-01    0.417E-01
DAV:   5    -0.472754979481E+03   -0.84224E-03   -0.61841E-03  1464   0.239E-01    0.130E-01
DAV:   6    -0.472755320088E+03   -0.34061E-03   -0.10621E-03  1508   0.915E-02    0.723E-02
DAV:   7    -0.472755389868E+03   -0.69780E-04   -0.19840E-04  1444   0.385E-02    0.318E-02
DAV:   8    -0.472755450254E+03   -0.60386E-04   -0.44757E-05  1184   0.193E-02    0.111E-02
DAV:   9    -0.472755483765E+03   -0.33511E-04   -0.97085E-06   904   0.964E-03    0.529E-03
DAV:  10    -0.472755515189E+03   -0.31424E-04   -0.36601E-06   888   0.444E-03    0.285E-03
DAV:  11    -0.472755542159E+03   -0.26970E-04   -0.20021E-06   912   0.295E-03    0.138E-03
DAV:  12    -0.472755561381E+03   -0.19222E-04   -0.18019E-06   928   0.221E-03    0.101E-03
DAV:  13    -0.472755578950E+03   -0.17568E-04   -0.14942E-06   892   0.194E-03    0.698E-04
DAV:  14    -0.472755589227E+03   -0.10278E-04   -0.12149E-06   924   0.156E-03    0.381E-04
DAV:  15    -0.472755593786E+03   -0.45585E-05   -0.54306E-07   908   0.109E-03
  64 F= -.47275559E+03 E0= -.47272183E+03  d E =-.136003E+00
       N       E                     dE             d eps       ncg     rms          rms(c)
DAV:   1    -0.472747288623E+03    0.83006E-02   -0.10307E+01  1328   0.828E+00    0.554E-01
DAV:   2    -0.472760125530E+03   -0.12837E-01   -0.17005E-01  1432   0.106E+00    0.372E-01
DAV:   3    -0.472759414333E+03    0.71120E-03   -0.66337E-03  1608   0.231E-01    0.225E-01
DAV:   4    -0.472759319193E+03    0.95139E-04   -0.19873E-03  1476   0.140E-01    0.100E-01
DAV:   5    -0.472759418156E+03   -0.98963E-04   -0.48471E-04  1456   0.671E-02    0.368E-02
DAV:   6    -0.472759443481E+03   -0.25325E-04   -0.68475E-05  1388   0.233E-02    0.220E-02
DAV:   7    -0.472759447562E+03   -0.40804E-05   -0.13946E-05   888   0.110E-02
  65 F= -.47275945E+03 E0= -.47272593E+03  d E =-.139857E+00
       N       E                     dE             d eps       ncg     rms          rms(c)
DAV:   1    -0.472792621234E+03   -0.33178E-01   -0.35491E+01  1360   0.155E+01    0.102E+00
DAV:   2    -0.472836759046E+03   -0.44138E-01   -0.57599E-01  1424   0.196E+00    0.644E-01
DAV:   3    -0.472834240331E+03    0.25187E-02   -0.21736E-02  1624   0.412E-01    0.412E-01
DAV:   4    -0.472833803781E+03    0.43655E-03   -0.55137E-03  1492   0.224E-01    0.195E-01
DAV:   5    -0.472834167990E+03   -0.36421E-03   -0.18759E-03  1540   0.124E-01    0.622E-02
DAV:   6    -0.472834266323E+03   -0.98333E-04   -0.36192E-04  1488   0.551E-02    0.341E-02
DAV:   7    -0.472834296625E+03   -0.30302E-04   -0.54034E-05  1360   0.202E-02    0.163E-02
DAV:   8    -0.472834323572E+03   -0.26947E-04   -0.86193E-06   876   0.955E-03    0.612E-03
DAV:   9    -0.472834339699E+03   -0.16128E-04   -0.37368E-06   904   0.545E-03    0.271E-03
DAV:  10    -0.472834352892E+03   -0.13193E-04   -0.14335E-06   832   0.275E-03    0.175E-03
DAV:  11    -0.472834367304E+03   -0.14411E-04   -0.13400E-06   884   0.206E-03    0.962E-04
DAV:  12    -0.472834377647E+03   -0.10344E-04   -0.97719E-07   900   0.155E-03    0.759E-04
DAV:  13    -0.472834387755E+03   -0.10108E-04   -0.12574E-06   896   0.152E-03    0.556E-04
DAV:  14    -0.472834392413E+03   -0.46575E-05   -0.61781E-07   896   0.112E-03
  66 F= -.47283439E+03 E0= -.47280134E+03  d E =-.749449E-01
       N       E                     dE             d eps       ncg     rms          rms(c)
DAV:   1    -0.472546889056E+03    0.28750E+00   -0.30237E+02  1360   0.452E+01    0.376E+00
DAV:   2    -0.472974948340E+03   -0.42806E+00   -0.54418E+00  1404   0.603E+00    0.195E+00
DAV:   3    -0.472951294145E+03    0.23654E-01   -0.19309E-01  1648   0.121E+00    0.144E+00
DAV:   4    -0.472943231317E+03    0.80628E-02   -0.35696E-02  1532   0.568E-01    0.747E-01
DAV:   5    -0.472944358299E+03   -0.11270E-02   -0.16564E-02  1580   0.371E-01    0.200E-01
DAV:   6    -0.472945083813E+03   -0.72551E-03   -0.40509E-03  1488   0.180E-01    0.103E-01
DAV:   7    -0.472945295517E+03   -0.21170E-03   -0.52640E-04  1476   0.628E-02    0.468E-02
DAV:   8    -0.472945434471E+03   -0.13895E-03   -0.73802E-05  1352   0.271E-02    0.163E-02
DAV:   9    -0.472945516184E+03   -0.81712E-04   -0.19407E-05   968   0.142E-02    0.770E-03
DAV:  10    -0.472945578530E+03   -0.62347E-04   -0.72254E-06   936   0.640E-03    0.423E-03
DAV:  11    -0.472945640458E+03   -0.61928E-04   -0.45238E-06   908   0.437E-03    0.231E-03
DAV:  12    -0.472945713865E+03   -0.73407E-04   -0.10222E-05   992   0.443E-03    0.209E-03
DAV:  13    -0.472945749132E+03   -0.35267E-04   -0.40459E-06   932   0.313E-03    0.138E-03
DAV:  14    -0.472945764685E+03   -0.15554E-04   -0.28662E-06   912   0.238E-03    0.760E-04
DAV:  15    -0.472945770590E+03   -0.59051E-05   -0.11031E-06   896   0.162E-03
  67 F= -.47294577E+03 E0= -.47291386E+03  d E =-.186323E+00
       N       E                     dE             d eps       ncg     rms          rms(c)
DAV:   1    -0.472997056217E+03   -0.51292E-01   -0.43283E+01  1376   0.173E+01    0.116E+00
DAV:   2    -0.473052142002E+03   -0.55086E-01   -0.70486E-01  1424   0.218E+00    0.698E-01
DAV:   3    -0.473049096828E+03    0.30452E-02   -0.24198E-02  1608   0.444E-01    0.454E-01
DAV:   4    -0.473048747326E+03    0.34950E-03   -0.58738E-03  1540   0.236E-01    0.204E-01
DAV:   5    -0.473049237689E+03   -0.49036E-03   -0.13003E-03  1536   0.116E-01    0.624E-02
DAV:   6    -0.473049340308E+03   -0.10262E-03   -0.24351E-04  1512   0.458E-02    0.311E-02
DAV:   7    -0.473049360263E+03   -0.19955E-04   -0.26708E-05  1012   0.169E-02    0.152E-02
DAV:   8    -0.473049384599E+03   -0.24336E-04   -0.11946E-05   896   0.993E-03    0.443E-03
DAV:   9    -0.473049398976E+03   -0.14377E-04   -0.27914E-06   888   0.451E-03    0.274E-03
DAV:  10    -0.473049417170E+03   -0.18194E-04   -0.16816E-06   880   0.270E-03    0.127E-03
DAV:  11    -0.473049433553E+03   -0.16383E-04   -0.15973E-06   916   0.208E-03    0.913E-04
DAV:  12    -0.473049444385E+03   -0.10832E-04   -0.10344E-06   892   0.162E-03    0.706E-04
DAV:  13    -0.473049454141E+03   -0.97562E-05   -0.12663E-06   884   0.149E-03
  68 F= -.47304945E+03 E0= -.47301763E+03  d E =-.103684E+00
       N       E                     dE             d eps       ncg     rms          rms(c)
DAV:   1    -0.472679487356E+03    0.36996E+00   -0.38843E+02  1376   0.518E+01    0.460E+00
DAV:   2    -0.473262348130E+03   -0.58286E+00   -0.72318E+00  1436   0.700E+00    0.226E+00
DAV:   3    -0.473231166662E+03    0.31181E-01   -0.23769E-01  1592   0.137E+00    0.172E+00
DAV:   4    -0.473220847355E+03    0.10319E-01   -0.45004E-02  1544   0.641E-01    0.856E-01
DAV:   5    -0.473222516348E+03   -0.16690E-02   -0.11922E-02  1568   0.335E-01    0.204E-01
DAV:   6    -0.473223331616E+03   -0.81527E-03   -0.25034E-03  1584   0.141E-01    0.918E-02
DAV:   7    -0.473223552063E+03   -0.22045E-03   -0.26104E-04  1456   0.496E-02    0.458E-02
DAV:   8    -0.473223684009E+03   -0.13195E-03   -0.75579E-05  1408   0.270E-02    0.150E-02
DAV:   9    -0.473223776319E+03   -0.92310E-04   -0.19277E-05   976   0.118E-02    0.861E-03
DAV:  10    -0.473223879028E+03   -0.10271E-03   -0.90704E-06   928   0.690E-03    0.384E-03
DAV:  11    -0.473223980920E+03   -0.10189E-03   -0.10596E-05  1032   0.519E-03    0.271E-03
DAV:  12    -0.473224043485E+03   -0.62565E-04   -0.53130E-06   936   0.370E-03    0.204E-03
DAV:  13    -0.473224092646E+03   -0.49160E-04   -0.78866E-06  1016   0.355E-03    0.110E-03
DAV:  14    -0.473224106295E+03   -0.13649E-04   -0.18420E-06   928   0.218E-03    0.734E-04
DAV:  15    -0.473224113109E+03   -0.68149E-05   -0.97559E-07   888   0.148E-03
  69 F= -.47322411E+03 E0= -.47319220E+03  d E =-.278343E+00
       N       E                     dE             d eps       ncg     rms          rms(c)
DAV:   1    -0.473186676290E+03    0.37430E-01   -0.38830E+01  1376   0.164E+01    0.111E+00
DAV:   2    -0.473235831007E+03   -0.49155E-01   -0.63100E-01  1460   0.206E+00    0.656E-01
DAV:   3    -0.473233251859E+03    0.25791E-02   -0.21405E-02  1580   0.417E-01    0.430E-01
DAV:   4    -0.473232998681E+03    0.25318E-03   -0.50856E-03  1524   0.218E-01    0.194E-01
DAV:   5    -0.473233437742E+03   -0.43906E-03   -0.11734E-03  1560   0.109E-01    0.594E-02
DAV:   6    -0.473233518067E+03   -0.80325E-04   -0.24131E-04  1512   0.456E-02    0.300E-02
DAV:   7    -0.473233536991E+03   -0.18924E-04   -0.34511E-05  1016   0.183E-02    0.151E-02
DAV:   8    -0.473233563108E+03   -0.26117E-04   -0.12091E-05   896   0.986E-03    0.433E-03
DAV:   9    -0.473233578444E+03   -0.15335E-04   -0.29675E-06   856   0.459E-03    0.261E-03
DAV:  10    -0.473233598520E+03   -0.20077E-04   -0.19622E-06   896   0.288E-03    0.112E-03
DAV:  11    -0.473233614112E+03   -0.15592E-04   -0.16850E-06   888   0.208E-03    0.980E-04
DAV:  12    -0.473233624428E+03   -0.10316E-04   -0.10953E-06   904   0.167E-03    0.637E-04
DAV:  13    -0.473233632853E+03   -0.84251E-05   -0.11981E-06   896   0.147E-03
  70 F= -.47323363E+03 E0= -.47320156E+03  d E =-.287862E+00
       N       E                     dE             d eps       ncg     rms          rms(c)
DAV:   1    -0.473249289426E+03   -0.15665E-01   -0.83497E+01  1376   0.243E+01    0.174E+00
DAV:   2    -0.473356010748E+03   -0.10672E+00   -0.13752E+00  1444   0.306E+00    0.972E-01
DAV:   3    -0.473350144499E+03    0.58662E-02   -0.45595E-02  1584   0.617E-01    0.635E-01
DAV:   4    -0.473349277785E+03    0.86671E-03   -0.11187E-02  1520   0.326E-01    0.287E-01
DAV:   5    -0.473350096626E+03   -0.81884E-03   -0.25635E-03  1504   0.160E-01    0.915E-02
DAV:   6    -0.473350294933E+03   -0.19831E-03   -0.49709E-04  1536   0.632E-02    0.412E-02
DAV:   7    -0.473350329862E+03   -0.34929E-04   -0.70951E-05  1368   0.246E-02    0.206E-02
DAV:   8    -0.473350367337E+03   -0.37474E-04   -0.19576E-05   984   0.127E-02    0.586E-03
DAV:   9    -0.473350387056E+03   -0.19719E-04   -0.49974E-06   864   0.627E-03    0.334E-03
DAV:  10    -0.473350410494E+03   -0.23438E-04   -0.22039E-06   880   0.330E-03    0.186E-03
DAV:  11    -0.473350433955E+03   -0.23461E-04   -0.19251E-06   900   0.236E-03    0.108E-03
DAV:  12    -0.473350451496E+03   -0.17541E-04   -0.16659E-06   912   0.194E-03    0.850E-04
DAV:  13    -0.473350464022E+03   -0.12526E-04   -0.15692E-06   932   0.164E-03    0.474E-04
DAV:  14    -0.473350470456E+03   -0.64335E-05   -0.77986E-07   880   0.127E-03
  71 F= -.47335047E+03 E0= -.47331810E+03  d E =-.116838E+00
       N       E                     dE             d eps       ncg     rms          rms(c)
DAV:   1    -0.472863333981E+03    0.48713E+00   -0.42480E+02  1376   0.548E+01    0.513E+00
DAV:   2    -0.473498604727E+03   -0.63527E+00   -0.80060E+00  1444   0.739E+00    0.237E+00
DAV:   3    -0.473464399034E+03    0.34206E-01   -0.24973E-01  1600   0.142E+00    0.179E+00
DAV:   4    -0.473454379456E+03    0.10020E-01   -0.51148E-02  1544   0.682E-01    0.868E-01
DAV:   5    -0.473456179259E+03   -0.17998E-02   -0.16795E-02  1536   0.370E-01    0.240E-01
DAV:   6    -0.473456910983E+03   -0.73172E-03   -0.50908E-03  1544   0.188E-01    0.113E-01
DAV:   7    -0.473457121035E+03   -0.21005E-03   -0.76182E-04  1452   0.783E-02    0.632E-02
DAV:   8    -0.473457306037E+03   -0.18500E-03   -0.14572E-04  1488   0.347E-02    0.169E-02
DAV:   9    -0.473457398712E+03   -0.92675E-04   -0.27272E-05  1088   0.153E-02    0.790E-03
DAV:  10    -0.473457477110E+03   -0.78398E-04   -0.67817E-06   928   0.724E-03    0.461E-03
DAV:  11    -0.473457564226E+03   -0.87116E-04   -0.74340E-06   952   0.493E-03    0.260E-03
DAV:  12    -0.473457635878E+03   -0.71652E-04   -0.62770E-06   972   0.393E-03    0.215E-03
DAV:  13    -0.473457689963E+03   -0.54085E-04   -0.56957E-06   968   0.356E-03    0.146E-03
DAV:  14    -0.473457714750E+03   -0.24786E-04   -0.33205E-06   944   0.267E-03    0.781E-04
DAV:  15    -0.473457723318E+03   -0.85682E-05   -0.15678E-06   880   0.184E-03
  72 F= -.47345772E+03 E0= -.47342438E+03  d E =-.224090E+00
       N       E                     dE             d eps       ncg     rms          rms(c)
DAV:   1    -0.473528702869E+03   -0.70988E-01   -0.35168E+01  1360   0.162E+01    0.112E+00
DAV:   2    -0.473572815079E+03   -0.44112E-01   -0.60327E-01  1488   0.205E+00    0.673E-01
DAV:   3    -0.473569963491E+03    0.28516E-02   -0.25933E-02  1572   0.472E-01    0.415E-01
DAV:   4    -0.473569549274E+03    0.41422E-03   -0.77913E-03  1508   0.258E-01    0.206E-01
DAV:   5    -0.473569845919E+03   -0.29664E-03   -0.27034E-03  1576   0.143E-01    0.721E-02
DAV:   6    -0.473569991091E+03   -0.14517E-03   -0.50382E-04  1488   0.629E-02    0.388E-02
DAV:   7    -0.473570017012E+03   -0.25921E-04   -0.59104E-05  1392   0.226E-02    0.215E-02
DAV:   8    -0.473570046832E+03   -0.29819E-04   -0.12339E-05   904   0.111E-02    0.653E-03
DAV:   9    -0.473570063424E+03   -0.16593E-04   -0.43200E-06   872   0.593E-03    0.272E-03
DAV:  10    -0.473570078112E+03   -0.14688E-04   -0.17751E-06   872   0.308E-03    0.171E-03
DAV:  11    -0.473570091313E+03   -0.13200E-04   -0.13180E-06   864   0.221E-03    0.934E-04
DAV:  12    -0.473570101513E+03   -0.10200E-04   -0.10281E-06   896   0.165E-03    0.693E-04
DAV:  13    -0.473570110471E+03   -0.89580E-05   -0.11553E-06   860   0.149E-03
  73 F= -.47357011E+03 E0= -.47353703E+03  d E =-.112387E+00
       N       E                     dE             d eps       ncg     rms          rms(c)
DAV:   1    -0.473543985681E+03    0.26116E-01   -0.71853E+01  1360   0.232E+01    0.168E+00
DAV:   2    -0.473636146120E+03   -0.92160E-01   -0.12602E+00  1500   0.296E+00    0.977E-01
DAV:   3    -0.473629640804E+03    0.65053E-02   -0.55612E-02  1572   0.687E-01    0.616E-01
DAV:   4    -0.473628327725E+03    0.13131E-02   -0.17303E-02  1536   0.372E-01    0.333E-01
DAV:   5    -0.473628713535E+03   -0.38581E-03   -0.67015E-03  1552   0.223E-01    0.110E-01
DAV:   6    -0.473629042130E+03   -0.32860E-03   -0.12889E-03  1472   0.998E-02    0.582E-02
DAV:   7    -0.473629097036E+03   -0.54906E-04   -0.14171E-04  1512   0.347E-02    0.325E-02
DAV:   8    -0.473629156264E+03   -0.59228E-04   -0.29490E-05   968   0.171E-02    0.946E-03
DAV:   9    -0.473629190980E+03   -0.34716E-04   -0.96629E-06   880   0.891E-03    0.376E-03
DAV:  10    -0.473629219669E+03   -0.28689E-04   -0.35990E-06   880   0.451E-03    0.239E-03
DAV:  11    -0.473629243161E+03   -0.23491E-04   -0.22656E-06   872   0.304E-03    0.145E-03
DAV:  12    -0.473629265436E+03   -0.22275E-04   -0.24162E-06   916   0.240E-03    0.106E-03
DAV:  13    -0.473629280498E+03   -0.15062E-04   -0.20034E-06   908   0.203E-03    0.654E-04
DAV:  14    -0.473629287171E+03   -0.66735E-05   -0.11637E-06   872   0.154E-03
  74 F= -.47362929E+03 E0= -.47359686E+03  d E =-.171564E+00
       N       E                     dE             d eps       ncg     rms          rms(c)
DAV:   1    -0.473686255476E+03   -0.56975E-01   -0.49640E+01  1360   0.196E+01    0.129E+00
DAV:   2    -0.473751953244E+03   -0.65698E-01   -0.84895E-01  1508   0.240E+00    0.803E-01
DAV:   3    -0.473747775534E+03    0.41777E-02   -0.31164E-02  1600   0.523E-01    0.502E-01
DAV:   4    -0.473747453948E+03    0.32159E-03   -0.10573E-02  1552   0.291E-01    0.240E-01
DAV:   5    -0.473747745570E+03   -0.29162E-03   -0.44906E-03  1576   0.178E-01    0.870E-02
DAV:   6    -0.473747935220E+03   -0.18965E-03   -0.94276E-04  1460   0.827E-02    0.472E-02
DAV:   7    -0.473747956918E+03   -0.21698E-04   -0.10606E-04  1464   0.298E-02    0.265E-02
DAV:   8    -0.473747986350E+03   -0.29432E-04   -0.22470E-05   944   0.148E-02    0.745E-03
DAV:   9    -0.473748004755E+03   -0.18405E-04   -0.76172E-06   872   0.746E-03    0.291E-03
DAV:  10    -0.473748022657E+03   -0.17903E-04   -0.22782E-06   912   0.362E-03    0.132E-03
DAV:  11    -0.473748039022E+03   -0.16365E-04   -0.17300E-06   888   0.232E-03    0.805E-04
DAV:  12    -0.473748052225E+03   -0.13203E-04   -0.14981E-06   920   0.188E-03    0.574E-04
DAV:  13    -0.473748059632E+03   -0.74070E-05   -0.10833E-06   880   0.150E-03
  75 F= -.47374806E+03 E0= -.47371537E+03  d E =-.118772E+00
       N       E                     dE             d eps       ncg     rms          rms(c)
DAV:   1    -0.473708285076E+03    0.39767E-01   -0.72903E+01  1360   0.237E+01    0.161E+00
DAV:   2    -0.473806229076E+03   -0.97944E-01   -0.12586E+00  1512   0.293E+00    0.977E-01
DAV:   3    -0.473799843131E+03    0.63859E-02   -0.44910E-02  1588   0.625E-01    0.620E-01
DAV:   4    -0.473799242663E+03    0.60047E-03   -0.15587E-02  1564   0.347E-01    0.304E-01
DAV:   5    -0.473799629309E+03   -0.38665E-03   -0.74361E-03  1584   0.220E-01    0.111E-01
DAV:   6    -0.473799888000E+03   -0.25869E-03   -0.15707E-03  1460   0.105E-01    0.573E-02
DAV:   7    -0.473799922924E+03   -0.34924E-04   -0.17185E-04  1480   0.377E-02    0.315E-02
DAV:   8    -0.473799961830E+03   -0.38906E-04   -0.34387E-05  1008   0.179E-02    0.914E-03
DAV:   9    -0.473799987639E+03   -0.25809E-04   -0.10903E-05   888   0.896E-03    0.345E-03
DAV:  10    -0.473800012460E+03   -0.24822E-04   -0.31750E-06   912   0.426E-03    0.166E-03
DAV:  11    -0.473800035901E+03   -0.23441E-04   -0.23382E-06   912   0.273E-03    0.989E-04
DAV:  12    -0.473800051302E+03   -0.15401E-04   -0.17232E-06   896   0.206E-03    0.764E-04
DAV:  13    -0.473800061519E+03   -0.10217E-04   -0.14540E-06   936   0.171E-03    0.477E-04
DAV:  14    -0.473800066621E+03   -0.51025E-05   -0.85835E-07   880   0.132E-03
  76 F= -.47380007E+03 E0= -.47376717E+03  d E =-.170779E+00
       N       E                     dE             d eps       ncg     rms          rms(c)
DAV:   1    -0.473864503408E+03   -0.64442E-01   -0.33670E+01  1376   0.162E+01    0.104E+00
DAV:   2    -0.473907222867E+03   -0.42719E-01   -0.56297E-01  1496   0.196E+00    0.667E-01
DAV:   3    -0.473904637206E+03    0.25857E-02   -0.22513E-02  1540   0.436E-01    0.419E-01
DAV:   4    -0.473904756627E+03   -0.11942E-03   -0.84039E-03  1556   0.250E-01    0.211E-01
DAV:   5    -0.473904963845E+03   -0.20722E-03   -0.38536E-03  1564   0.157E-01    0.762E-02
DAV:   6    -0.473905106243E+03   -0.14240E-03   -0.69301E-04  1488   0.718E-02    0.383E-02
DAV:   7    -0.473905120479E+03   -0.14236E-04   -0.84040E-05  1440   0.271E-02    0.223E-02
DAV:   8    -0.473905142625E+03   -0.22146E-04   -0.16207E-05   920   0.128E-02    0.665E-03
DAV:   9    -0.473905157203E+03   -0.14578E-04   -0.57965E-06   864   0.651E-03    0.262E-03
DAV:  10    -0.473905168658E+03   -0.11455E-04   -0.15911E-06   880   0.313E-03    0.170E-03
DAV:  11    -0.473905182922E+03   -0.14264E-04   -0.12624E-06   848   0.210E-03    0.902E-04
DAV:  12    -0.473905193756E+03   -0.10834E-04   -0.98083E-07   928   0.163E-03    0.684E-04
DAV:  13    -0.473905203229E+03   -0.94730E-05   -0.10938E-06   864   0.149E-03
  77 F= -.47390520E+03 E0= -.47387243E+03  d E =-.105137E+00
       N       E                     dE             d eps       ncg     rms          rms(c)
DAV:   1    -0.473665286794E+03    0.23991E+00   -0.26426E+02  1360   0.454E+01    0.360E+00
DAV:   2    -0.474058965233E+03   -0.39368E+00   -0.49127E+00  1500   0.577E+00    0.200E+00
DAV:   3    -0.474034958443E+03    0.24007E-01   -0.18917E-01  1556   0.124E+00    0.141E+00
DAV:   4    -0.474030298546E+03    0.46599E-02   -0.64079E-02  1576   0.645E-01    0.833E-01
DAV:   5    -0.474029083584E+03    0.12150E-02   -0.42642E-02  1560   0.497E-01    0.293E-01
DAV:   6    -0.474030384995E+03   -0.13014E-02   -0.10053E-02  1460   0.257E-01    0.131E-01
DAV:   7    -0.474030564822E+03   -0.17983E-03   -0.12130E-03  1512   0.988E-02    0.685E-02
DAV:   8    -0.474030702730E+03   -0.13791E-03   -0.17190E-04  1520   0.390E-02    0.250E-02
DAV:   9    -0.474030800003E+03   -0.97273E-04   -0.34786E-05  1200   0.185E-02    0.990E-03
DAV:  10    -0.474030869664E+03   -0.69661E-04   -0.84980E-06   912   0.800E-03    0.522E-03
DAV:  11    -0.474030936398E+03   -0.66734E-04   -0.50561E-06   952   0.468E-03    0.276E-03
DAV:  12    -0.474031007705E+03   -0.71307E-04   -0.53440E-06   928   0.379E-03    0.191E-03
DAV:  13    -0.474031066730E+03   -0.59025E-04   -0.74514E-06   980   0.363E-03    0.154E-03
DAV:  14    -0.474031089798E+03   -0.23068E-04   -0.26140E-06   936   0.245E-03    0.748E-04
DAV:  15    -0.474031097611E+03   -0.78137E-05   -0.13545E-06   880   0.167E-03
  78 F= -.47403110E+03 E0= -.47399889E+03  d E =-.231031E+00
       N       E                     dE             d eps       ncg     rms          rms(c)
DAV:   1    -0.474073050684E+03   -0.41961E-01   -0.49689E+01  1360   0.197E+01    0.135E+00
DAV:   2    -0.474139836341E+03   -0.66786E-01   -0.84193E-01  1496   0.239E+00    0.807E-01
DAV:   3    -0.474135849388E+03    0.39870E-02   -0.28374E-02  1616   0.494E-01    0.514E-01
DAV:   4    -0.474135658483E+03    0.19091E-03   -0.67837E-03  1548   0.253E-01    0.211E-01
DAV:   5    -0.474136328459E+03   -0.66998E-03   -0.28520E-03  1652   0.140E-01    0.841E-02
DAV:   6    -0.474136365666E+03   -0.37207E-04   -0.10997E-03  1560   0.752E-02    0.445E-02
DAV:   7    -0.474136387409E+03   -0.21742E-04   -0.14125E-04  1416   0.302E-02    0.254E-02
DAV:   8    -0.474136409402E+03   -0.21993E-04   -0.22668E-05   944   0.146E-02    0.736E-03
DAV:   9    -0.474136422411E+03   -0.13009E-04   -0.61072E-06   872   0.716E-03    0.338E-03
DAV:  10    -0.474136433791E+03   -0.11381E-04   -0.17182E-06   848   0.342E-03    0.181E-03
DAV:  11    -0.474136445334E+03   -0.11543E-04   -0.10577E-06   856   0.210E-03    0.935E-04
DAV:  12    -0.474136454750E+03   -0.94162E-05   -0.73622E-07   920   0.155E-03
  79 F= -.47413645E+03 E0= -.47410421E+03  d E =-.105357E+00
       N       E                     dE             d eps       ncg     rms          rms(c)
DAV:   1    -0.474079128148E+03    0.57317E-01   -0.78036E+01  1344   0.247E+01    0.177E+00
DAV:   2    -0.474188777515E+03   -0.10965E+00   -0.13662E+00  1496   0.303E+00    0.103E+00
DAV:   3    -0.474182382886E+03    0.63946E-02   -0.48047E-02  1612   0.633E-01    0.678E-01
[...]
DAV:   1    -0.476222104877E+03    0.72638E-02   -0.57636E+00  1328   0.664E+00    0.420E-01
DAV:   2    -0.476229875451E+03   -0.77706E-02   -0.99449E-02  1480   0.814E-01    0.278E-01
DAV:   3    -0.476229473777E+03    0.40167E-03   -0.33584E-03  1592   0.173E-01    0.167E-01
DAV:   4    -0.476229541345E+03   -0.67567E-04   -0.89046E-04  1560   0.954E-02    0.645E-02
DAV:   5    -0.476229618552E+03   -0.77207E-04   -0.18789E-04  1552   0.429E-02    0.225E-02
DAV:   6    -0.476229629914E+03   -0.11363E-04   -0.25603E-05  1000   0.152E-02    0.125E-02
DAV:   7    -0.476229634114E+03   -0.42000E-05   -0.65490E-06   840   0.783E-03
 204 F= -.47622963E+03 E0= -.47620124E+03  d E =-.439455E-02
       N       E                     dE             d eps       ncg     rms          rms(c)
DAV:   1    -0.476228452277E+03    0.11776E-02   -0.11676E+00  1328   0.299E+00    0.189E-01
DAV:   2    -0.476230004172E+03   -0.15519E-02   -0.20012E-02  1484   0.365E-01    0.125E-01
DAV:   3    -0.476229927773E+03    0.76399E-04   -0.68275E-04  1584   0.781E-02    0.741E-02
DAV:   4    -0.476229955731E+03   -0.27958E-04   -0.17746E-04  1552   0.425E-02    0.283E-02
DAV:   5    -0.476229974926E+03   -0.19196E-04   -0.33975E-05  1080   0.188E-02    0.973E-03
DAV:   6    -0.476229978025E+03   -0.30989E-05   -0.65131E-06   888   0.744E-03
 205 F= -.47622998E+03 E0= -.47620164E+03  d E =-.473846E-02
       N       E                     dE             d eps       ncg     rms          rms(c)
DAV:   1    -0.476231127418E+03   -0.11525E-02   -0.11700E+00  1328   0.301E+00    0.192E-01
DAV:   2    -0.476232713998E+03   -0.15866E-02   -0.20775E-02  1496   0.373E-01    0.127E-01
DAV:   3    -0.476232615229E+03    0.98769E-04   -0.76092E-04  1552   0.846E-02    0.777E-02
DAV:   4    -0.476232627813E+03   -0.12583E-04   -0.25081E-04  1528   0.478E-02    0.312E-02
DAV:   5    -0.476232643144E+03   -0.15332E-04   -0.67892E-05  1232   0.225E-02    0.117E-02
DAV:   6    -0.476232646299E+03   -0.31551E-05   -0.11051E-05   880   0.948E-03
 206 F= -.47623265E+03 E0= -.47620432E+03  d E =-.266827E-02
       N       E                     dE             d eps       ncg     rms          rms(c)
DAV:   1    -0.476230360940E+03    0.22822E-02   -0.30801E+00  1328   0.488E+00    0.312E-01
DAV:   2    -0.476234588433E+03   -0.42275E-02   -0.54925E-02  1492   0.606E-01    0.206E-01
DAV:   3    -0.476234343539E+03    0.24489E-03   -0.19998E-03  1588   0.137E-01    0.126E-01
DAV:   4    -0.476234372472E+03   -0.28933E-04   -0.65653E-04  1540   0.775E-02    0.506E-02
DAV:   5    -0.476234411557E+03   -0.39085E-04   -0.17836E-04  1540   0.363E-02    0.192E-02
DAV:   6    -0.476234419341E+03   -0.77839E-05   -0.27254E-05   936   0.146E-02
 207 F= -.47623442E+03 E0= -.47620613E+03  d E =-.444132E-02
       N       E                     dE             d eps       ncg     rms          rms(c)
DAV:   1    -0.476235149982E+03   -0.73842E-03   -0.15369E+00  1312   0.346E+00    0.230E-01
DAV:   2    -0.476237294037E+03   -0.21441E-02   -0.28230E-02  1520   0.437E-01    0.149E-01
DAV:   3    -0.476237181006E+03    0.11303E-03   -0.11140E-03  1568   0.102E-01    0.932E-02
DAV:   4    -0.476237196605E+03   -0.15599E-04   -0.27705E-04  1540   0.520E-02    0.417E-02
DAV:   5    -0.476237220202E+03   -0.23597E-04   -0.69679E-05  1312   0.250E-02    0.142E-02
DAV:   6    -0.476237225205E+03   -0.50033E-05   -0.13355E-05   864   0.108E-02
 208 F= -.47623723E+03 E0= -.47620890E+03  d E =-.280586E-02
       N       E                     dE             d eps       ncg     rms          rms(c)
DAV:   1    -0.476236957350E+03    0.26285E-03   -0.85391E-01  1312   0.258E+00    0.172E-01
DAV:   2    -0.476238149012E+03   -0.11917E-02   -0.15708E-02  1524   0.326E-01    0.111E-01
DAV:   3    -0.476238087647E+03    0.61365E-04   -0.62126E-04  1568   0.763E-02    0.692E-02
DAV:   4    -0.476238098263E+03   -0.10616E-04   -0.15441E-04  1552   0.387E-02    0.311E-02
DAV:   5    -0.476238111755E+03   -0.13492E-04   -0.36619E-05  1040   0.186E-02    0.105E-02
DAV:   6    -0.476238115262E+03   -0.35069E-05   -0.87507E-06   848   0.846E-03
 209 F= -.47623812E+03 E0= -.47620975E+03  d E =-.369592E-02
       N       E                     dE             d eps       ncg     rms          rms(c)
DAV:   1    -0.476238044731E+03    0.67025E-04   -0.10253E-01  1312   0.894E-01    0.603E-02
DAV:   2    -0.476238190178E+03   -0.14545E-03   -0.18960E-03  1544   0.113E-01    0.381E-02
DAV:   3    -0.476238183654E+03    0.65242E-05   -0.74400E-05  1504   0.264E-02
 210 F= -.47623818E+03 E0= -.47620979E+03  d E =-.376431E-02
       N       E                     dE             d eps       ncg     rms          rms(c)
DAV:   1    -0.476238822110E+03   -0.63193E-03   -0.96666E-01  1344   0.275E+00    0.186E-01
DAV:   2    -0.476240080451E+03   -0.12583E-02   -0.17280E-02  1512   0.344E-01    0.122E-01
DAV:   3    -0.476240006725E+03    0.73726E-04   -0.66818E-04  1524   0.811E-02    0.749E-02
DAV:   4    -0.476240023592E+03   -0.16867E-04   -0.23238E-04  1512   0.447E-02    0.331E-02
DAV:   5    -0.476240035650E+03   -0.12058E-04   -0.54222E-05  1132   0.209E-02    0.112E-02
DAV:   6    -0.476240038886E+03   -0.32359E-05   -0.98384E-06   864   0.901E-03
 211 F= -.47624004E+03 E0= -.47621162E+03  d E =-.185523E-02
       N       E                     dE             d eps       ncg     rms          rms(c)
DAV:   1    -0.476239631207E+03    0.40444E-03   -0.68692E-01  1328   0.232E+00    0.154E-01
DAV:   2    -0.476240586005E+03   -0.95480E-03   -0.12600E-02  1504   0.292E-01    0.994E-02
DAV:   3    -0.476240533419E+03    0.52586E-04   -0.47020E-04  1548   0.678E-02    0.622E-02
DAV:   4    -0.476240540450E+03   -0.70306E-05   -0.15333E-04  1504   0.365E-02    0.284E-02
DAV:   5    -0.476240548718E+03   -0.82686E-05   -0.34881E-05   960   0.173E-02
 212 F= -.47624055E+03 E0= -.47621212E+03  d E =-.236506E-02
       N       E                     dE             d eps       ncg     rms          rms(c)
DAV:   1    -0.476240940194E+03   -0.39974E-03   -0.11923E+00  1312   0.304E+00    0.200E-01
DAV:   2    -0.476242699875E+03   -0.17597E-02   -0.21847E-02  1508   0.380E-01    0.126E-01
DAV:   3    -0.476242634387E+03    0.65488E-04   -0.70007E-04  1592   0.829E-02    0.805E-02
DAV:   4    -0.476242659258E+03   -0.24871E-04   -0.20535E-04  1536   0.433E-02    0.354E-02
DAV:   5    -0.476242677108E+03   -0.17851E-04   -0.42643E-05  1152   0.204E-02    0.111E-02
DAV:   6    -0.476242680030E+03   -0.29211E-05   -0.98824E-06   872   0.892E-03
 213 F= -.47624268E+03 E0= -.47621418E+03  d E =-.213131E-02
       N       E                     dE             d eps       ncg     rms          rms(c)
DAV:   1    -0.476240658586E+03    0.20185E-02   -0.21191E+00  1312   0.406E+00    0.266E-01
DAV:   2    -0.476243792555E+03   -0.31340E-02   -0.38932E-02  1508   0.507E-01    0.168E-01
DAV:   3    -0.476243668922E+03    0.12363E-03   -0.12536E-03  1584   0.111E-01    0.107E-01
DAV:   4    -0.476243704969E+03   -0.36047E-04   -0.37053E-04  1536   0.581E-02    0.472E-02
DAV:   5    -0.476243737417E+03   -0.32448E-04   -0.82632E-05  1392   0.275E-02    0.150E-02
DAV:   6    -0.476243742244E+03   -0.48266E-05   -0.17270E-05   872   0.118E-02
 214 F= -.47624374E+03 E0= -.47621515E+03  d E =-.319353E-02
       N       E                     dE             d eps       ncg     rms          rms(c)
DAV:   1    -0.476243910850E+03   -0.17343E-03   -0.12243E+00  1344   0.308E+00    0.206E-01
DAV:   2    -0.476245688665E+03   -0.17778E-02   -0.22277E-02  1528   0.389E-01    0.127E-01
DAV:   3    -0.476245619878E+03    0.68788E-04   -0.71300E-04  1564   0.856E-02    0.822E-02
DAV:   4    -0.476245645762E+03   -0.25885E-04   -0.21594E-04  1528   0.445E-02    0.365E-02
DAV:   5    -0.476245667323E+03   -0.21560E-04   -0.37482E-05  1160   0.204E-02    0.112E-02
DAV:   6    -0.476245670777E+03   -0.34544E-05   -0.90217E-06   888   0.871E-03
 215 F= -.47624567E+03 E0= -.47621699E+03  d E =-.192853E-02
       N       E                     dE             d eps       ncg     rms          rms(c)
DAV:   1    -0.476245373065E+03    0.29426E-03   -0.62064E-01  1344   0.219E+00    0.147E-01
DAV:   2    -0.476246272573E+03   -0.89951E-03   -0.11300E-02  1536   0.277E-01    0.904E-02
DAV:   3    -0.476246240181E+03    0.32392E-04   -0.36140E-04  1556   0.610E-02    0.583E-02
DAV:   4    -0.476246255562E+03   -0.15381E-04   -0.10992E-04  1536   0.316E-02    0.260E-02
DAV:   5    -0.476246266786E+03   -0.11224E-04   -0.18218E-05   920   0.146E-02    0.775E-03
DAV:   6    -0.476246269054E+03   -0.22678E-05   -0.53396E-06   880   0.656E-03
 216 F= -.47624627E+03 E0= -.47621753E+03  d E =-.252681E-02
       N       E                     dE             d eps       ncg     rms          rms(c)
DAV:   1    -0.476246174132E+03    0.92654E-04   -0.10653E-01  1344   0.909E-01    0.615E-02
DAV:   2    -0.476246329836E+03   -0.15570E-03   -0.19434E-03  1552   0.115E-01    0.373E-02
DAV:   3    -0.476246325010E+03    0.48263E-05   -0.61047E-05  1348   0.253E-02
 217 F= -.47624633E+03 E0= -.47621756E+03  d E =-.258277E-02
       N       E                     dE             d eps       ncg     rms          rms(c)
DAV:   1    -0.476246398546E+03   -0.68710E-04   -0.14474E+00  1376   0.334E+00    0.220E-01
DAV:   2    -0.476248277440E+03   -0.18789E-02   -0.25077E-02  1544   0.418E-01    0.140E-01
DAV:   3    -0.476248196295E+03    0.81144E-04   -0.94871E-04  1492   0.977E-02    0.896E-02
DAV:   4    -0.476248229486E+03   -0.33191E-04   -0.30866E-04  1524   0.513E-02    0.424E-02
DAV:   5    -0.476248254438E+03   -0.24951E-04   -0.82592E-05  1312   0.254E-02    0.142E-02
DAV:   6    -0.476248259334E+03   -0.48957E-05   -0.15250E-05   880   0.111E-02
 218 F= -.47624826E+03 E0= -.47621948E+03  d E =-.193432E-02
       N       E                     dE             d eps       ncg     rms          rms(c)
DAV:   1    -0.476247331214E+03    0.92322E-03   -0.11348E+00  1376   0.296E+00    0.192E-01
DAV:   2    -0.476248858533E+03   -0.15273E-02   -0.19916E-02  1536   0.372E-01    0.121E-01
DAV:   3    -0.476248793780E+03    0.64753E-04   -0.73111E-04  1492   0.860E-02    0.778E-02
DAV:   4    -0.476248814577E+03   -0.20797E-04   -0.23014E-04  1524   0.445E-02    0.376E-02
DAV:   5    -0.476248833466E+03   -0.18889E-04   -0.59283E-05  1192   0.219E-02    0.124E-02
DAV:   6    -0.476248837855E+03   -0.43895E-05   -0.11888E-05   864   0.980E-03
 219 F= -.47624884E+03 E0= -.47622004E+03  d E =-.251285E-02
       N       E                     dE             d eps       ncg     rms          rms(c)
DAV:   1    -0.476248460106E+03    0.37336E-03   -0.19924E+00  1376   0.390E+00    0.261E-01
DAV:   2    -0.476251073060E+03   -0.26130E-02   -0.34557E-02  1500   0.491E-01    0.158E-01
DAV:   3    -0.476250960457E+03    0.11260E-03   -0.11175E-03  1532   0.108E-01    0.102E-01
DAV:   4    -0.476250989035E+03   -0.28578E-04   -0.33665E-04  1532   0.563E-02    0.465E-02
DAV:   5    -0.476251018187E+03   -0.29152E-04   -0.57950E-05  1316   0.256E-02    0.140E-02
DAV:   6    -0.476251023825E+03   -0.56378E-05   -0.11587E-05   880   0.106E-02
 220 F= -.47625102E+03 E0= -.47622222E+03  d E =-.218597E-02
       N       E                     dE             d eps       ncg     rms          rms(c)
DAV:   1    -0.476250516528E+03    0.50166E-03   -0.87453E-01  1376   0.258E+00    0.174E-01
DAV:   2    -0.476251663403E+03   -0.11469E-02   -0.15207E-02  1516   0.325E-01    0.105E-01
DAV:   3    -0.476251617594E+03    0.45809E-04   -0.49013E-04  1516   0.714E-02    0.675E-02
DAV:   4    -0.476251634689E+03   -0.17095E-04   -0.14772E-04  1536   0.372E-02    0.310E-02
DAV:   5    -0.476251647839E+03   -0.13150E-04   -0.23099E-05   972   0.169E-02    0.911E-03
DAV:   6    -0.476251650765E+03   -0.29259E-05   -0.64561E-06   872   0.737E-03
 221 F= -.47625165E+03 E0= -.47622285E+03  d E =-.281291E-02
       N       E                     dE             d eps       ncg     rms          rms(c)
DAV:   1    -0.476251500299E+03    0.14754E-03   -0.18671E+00  1376   0.376E+00    0.264E-01
DAV:   2    -0.476253969130E+03   -0.24688E-02   -0.33128E-02  1512   0.486E-01    0.156E-01
DAV:   3    -0.476253864063E+03    0.10507E-03   -0.12373E-03  1488   0.112E-01    0.101E-01
DAV:   4    -0.476253887369E+03   -0.23306E-04   -0.36946E-04  1532   0.569E-02    0.490E-02
DAV:   5    -0.476253913276E+03   -0.25907E-04   -0.86186E-05  1468   0.269E-02    0.165E-02
DAV:   6    -0.476253919460E+03   -0.61846E-05   -0.19595E-05   856   0.126E-02
 222 F= -.47625392E+03 E0= -.47622492E+03  d E =-.226870E-02
       N       E                     dE             d eps       ncg     rms          rms(c)
DAV:   1    -0.476253600915E+03    0.31236E-03   -0.47506E-01  1376   0.190E+00    0.134E-01
DAV:   2    -0.476254232482E+03   -0.63157E-03   -0.84539E-03  1512   0.245E-01    0.784E-02
DAV:   3    -0.476254209132E+03    0.23350E-04   -0.31432E-04  1500   0.565E-02    0.509E-02
DAV:   4    -0.476254217287E+03   -0.81548E-05   -0.93832E-05  1516   0.286E-02
 223 F= -.47625422E+03 E0= -.47622511E+03  d E =-.256652E-02
       N       E                     dE             d eps       ncg     rms          rms(c)
DAV:   1    -0.476254480723E+03   -0.27159E-03   -0.99677E-01  1376   0.273E+00    0.188E-01
DAV:   2    -0.476255761311E+03   -0.12806E-02   -0.16965E-02  1456   0.344E-01    0.112E-01
DAV:   3    -0.476255722949E+03    0.38362E-04   -0.58906E-04  1508   0.780E-02    0.731E-02
DAV:   4    -0.476255749212E+03   -0.26263E-04   -0.20016E-04  1508   0.416E-02    0.343E-02
DAV:   5    -0.476255765004E+03   -0.15792E-04   -0.46740E-05  1068   0.198E-02    0.117E-02
DAV:   6    -0.476255768560E+03   -0.35559E-05   -0.11191E-05   872   0.935E-03
 224 F= -.47625577E+03 E0= -.47622663E+03  d E =-.155127E-02
       N       E                     dE             d eps       ncg     rms          rms(c)
DAV:   1    -0.476255665940E+03    0.99064E-04   -0.76104E-01  1376   0.239E+00    0.161E-01
DAV:   2    -0.476256673523E+03   -0.10076E-02   -0.13054E-02  1456   0.301E-01    0.957E-02
DAV:   3    -0.476256640665E+03    0.32857E-04   -0.43429E-04  1500   0.670E-02    0.625E-02
DAV:   4    -0.476256657575E+03   -0.16910E-04   -0.14441E-04  1516   0.355E-02    0.294E-02
DAV:   5    -0.476256668966E+03   -0.11391E-04   -0.33080E-05   980   0.169E-02    0.992E-03
DAV:   6    -0.476256671578E+03   -0.26116E-05   -0.85870E-06   856   0.813E-03
 225 F= -.47625667E+03 E0= -.47622748E+03  d E =-.245429E-02
       N       E                     dE             d eps       ncg     rms          rms(c)
DAV:   1    -0.476253217773E+03    0.34512E-02   -0.30429E+00  1376   0.477E+00    0.320E-01
DAV:   2    -0.476257233670E+03   -0.40159E-02   -0.52066E-02  1452   0.602E-01    0.192E-01
DAV:   3    -0.476257097035E+03    0.13664E-03   -0.17360E-03  1504   0.134E-01    0.125E-01
DAV:   4    -0.476257152522E+03   -0.55487E-04   -0.58244E-04  1508   0.713E-02    0.585E-02
DAV:   5    -0.476257196034E+03   -0.43512E-04   -0.14403E-04  1536   0.341E-02    0.201E-02
DAV:   6    -0.476257204693E+03   -0.86590E-05   -0.31044E-05   936   0.155E-02
 226 F= -.47625720E+03 E0= -.47622791E+03  d E =-.298741E-02
       N       E                     dE             d eps       ncg     rms          rms(c)
DAV:   1    -0.476256575823E+03    0.62021E-03   -0.17939E+00  1376   0.366E+00    0.248E-01
DAV:   2    -0.476259022193E+03   -0.24464E-02   -0.31140E-02  1452   0.466E-01    0.147E-01
DAV:   3    -0.476258943869E+03    0.78324E-04   -0.99802E-04  1520   0.103E-01    0.966E-02
DAV:   4    -0.476258984757E+03   -0.40888E-04   -0.33783E-04  1500   0.545E-02    0.455E-02
DAV:   5    -0.476259012732E+03   -0.27976E-04   -0.83651E-05  1384   0.265E-02    0.153E-02
DAV:   6    -0.476259018319E+03   -0.55865E-05   -0.19399E-05   864   0.121E-02
 227 F= -.47625902E+03 E0= -.47622968E+03  d E =-.181363E-02
       N       E                     dE             d eps       ncg     rms          rms(c)
DAV:   1    -0.476258398791E+03    0.61394E-03   -0.86614E-01  1360   0.254E+00    0.173E-01
DAV:   2    -0.476259600827E+03   -0.12020E-02   -0.15253E-02  1468   0.324E-01    0.102E-01
DAV:   3    -0.476259565877E+03    0.34950E-04   -0.50108E-04  1520   0.720E-02    0.674E-02
DAV:   4    -0.476259588092E+03   -0.22214E-04   -0.16068E-04  1500   0.374E-02    0.321E-02
DAV:   5    -0.476259602868E+03   -0.14776E-04   -0.37971E-05  1028   0.183E-02    0.106E-02
DAV:   6    -0.476259606170E+03   -0.33025E-05   -0.10439E-05   856   0.882E-03
 228 F= -.47625961E+03 E0= -.47623025E+03  d E =-.240148E-02
       N       E                     dE             d eps       ncg     rms          rms(c)
DAV:   1    -0.476259390075E+03    0.21279E-03   -0.21297E-01  1360   0.126E+00    0.863E-02
DAV:   2    -0.476259685996E+03   -0.29592E-03   -0.37591E-03  1484   0.161E-01    0.506E-02
DAV:   3    -0.476259679611E+03    0.63854E-05   -0.12381E-04  1500   0.358E-02    0.333E-02
DAV:   4    -0.476259686189E+03   -0.65783E-05   -0.37661E-05  1120   0.185E-02
 229 F= -.47625969E+03 E0= -.47623030E+03  d E =-.248150E-02
       N       E                     dE             d eps       ncg     rms          rms(c)
DAV:   1    -0.476260252532E+03   -0.57292E-03   -0.80625E-01  1360   0.246E+00    0.175E-01
DAV:   2    -0.476261353402E+03   -0.11009E-02   -0.14327E-02  1504   0.318E-01    0.103E-01
DAV:   3    -0.476261313791E+03    0.39611E-04   -0.53253E-04  1528   0.738E-02    0.674E-02
DAV:   4    -0.476261332082E+03   -0.18291E-04   -0.15850E-04  1532   0.372E-02    0.326E-02
DAV:   5    -0.476261345928E+03   -0.13846E-04   -0.37496E-05   980   0.183E-02    0.107E-02
DAV:   6    -0.476261348665E+03   -0.27368E-05   -0.10717E-05   848   0.914E-03
 230 F= -.47626135E+03 E0= -.47623194E+03  d E =-.166248E-02
       N       E                     dE             d eps       ncg     rms          rms(c)
DAV:   1    -0.476261286482E+03    0.59446E-04   -0.36010E-01  1360   0.165E+00    0.116E-01
DAV:   2    -0.476261787411E+03   -0.50093E-03   -0.64402E-03  1524   0.213E-01    0.678E-02
DAV:   3    -0.476261771757E+03    0.15654E-04   -0.23272E-04  1520   0.488E-02    0.443E-02
DAV:   4    -0.476261780171E+03   -0.84142E-05   -0.67858E-05  1460   0.245E-02
 231 F= -.47626178E+03 E0= -.47623233E+03  d E =-.209398E-02
       N       E                     dE             d eps       ncg     rms          rms(c)
DAV:   1    -0.476262492631E+03   -0.72087E-03   -0.53351E-01  1360   0.201E+00    0.140E-01
DAV:   2    -0.476263194341E+03   -0.70171E-03   -0.93082E-03  1504   0.256E-01    0.847E-02
DAV:   3    -0.476263171304E+03    0.23037E-04   -0.33631E-04  1544   0.584E-02    0.546E-02
DAV:   4    -0.476263183799E+03   -0.12495E-04   -0.10435E-04  1512   0.308E-02    0.253E-02
DAV:   5    -0.476263192291E+03   -0.84916E-05   -0.23679E-05   928   0.148E-02
 232 F= -.47626319E+03 E0= -.47623375E+03  d E =-.141212E-02
       N       E                     dE             d eps       ncg     rms          rms(c)
DAV:   1    -0.476263271778E+03   -0.87978E-04   -0.24087E-01  1360   0.135E+00    0.933E-02
DAV:   2    -0.476263596330E+03   -0.32455E-03   -0.42134E-03  1524   0.172E-01    0.553E-02
DAV:   3    -0.476263587131E+03    0.91991E-05   -0.14411E-04  1544   0.384E-02    0.357E-02
DAV:   4    -0.476263593001E+03   -0.58705E-05   -0.41707E-05  1232   0.200E-02
 233 F= -.47626359E+03 E0= -.47623410E+03  d E =-.181283E-02
       N       E                     dE             d eps       ncg     rms          rms(c)
DAV:   1    -0.476264150724E+03   -0.56359E-03   -0.48799E-01  1360   0.193E+00    0.133E-01
DAV:   2    -0.476264797461E+03   -0.64674E-03   -0.86032E-03  1512   0.246E-01    0.807E-02
DAV:   3    -0.476264775952E+03    0.21509E-04   -0.35653E-04  1512   0.590E-02    0.529E-02
DAV:   4    -0.476264785682E+03   -0.97298E-05   -0.97490E-05  1504   0.285E-02
 234 F= -.47626479E+03 E0= -.47623527E+03  d E =-.119268E-02
