       N       E                     dE             d eps       ncg     rms          rms(c)
DAV:   1     0.243758376041E+04    0.24376E+04   -0.93025E+04  1528   0.101E+03
DAV:   2     0.266023124384E+02   -0.24110E+04   -0.22922E+04  1896   0.283E+02
DAV:   3    -0.496280169924E+03   -0.52288E+03   -0.51439E+03  1600   0.143E+02
DAV:   4    -0.519032818674E+03   -0.22753E+02   -0.21608E+02  1528   0.351E+01
DAV:   5    -0.520192813805E+03   -0.11600E+01   -0.11373E+01  1904   0.763E+00    0.763E+01
DAV:   6    -0.729331680387E+03   -0.20914E+03   -0.40562E+02  1936   0.771E+01    0.571E+02
DAV:   7    -0.729557831610E+03   -0.22615E+00   -0.30343E+02  1800   0.307E+01    0.752E+02
DAV:   8    -0.683974534646E+03    0.45583E+02   -0.20547E+01  1552   0.117E+01    0.749E+02
DAV:   9    -0.661047844200E+03    0.22927E+02   -0.10079E+02  1608   0.251E+01    0.761E+02
DAV:  10    -0.594539219253E+03    0.66509E+02   -0.72917E+01  1568   0.240E+01    0.165E+02
DAV:  11    -0.525420593363E+03    0.69119E+02   -0.61500E+01  1612   0.243E+01    0.129E+02
DAV:  12    -0.515709265388E+03    0.97113E+01   -0.40380E+01  1788   0.183E+01    0.933E+01
DAV:  13    -0.498234935369E+03    0.17474E+02   -0.11418E+01  1800   0.168E+01    0.795E+01
DAV:  14    -0.482000436259E+03    0.16234E+02   -0.15788E+01  1816   0.376E+01    0.563E+01
DAV:  15    -0.528311883858E+03   -0.46311E+02   -0.58939E+01  1972   0.772E+01    0.750E+01
DAV:  16    -0.474989973633E+03    0.53322E+02   -0.95197E+00  1760   0.113E+01    0.484E+01
DAV:  17    -0.478063912222E+03   -0.30739E+01   -0.11233E+01  1792   0.878E+00    0.575E+01
DAV:  18    -0.477434528535E+03    0.62938E+00   -0.78485E-01  1816   0.388E+00    0.596E+01
DAV:  19    -0.478059003813E+03   -0.62448E+00   -0.21547E-01  1888   0.297E+00    0.659E+01
DAV:  20    -0.477693520201E+03    0.36548E+00   -0.10879E-01  1776   0.188E+00    0.703E+01
DAV:  21    -0.477273130095E+03    0.42039E+00   -0.66478E-02  1840   0.194E+00    0.728E+01
DAV:  22    -0.477057630021E+03    0.21550E+00   -0.29364E-02  1872   0.970E-01    0.751E+01
DAV:  23    -0.476930706264E+03    0.12692E+00   -0.10942E-02  1912   0.617E-01    0.771E+01
DAV:  24    -0.476939319109E+03   -0.86128E-02   -0.28441E-03  1528   0.132E-01    0.769E+01
DAV:  25    -0.476939291169E+03    0.27941E-04   -0.11159E-04  1376   0.173E-02    0.769E+01
DAV:  26    -0.476935138603E+03    0.41526E-02   -0.90014E-06   992   0.229E-02    0.770E+01
DAV:  27    -0.476940208015E+03   -0.50694E-02   -0.10892E-02  1624   0.442E-01    0.736E+01
DAV:  28    -0.476979390880E+03   -0.39183E-01   -0.34931E-02  1680   0.846E-01    0.674E+01
DAV:  29    -0.477033773154E+03   -0.54382E-01   -0.10021E-01  1640   0.152E+00    0.531E+01
DAV:  30    -0.476600858107E+03    0.43292E+00   -0.10228E-01  1840   0.226E+00    0.412E+01
DAV:  31    -0.476188369697E+03    0.41249E+00   -0.56617E-02  1936   0.192E+00    0.369E+01
DAV:  32    -0.475900198815E+03    0.28817E+00   -0.31709E-02  1944   0.117E+00    0.347E+01
DAV:  33    -0.475185038469E+03    0.71516E+00   -0.15502E-01  1936   0.284E+00    0.286E+01
DAV:  34    -0.475168905267E+03    0.16133E-01   -0.38323E+00  1904   0.191E+00    0.249E+01
DAV:  35    -0.475353433962E+03   -0.18453E+00   -0.23909E-01  1588   0.635E-01    0.279E+01
DAV:  36    -0.475217111372E+03    0.13632E+00   -0.10458E-02  1696   0.191E-01    0.272E+01
DAV:  37    -0.475251776676E+03   -0.34665E-01   -0.79077E-03  1856   0.757E-02    0.277E+01
DAV:  38    -0.475023410025E+03    0.22837E+00   -0.18597E-01  1896   0.398E-01    0.243E+01
DAV:  39    -0.475029981216E+03   -0.65712E-02   -0.11077E-01  1752   0.257E-01    0.235E+01
DAV:  40    -0.475056194043E+03   -0.26213E-01   -0.73751E-01  1888   0.372E-01    0.225E+01
DAV:  41    -0.476365922519E+03   -0.13097E+01   -0.64040E+00  1872   0.208E+00    0.284E+01
DAV:  42    -0.476270691494E+03    0.95231E-01   -0.39482E-02  1704   0.589E-01    0.285E+01
DAV:  43    -0.476222985492E+03    0.47706E-01   -0.29259E-03  1640   0.107E-01    0.284E+01
DAV:  44    -0.476176918795E+03    0.46067E-01   -0.12342E-03  1768   0.108E-01    0.281E+01
DAV:  45    -0.476098013133E+03    0.78906E-01   -0.10433E-03  1720   0.940E-02    0.279E+01
DAV:  46    -0.475934117062E+03    0.16390E+00   -0.10433E-03  1760   0.131E-01    0.273E+01
DAV:  47    -0.475066321335E+03    0.86780E+00   -0.67365E-02  1776   0.763E-01    0.233E+01
DAV:  48    -0.474791205706E+03    0.27512E+00   -0.21363E-01  1880   0.442E-01    0.174E+01
DAV:  49    -0.474906223256E+03   -0.11502E+00   -0.13292E-02  1524   0.264E-01    0.190E+01
DAV:  50    -0.474840530355E+03    0.65693E-01   -0.89209E-03  1696   0.192E-01    0.172E+01
DAV:  51    -0.474906683131E+03   -0.66153E-01   -0.22673E-01  1756   0.884E-01    0.139E+01
DAV:  52    -0.474781761584E+03    0.12492E+00   -0.19117E-01  1744   0.504E-01    0.917E+00
DAV:  53    -0.474820608789E+03   -0.38847E-01   -0.66143E-01  1764   0.391E-01    0.863E+00
DAV:  54    -0.475088149828E+03   -0.26754E+00   -0.42912E+00  1704   0.831E-01    0.997E+00
DAV:  55    -0.475304170869E+03   -0.21602E+00   -0.10583E+01  1680   0.123E+00    0.959E+00
DAV:  56    -0.475181400259E+03    0.12277E+00   -0.10850E+01  1664   0.158E+00    0.588E+00
DAV:  57    -0.475020749383E+03    0.16065E+00   -0.68714E+00  1536   0.143E+00    0.282E+00
DAV:  58    -0.474890658066E+03    0.13009E+00   -0.29637E+00  1568   0.115E+00    0.272E+00
DAV:  59    -0.474845767254E+03    0.44891E-01   -0.10114E+00  1792   0.754E-01    0.508E+00
DAV:  60    -0.474755799692E+03    0.89968E-01   -0.13282E-01  1804   0.497E-01    0.425E+00
DAV:  61    -0.474841683806E+03   -0.85884E-01   -0.13158E-01  1816   0.435E-01    0.627E+00
DAV:  62    -0.474731015031E+03    0.11067E+00   -0.57437E-02  1824   0.493E-01    0.367E+00
DAV:  63    -0.474722017701E+03    0.89973E-02   -0.12637E-02  1864   0.145E-01    0.252E+00
DAV:  64    -0.474717942113E+03    0.40756E-02   -0.21295E-02  1792   0.170E-01    0.101E+00
DAV:  65    -0.474726457225E+03   -0.85151E-02   -0.67819E-02  1684   0.169E-01    0.990E-01
DAV:  66    -0.474790834984E+03   -0.64378E-01   -0.34177E-01  1780   0.670E-01    0.491E+00
DAV:  67    -0.474722205466E+03    0.68630E-01   -0.17663E-01  1800   0.562E-01    0.106E+00
DAV:  68    -0.474755792529E+03   -0.33587E-01   -0.50515E-01  1744   0.286E-01    0.159E+00
DAV:  69    -0.474824275873E+03   -0.68483E-01   -0.16033E+00  1704   0.490E-01    0.326E+00
DAV:  70    -0.474914397013E+03   -0.90121E-01   -0.35480E+00  1548   0.786E-01    0.440E+00
DAV:  71    -0.474968290328E+03   -0.53893E-01   -0.50543E+00  1508   0.101E+00    0.394E+00
DAV:  72    -0.474936505090E+03    0.31785E-01   -0.45184E+00  1484   0.108E+00    0.223E+00
DAV:  73    -0.474871165014E+03    0.65340E-01   -0.26745E+00  1508   0.940E-01    0.196E+00
DAV:  74    -0.474834659683E+03    0.36505E-01   -0.18483E+00  1432   0.752E-01    0.217E+00
DAV:  75    -0.474806041798E+03    0.28618E-01   -0.12538E+00  1452   0.620E-01    0.219E+00
DAV:  76    -0.474795389589E+03    0.10652E-01   -0.11385E+00  1536   0.549E-01    0.215E+00
DAV:  77    -0.474796218713E+03   -0.82912E-03   -0.11574E+00  1524   0.538E-01    0.189E+00
DAV:  78    -0.474807487651E+03   -0.11269E-01   -0.14371E+00  1424   0.569E-01    0.183E+00
DAV:  79    -0.474833171166E+03   -0.25684E-01   -0.18791E+00  1456   0.635E-01    0.210E+00
DAV:  80    -0.474853972465E+03   -0.20801E-01   -0.23554E+00  1424   0.728E-01    0.224E+00
DAV:  81    -0.474868804250E+03   -0.14832E-01   -0.26493E+00  1420   0.780E-01    0.231E+00
DAV:  82    -0.474866946828E+03    0.18574E-02   -0.26535E+00  1424   0.813E-01    0.208E+00
DAV:  83    -0.474858156038E+03    0.87908E-02   -0.24076E+00  1452   0.784E-01    0.196E+00
DAV:  84    -0.474842560289E+03    0.15596E-01   -0.20861E+00  1384   0.749E-01    0.190E+00
DAV:  85    -0.474834538648E+03    0.80216E-02   -0.18869E+00  1408   0.694E-01    0.187E+00
DAV:  86    -0.474826927105E+03    0.76115E-02   -0.17764E+00  1452   0.676E-01    0.188E+00
DAV:  87    -0.474836006910E+03   -0.90798E-02   -0.19368E+00  1408   0.671E-01    0.193E+00
DAV:  88    -0.474840844557E+03   -0.48376E-02   -0.20717E+00  1392   0.707E-01    0.199E+00
DAV:  89    -0.474850994930E+03   -0.10150E-01   -0.22521E+00  1416   0.723E-01    0.206E+00
DAV:  90    -0.474851260544E+03   -0.26561E-03   -0.22938E+00  1416   0.754E-01    0.203E+00
DAV:  91    -0.474854273374E+03   -0.30128E-02   -0.23208E+00  1400   0.748E-01    0.205E+00
DAV:  92    -0.474850151701E+03    0.41217E-02   -0.22702E+00  1396   0.758E-01    0.197E+00
DAV:  93    -0.474849209377E+03    0.94232E-03   -0.22062E+00  1400   0.737E-01    0.196E+00
DAV:  94    -0.474842595470E+03    0.66139E-02   -0.21053E+00  1404   0.733E-01    0.191E+00
DAV:  95    -0.474841969482E+03    0.62599E-03   -0.20487E+00  1400   0.710E-01    0.192E+00
DAV:  96    -0.474837359820E+03    0.46097E-02   -0.19976E+00  1404   0.709E-01    0.188E+00
DAV:  97    -0.474838586110E+03   -0.12263E-02   -0.19771E+00  1416   0.694E-01    0.192E+00
DAV:  98    -0.474836022816E+03    0.25633E-02   -0.19740E+00  1412   0.701E-01    0.188E+00
DAV:  99    -0.474839741418E+03   -0.37186E-02   -0.20023E+00  1424   0.694E-01    0.194E+00
DAV: 100    -0.474838469955E+03    0.12715E-02   -0.20281E+00  1416   0.708E-01    0.190E+00
DAV: 101    -0.474842869287E+03   -0.43993E-02   -0.20659E+00  1428   0.706E-01    0.197E+00
DAV: 102    -0.474842560376E+03    0.30891E-03   -0.21127E+00  1476   0.719E-01    0.191E+00
DAV: 103    -0.474844271535E+03   -0.17112E-02   -0.20953E+00  1468   0.716E-01    0.191E+00
DAV: 104    -0.474834091282E+03    0.10180E-01   -0.19176E+00  1448   0.705E-01    0.187E+00
DAV: 105    -0.474832838128E+03    0.12532E-02   -0.18500E+00  1440   0.676E-01    0.188E+00
DAV: 106    -0.474822492019E+03    0.10346E-01   -0.16974E+00  1468   0.674E-01    0.197E+00
DAV: 107    -0.474856566219E+03   -0.34074E-01   -0.22882E+00  1552   0.693E-01    0.293E+00
DAV: 108    -0.474900830514E+03   -0.44264E-01   -0.33133E+00  1440   0.841E-01    0.363E+00
DAV: 109    -0.474939000524E+03   -0.38170E-01   -0.42143E+00  1460   0.944E-01    0.388E+00
DAV: 110    -0.474940552758E+03   -0.15522E-02   -0.43621E+00  1416   0.102E+00    0.347E+00
DAV: 111    -0.474925750818E+03    0.14802E-01   -0.41025E+00  1396   0.101E+00    0.265E+00
DAV: 112    -0.474883068431E+03    0.42682E-01   -0.30598E+00  1420   0.947E-01    0.190E+00
DAV: 113    -0.474844178751E+03    0.38890E-01   -0.20116E+00  1408   0.785E-01    0.203E+00
DAV: 114    -0.474812763074E+03    0.31416E-01   -0.14479E+00  1408   0.658E-01    0.203E+00
DAV: 115    -0.474805965425E+03    0.67976E-02   -0.13008E+00  1424   0.580E-01    0.198E+00
DAV: 116    -0.474805203962E+03    0.76146E-03   -0.13801E+00  1392   0.576E-01    0.180E+00
DAV: 117    -0.474822090108E+03   -0.16886E-01   -0.16487E+00  1428   0.606E-01    0.192E+00
DAV: 118    -0.474834391319E+03   -0.12301E-01   -0.19542E+00  1384   0.668E-01    0.199E+00
DAV: 119    -0.474856030628E+03   -0.21639E-01   -0.23375E+00  1456   0.720E-01    0.225E+00
DAV: 120    -0.474862414923E+03   -0.63843E-02   -0.25463E+00  1408   0.780E-01    0.223E+00
DAV: 121    -0.474870922880E+03   -0.85080E-02   -0.26779E+00  1424   0.796E-01    0.228E+00
DAV: 122    -0.474863623393E+03    0.72995E-02   -0.25794E+00  1432   0.811E-01    0.207E+00
DAV: 123    -0.474861048517E+03    0.25749E-02   -0.24523E+00  1404   0.781E-01    0.205E+00
DAV: 124    -0.474848017089E+03    0.13031E-01   -0.22236E+00  1384   0.764E-01    0.188E+00
DAV: 125    -0.474844573804E+03    0.34433E-02   -0.20821E+00  1400   0.722E-01    0.194E+00
DAV: 126    -0.474835179674E+03    0.93941E-02   -0.19517E+00  1384   0.707E-01    0.184E+00
DAV: 127    -0.474837916597E+03   -0.27369E-02   -0.19471E+00  1416   0.687E-01    0.193E+00
DAV: 128    -0.474834816944E+03    0.30997E-02   -0.19521E+00  1384   0.695E-01    0.186E+00
DAV: 129    -0.474843038939E+03   -0.82220E-02   -0.20586E+00  1400   0.697E-01    0.199E+00
DAV: 130    -0.474842824908E+03    0.21403E-03   -0.21207E+00  1384   0.721E-01    0.194E+00
DAV: 131    -0.474851466018E+03   -0.86411E-02   -0.22388E+00  1424   0.726E-01    0.207E+00
DAV: 132    -0.474849478891E+03    0.19871E-02   -0.22625E+00  1392   0.749E-01    0.198E+00
DAV: 133    -0.474854737201E+03   -0.52583E-02   -0.23104E+00  1400   0.744E-01    0.206E+00
DAV: 134    -0.474849254321E+03    0.54829E-02   -0.22562E+00  1388   0.755E-01    0.194E+00
DAV: 135    -0.474851511982E+03   -0.22577E-02   -0.22379E+00  1400   0.738E-01    0.201E+00
DAV: 136    -0.474844619793E+03    0.68922E-02   -0.21544E+00  1384   0.740E-01    0.190E+00
DAV: 137    -0.474846786563E+03   -0.21668E-02   -0.21345E+00  1392   0.721E-01    0.198E+00
DAV: 138    -0.474841124032E+03    0.56625E-02   -0.20807E+00  1380   0.724E-01    0.188E+00
DAV: 139    -0.474845247896E+03   -0.41239E-02   -0.21027E+00  1384   0.712E-01    0.198E+00
DAV: 140    -0.474841538156E+03    0.37097E-02   -0.20912E+00  1376   0.722E-01    0.190E+00
DAV: 141    -0.474847226078E+03   -0.56879E-02   -0.21458E+00  1392   0.716E-01    0.201E+00
DAV: 142    -0.474844370991E+03    0.28551E-02   -0.21521E+00  1380   0.731E-01    0.192E+00
DAV: 143    -0.474849822052E+03   -0.54511E-02   -0.22018E+00  1384   0.726E-01    0.203E+00
DAV: 144    -0.474846104637E+03    0.37174E-02   -0.21888E+00  1384   0.739E-01    0.193E+00
DAV: 145    -0.474850380194E+03   -0.42756E-02   -0.22136E+00  1392   0.730E-01    0.202E+00
DAV: 146    -0.474845604293E+03    0.47759E-02   -0.21773E+00  1380   0.739E-01    0.192E+00
DAV: 147    -0.474849187677E+03   -0.35834E-02   -0.21873E+00  1384   0.727E-01    0.201E+00
DAV: 148    -0.474844122688E+03    0.50650E-02   -0.21452E+00  1376   0.734E-01    0.191E+00
DAV: 149    -0.474847854145E+03   -0.37315E-02   -0.21584E+00  1384   0.722E-01    0.200E+00
DAV: 150    -0.474843244056E+03    0.46101E-02   -0.21267E+00  1376   0.730E-01    0.190E+00
DAV: 151    -0.474847587105E+03   -0.43430E-02   -0.21529E+00  1384   0.720E-01    0.200E+00
DAV: 152    -0.474843526533E+03    0.40606E-02   -0.21331E+00  1376   0.730E-01    0.191E+00
DAV: 153    -0.474848309322E+03   -0.47828E-02   -0.21688E+00  1384   0.722E-01    0.201E+00
DAV: 154    -0.474844400421E+03    0.39089E-02   -0.21519E+00  1376   0.733E-01    0.192E+00
DAV: 155    -0.474849087909E+03   -0.46875E-02   -0.21856E+00  1384   0.725E-01    0.201E+00
DAV: 156    -0.474844872350E+03    0.42156E-02   -0.21619E+00  1376   0.735E-01    0.192E+00
DAV: 157    -0.474849103416E+03   -0.42311E-02   -0.21857E+00  1384   0.725E-01    0.201E+00
DAV: 158    -0.474844530868E+03    0.45725E-02   -0.21543E+00  1376   0.735E-01    0.191E+00
DAV: 159    -0.474848576098E+03   -0.40452E-02   -0.21742E+00  1384   0.724E-01    0.201E+00
DAV: 160    -0.474844027615E+03    0.45485E-02   -0.21435E+00  1376   0.733E-01    0.191E+00
DAV: 161    -0.474848251773E+03   -0.42242E-02   -0.21672E+00  1384   0.722E-01    0.201E+00
DAV: 162    -0.474844005567E+03    0.42462E-02   -0.21433E+00  1376   0.732E-01    0.191E+00
DAV: 163    -0.474848452566E+03   -0.44470E-02   -0.21717E+00  1384   0.723E-01    0.201E+00
DAV: 164    -0.474844304693E+03    0.41479E-02   -0.21498E+00  1376   0.733E-01    0.191E+00
DAV: 165    -0.474848719048E+03   -0.44144E-02   -0.21774E+00  1384   0.724E-01    0.201E+00
DAV: 166    -0.474844448048E+03    0.42710E-02   -0.21528E+00  1376   0.734E-01    0.191E+00
DAV: 167    -0.474848649713E+03   -0.42017E-02   -0.21758E+00  1384   0.724E-01    0.201E+00
DAV: 168    -0.474844260830E+03    0.43889E-02   -0.21487E+00  1376   0.733E-01    0.191E+00
DAV: 169    -0.474848468558E+03   -0.42077E-02   -0.21718E+00  1384   0.723E-01    0.201E+00
DAV: 170    -0.474844176591E+03    0.42920E-02   -0.21470E+00  1376   0.733E-01    0.191E+00
DAV: 171    -0.474848496541E+03   -0.43199E-02   -0.21725E+00  1384   0.723E-01    0.201E+00
DAV: 172    -0.474844325561E+03    0.41710E-02   -0.21503E+00  1376   0.733E-01    0.191E+00
DAV: 173    -0.474848597313E+03   -0.42718E-02   -0.21746E+00  1384   0.724E-01    0.201E+00
DAV: 174    -0.474844320027E+03    0.42773E-02   -0.21501E+00  1376   0.733E-01    0.191E+00
DAV: 175    -0.474848524182E+03   -0.42042E-02   -0.21730E+00  1384   0.723E-01    0.201E+00
DAV: 176    -0.474844256035E+03    0.42681E-02   -0.21487E+00  1376   0.733E-01    0.191E+00
DAV: 177    -0.474848488885E+03   -0.42328E-02   -0.21722E+00  1384   0.723E-01    0.201E+00
DAV: 178    -0.474844326379E+03    0.41625E-02   -0.21503E+00  1376   0.733E-01    0.191E+00
DAV: 179    -0.474848507896E+03   -0.41815E-02   -0.21726E+00  1384   0.723E-01    0.201E+00
DAV: 180    -0.474844312698E+03    0.41952E-02   -0.21500E+00  1376   0.733E-01    0.191E+00
DAV: 181    -0.474848491724E+03   -0.41790E-02   -0.21722E+00  1384   0.723E-01    0.201E+00
DAV: 182    -0.474844440235E+03    0.40515E-02   -0.21530E+00  1376   0.733E-01    0.191E+00
DAV: 183    -0.474848132273E+03   -0.36920E-02   -0.21637E+00  1384   0.723E-01    0.202E+00
DAV: 184    -0.474845094994E+03    0.30373E-02   -0.21685E+00  1384   0.733E-01    0.190E+00
DAV: 185    -0.474847494886E+03   -0.23999E-02   -0.21486E+00  1384   0.723E-01    0.201E+00
DAV: 186    -0.474844664526E+03    0.28304E-02   -0.21593E+00  1376   0.731E-01    0.191E+00
DAV: 187    -0.474848528808E+03   -0.38643E-02   -0.21726E+00  1384   0.724E-01    0.201E+00
DAV: 188    -0.474844159574E+03    0.43692E-02   -0.21466E+00  1376   0.733E-01    0.191E+00
DAV: 189    -0.474848653932E+03   -0.44944E-02   -0.21761E+00  1384   0.723E-01    0.201E+00
DAV: 190    -0.474844189054E+03    0.44649E-02   -0.21470E+00  1376   0.733E-01    0.191E+00
DAV: 191    -0.474848613401E+03   -0.44243E-02   -0.21752E+00  1384   0.723E-01    0.201E+00
DAV: 192    -0.474844163024E+03    0.44504E-02   -0.21464E+00  1376   0.733E-01    0.191E+00
DAV: 193    -0.474848684264E+03   -0.45212E-02   -0.21768E+00  1384   0.723E-01    0.201E+00
DAV: 194    -0.474844125493E+03    0.45588E-02   -0.21455E+00  1376   0.733E-01    0.191E+00
DAV: 195    -0.474848663813E+03   -0.45383E-02   -0.21764E+00  1384   0.723E-01    0.201E+00
DAV: 196    -0.474844185385E+03    0.44784E-02   -0.21469E+00  1376   0.733E-01    0.191E+00
DAV: 197    -0.474848624368E+03   -0.44390E-02   -0.21755E+00  1384   0.723E-01    0.201E+00
DAV: 198    -0.474844187403E+03    0.44370E-02   -0.21470E+00  1376   0.733E-01    0.191E+00
DAV: 199    -0.474848617888E+03   -0.44305E-02   -0.21753E+00  1384   0.723E-01    0.201E+00
DAV: 200    -0.474844212010E+03    0.44059E-02   -0.21476E+00  1376   0.733E-01
   1 F= -.47484421E+03 E0= -.47478041E+03  d E =-.474844E+03
       N       E                     dE             d eps       ncg     rms          rms(c)
DAV:   1    -0.474850761814E+03   -0.21439E-02   -0.25091E+00  1424   0.214E+00    0.242E+00
DAV:   2    -0.475366316871E+03   -0.51556E+00   -0.38310E+00  1828   0.216E+00    0.881E+00
DAV:   3    -0.474754796098E+03    0.61152E+00   -0.12966E+00  1780   0.308E+00    0.577E+00
DAV:   4    -0.474813970501E+03   -0.59174E-01   -0.67032E-01  1800   0.111E+00    0.572E+00
DAV:   5    -0.474739931219E+03    0.74039E-01   -0.43806E-02  1668   0.390E-01    0.341E+00
DAV:   6    -0.474729022807E+03    0.10908E-01   -0.49474E-02  1644   0.196E-01    0.238E+00
DAV:   7    -0.474729840533E+03   -0.81773E-03   -0.95712E-02  1688   0.212E-01    0.871E-01
DAV:   8    -0.474757225944E+03   -0.27385E-01   -0.38699E-01  1628   0.276E-01    0.228E+00
DAV:   9    -0.474826882378E+03   -0.69656E-01   -0.15758E+00  1604   0.473E-01    0.375E+00
DAV:  10    -0.474968340914E+03   -0.14146E+00   -0.41332E+00  1500   0.808E-01    0.580E+00
DAV:  11    -0.475057933915E+03   -0.89593E-01   -0.64996E+00  1516   0.110E+00    0.681E+00
DAV:  12    -0.475137538395E+03   -0.79604E-01   -0.78615E+00  1440   0.127E+00    0.732E+00
DAV:  13    -0.475126993636E+03    0.10545E-01   -0.85348E+00  1404   0.136E+00    0.712E+00
DAV:  14    -0.475142668065E+03   -0.15674E-01   -0.82934E+00  1400   0.138E+00    0.693E+00
DAV:  15    -0.475085322843E+03    0.57345E-01   -0.80363E+00  1384   0.137E+00    0.609E+00
DAV:  16    -0.475067556867E+03    0.17766E-01   -0.70817E+00  1432   0.133E+00    0.500E+00
DAV:  17    -0.474975617519E+03    0.91939E-01   -0.56271E+00  1412   0.125E+00    0.338E+00
DAV:  18    -0.474939919211E+03    0.35698E-01   -0.41467E+00  1476   0.111E+00    0.260E+00
DAV:  19    -0.474860793747E+03    0.79125E-01   -0.25329E+00  1456   0.907E-01    0.150E+00
DAV:  20    -0.474842019028E+03    0.18775E-01   -0.17788E+00  1456   0.737E-01    0.241E+00
DAV:  21    -0.474813613497E+03    0.28406E-01   -0.14933E+00  1440   0.636E-01    0.150E+00
DAV:  22    -0.474826069760E+03   -0.12456E-01   -0.15493E+00  1400   0.617E-01    0.226E+00
DAV:  23    -0.474825501991E+03    0.56777E-03   -0.17547E+00  1420   0.636E-01    0.154E+00
DAV:  24    -0.474847892048E+03   -0.22390E-01   -0.19785E+00  1432   0.686E-01    0.231E+00
DAV:  25    -0.474847264688E+03    0.62736E-03   -0.22046E+00  1404   0.716E-01    0.175E+00
DAV:  26    -0.474864636771E+03   -0.17372E-01   -0.23218E+00  1416   0.757E-01    0.240E+00
DAV:  27    -0.474857391921E+03    0.72449E-02   -0.24273E+00  1404   0.765E-01    0.182E+00
DAV:  28    -0.474868708108E+03   -0.11316E-01   -0.24092E+00  1400   0.784E-01    0.239E+00
DAV:  29    -0.474857139858E+03    0.11568E-01   -0.24193E+00  1400   0.772E-01    0.177E+00
DAV:  30    -0.474865293938E+03   -0.81541E-02   -0.23358E+00  1400   0.777E-01    0.233E+00
DAV:  31    -0.474853056225E+03    0.12238E-01   -0.23217E+00  1396   0.757E-01    0.171E+00
DAV:  32    -0.474860823360E+03   -0.77671E-02   -0.22418E+00  1400   0.761E-01    0.230E+00
DAV:  33    -0.474850083892E+03    0.10739E-01   -0.22505E+00  1396   0.743E-01    0.169E+00
DAV:  34    -0.474858602728E+03   -0.85188E-02   -0.21971E+00  1384   0.751E-01    0.228E+00
DAV:  35    -0.474849465833E+03    0.91369E-02   -0.22330E+00  1392   0.738E-01    0.169E+00
DAV:  36    -0.474858473305E+03   -0.90075E-02   -0.21966E+00  1384   0.750E-01    0.228E+00
DAV:  37    -0.474850151595E+03    0.83217E-02   -0.22447E+00  1392   0.739E-01    0.171E+00
DAV:  38    -0.474859016152E+03   -0.88646E-02   -0.22098E+00  1384   0.752E-01    0.227E+00
DAV:  39    -0.474850894339E+03    0.81218E-02   -0.22577E+00  1384   0.741E-01    0.172E+00
DAV:  40    -0.474859288452E+03   -0.83941E-02   -0.22170E+00  1384   0.754E-01    0.227E+00
DAV:  41    -0.474851191889E+03    0.80966E-02   -0.22608E+00  1384   0.742E-01    0.172E+00
DAV:  42    -0.474859121467E+03   -0.79296E-02   -0.22149E+00  1384   0.754E-01    0.226E+00
DAV:  43    -0.474851146101E+03    0.79754E-02   -0.22562E+00  1384   0.742E-01    0.172E+00
DAV:  44    -0.474858751223E+03   -0.76051E-02   -0.22086E+00  1384   0.753E-01    0.225E+00
DAV:  45    -0.474851023602E+03    0.77276E-02   -0.22500E+00  1384   0.741E-01    0.172E+00
DAV:  46    -0.474858410053E+03   -0.73865E-02   -0.22030E+00  1384   0.752E-01    0.224E+00
DAV:  47    -0.474851003216E+03    0.74068E-02   -0.22437E+00  1384   0.739E-01    0.174E+00
DAV:  48    -0.474858682324E+03   -0.76791E-02   -0.22101E+00  1384   0.751E-01    0.223E+00
DAV:  49    -0.474850148987E+03    0.85333E-02   -0.22213E+00  1376   0.738E-01    0.173E+00
DAV:  50    -0.474857408338E+03   -0.72594E-02   -0.21841E+00  1384   0.747E-01    0.222E+00
DAV:  51    -0.474849137045E+03    0.82713E-02   -0.21962E+00  1376   0.734E-01    0.172E+00
DAV:  52    -0.474856458969E+03   -0.73219E-02   -0.21648E+00  1384   0.743E-01    0.221E+00
DAV:  53    -0.474849159545E+03    0.72994E-02   -0.21965E+00  1376   0.732E-01    0.173E+00
DAV:  54    -0.474856880760E+03   -0.77212E-02   -0.21743E+00  1384   0.744E-01    0.222E+00
DAV:  55    -0.474849793406E+03    0.70874E-02   -0.22099E+00  1376   0.734E-01    0.173E+00
DAV:  56    -0.474857463315E+03   -0.76699E-02   -0.21869E+00  1384   0.746E-01    0.222E+00
DAV:  57    -0.474850114374E+03    0.73489E-02   -0.22166E+00  1376   0.736E-01    0.173E+00
DAV:  58    -0.474857387366E+03   -0.72730E-02   -0.21847E+00  1384   0.746E-01    0.221E+00
DAV:  59    -0.474849188003E+03    0.81994E-02   -0.21953E+00  1376   0.734E-01    0.172E+00
DAV:  60    -0.474855994210E+03   -0.68062E-02   -0.21548E+00  1384   0.741E-01    0.220E+00
DAV:  61    -0.474847529014E+03    0.84652E-02   -0.21581E+00  1376   0.728E-01    0.170E+00
DAV:  62    -0.474854364407E+03   -0.68354E-02   -0.21206E+00  1384   0.735E-01    0.219E+00
DAV:  63    -0.474846174861E+03    0.81895E-02   -0.21250E+00  1376   0.722E-01    0.170E+00
DAV:  64    -0.474854041946E+03   -0.78671E-02   -0.21164E+00  1376   0.731E-01    0.219E+00
DAV:  65    -0.474847040947E+03    0.70010E-02   -0.21421E+00  1376   0.723E-01    0.172E+00
DAV:  66    -0.474855420035E+03   -0.83791E-02   -0.21463E+00  1384   0.735E-01    0.220E+00
DAV:  67    -0.474848372806E+03    0.70472E-02   -0.21710E+00  1376   0.728E-01    0.174E+00
DAV:  68    -0.474856761953E+03   -0.83891E-02   -0.21737E+00  1384   0.740E-01    0.220E+00
DAV:  69    -0.474848237960E+03    0.85240E-02   -0.21684E+00  1376   0.731E-01    0.173E+00
DAV:  70    -0.474855992079E+03   -0.77541E-02   -0.21565E+00  1384   0.738E-01    0.220E+00
DAV:  71    -0.474847504176E+03    0.84879E-02   -0.21529E+00  1376   0.728E-01    0.173E+00
DAV:  72    -0.474855914708E+03   -0.84105E-02   -0.21547E+00  1384   0.736E-01    0.220E+00
DAV:  73    -0.474847972408E+03    0.79423E-02   -0.21654E+00  1376   0.729E-01    0.173E+00
DAV:  74    -0.474856796373E+03   -0.88240E-02   -0.21722E+00  1384   0.739E-01    0.221E+00
DAV:  75    -0.474847715149E+03    0.90812E-02   -0.21613E+00  1376   0.730E-01    0.172E+00
DAV:  76    -0.474856349383E+03   -0.86342E-02   -0.21617E+00  1384   0.738E-01    0.221E+00
DAV:  77    -0.474847363081E+03    0.89863E-02   -0.21557E+00  1376   0.729E-01    0.173E+00
DAV:  78    -0.474857367207E+03   -0.10004E-01   -0.21828E+00  1384   0.739E-01    0.222E+00
DAV:  79    -0.474847744612E+03    0.96226E-02   -0.21676E+00  1376   0.731E-01    0.172E+00
DAV:  80    -0.474856734330E+03   -0.89897E-02   -0.21669E+00  1384   0.739E-01    0.222E+00
DAV:  81    -0.474847264971E+03    0.94694E-02   -0.21610E+00  1384   0.730E-01    0.172E+00
DAV:  82    -0.474856930558E+03   -0.96656E-02   -0.21697E+00  1376   0.738E-01    0.224E+00
DAV:  83    -0.474847751423E+03    0.91791E-02   -0.21769E+00  1376   0.731E-01    0.171E+00
DAV:  84    -0.474857273736E+03   -0.95223E-02   -0.21748E+00  1376   0.740E-01    0.224E+00
DAV:  85    -0.474847187829E+03    0.10086E-01   -0.21683E+00  1384   0.731E-01    0.171E+00
DAV:  86    -0.474857460871E+03   -0.10273E-01   -0.21775E+00  1384   0.739E-01    0.225E+00
DAV:  87    -0.474846942070E+03    0.10519E-01   -0.21669E+00  1384   0.732E-01    0.170E+00
DAV:  88    -0.474857797648E+03   -0.10856E-01   -0.21835E+00  1384   0.740E-01    0.226E+00
DAV:  89    -0.474847088592E+03    0.10709E-01   -0.21746E+00  1384   0.733E-01    0.170E+00
DAV:  90    -0.474857645696E+03   -0.10557E-01   -0.21784E+00  1384   0.740E-01    0.227E+00
DAV:  91    -0.474846880075E+03    0.10766E-01   -0.21745E+00  1384   0.733E-01    0.169E+00
DAV:  92    -0.474857746033E+03   -0.10866E-01   -0.21792E+00  1384   0.741E-01    0.228E+00
DAV:  93    -0.474847550163E+03    0.10196E-01   -0.21949E+00  1384   0.734E-01    0.168E+00
DAV:  94    -0.474857416928E+03   -0.98668E-02   -0.21701E+00  1384   0.742E-01    0.228E+00
DAV:  95    -0.474847247097E+03    0.10170E-01   -0.21920E+00  1384   0.733E-01    0.168E+00
DAV:  96    -0.474857881748E+03   -0.10635E-01   -0.21793E+00  1384   0.743E-01    0.229E+00
DAV:  97    -0.474846768751E+03    0.11113E-01   -0.21833E+00  1384   0.733E-01    0.168E+00
DAV:  98    -0.474858410638E+03   -0.11642E-01   -0.21903E+00  1384   0.743E-01    0.230E+00
DAV:  99    -0.474846815379E+03    0.11595E-01   -0.21870E+00  1384   0.735E-01    0.168E+00
DAV: 100    -0.474858216101E+03   -0.11401E-01   -0.21852E+00  1384   0.743E-01    0.230E+00
DAV: 101    -0.474846865970E+03    0.11350E-01   -0.21918E+00  1384   0.734E-01    0.167E+00
DAV: 102    -0.474858103285E+03   -0.11237E-01   -0.21821E+00  1384   0.743E-01    0.231E+00
DAV: 103    -0.474847238409E+03    0.10865E-01   -0.22035E+00  1384   0.735E-01    0.166E+00
DAV: 104    -0.474857604621E+03   -0.10366E-01   -0.21705E+00  1384   0.744E-01    0.231E+00
DAV: 105    -0.474847156566E+03    0.10448E-01   -0.22039E+00  1384   0.734E-01    0.167E+00
DAV: 106    -0.474858006564E+03   -0.10850E-01   -0.21788E+00  1384   0.744E-01    0.231E+00
DAV: 107    -0.474846702312E+03    0.11304E-01   -0.21940E+00  1384   0.734E-01    0.167E+00
DAV: 108    -0.474858127942E+03   -0.11426E-01   -0.21818E+00  1384   0.744E-01    0.231E+00
DAV: 109    -0.474846843694E+03    0.11284E-01   -0.21984E+00  1384   0.735E-01    0.166E+00
DAV: 110    -0.474857896057E+03   -0.11052E-01   -0.21765E+00  1384   0.744E-01    0.231E+00
DAV: 111    -0.474846870484E+03    0.11026E-01   -0.22003E+00  1384   0.734E-01    0.166E+00
DAV: 112    -0.474857850931E+03   -0.10980E-01   -0.21756E+00  1384   0.744E-01    0.231E+00
DAV: 113    -0.474846740718E+03    0.11110E-01   -0.21974E+00  1384   0.734E-01    0.166E+00
DAV: 114    -0.474857815260E+03   -0.11075E-01   -0.21751E+00  1384   0.744E-01    0.231E+00
DAV: 115    -0.474846827942E+03    0.10987E-01   -0.21996E+00  1384   0.734E-01    0.166E+00
DAV: 116    -0.474857668720E+03   -0.10841E-01   -0.21721E+00  1384   0.744E-01    0.231E+00
DAV: 117    -0.474846821469E+03    0.10847E-01   -0.21996E+00  1384   0.734E-01    0.166E+00
DAV: 118    -0.474857205797E+03   -0.10384E-01   -0.21624E+00  1384   0.743E-01    0.231E+00
DAV: 119    -0.474846788840E+03    0.10417E-01   -0.21985E+00  1384   0.733E-01    0.166E+00
DAV: 120    -0.474857545982E+03   -0.10757E-01   -0.21702E+00  1384   0.744E-01    0.231E+00
DAV: 121    -0.474846587989E+03    0.10958E-01   -0.21926E+00  1384   0.733E-01    0.166E+00
DAV: 122    -0.474857584790E+03   -0.10997E-01   -0.21718E+00  1384   0.743E-01    0.230E+00
DAV: 123    -0.474846238099E+03    0.11347E-01   -0.21827E+00  1384   0.733E-01    0.166E+00
DAV: 124    -0.474857558724E+03   -0.11321E-01   -0.21722E+00  1384   0.742E-01    0.230E+00
DAV: 125    -0.474846510451E+03    0.11048E-01   -0.21881E+00  1384   0.733E-01    0.166E+00
DAV: 126    -0.474857094843E+03   -0.10584E-01   -0.21625E+00  1384   0.742E-01    0.230E+00
DAV: 127    -0.474846826433E+03    0.10268E-01   -0.21955E+00  1384   0.733E-01    0.165E+00
DAV: 128    -0.474855973866E+03   -0.91474E-02   -0.21384E+00  1384   0.741E-01    0.230E+00
DAV: 129    -0.474846895486E+03    0.90784E-02   -0.21968E+00  1384   0.731E-01    0.167E+00
DAV: 130    -0.474857191142E+03   -0.10296E-01   -0.21653E+00  1384   0.743E-01    0.229E+00
DAV: 131    -0.474846108465E+03    0.11083E-01   -0.21753E+00  1384   0.732E-01    0.167E+00
DAV: 132    -0.474857167406E+03   -0.11059E-01   -0.21663E+00  1384   0.741E-01    0.229E+00
DAV: 133    -0.474846201485E+03    0.10966E-01   -0.21760E+00  1384   0.732E-01    0.167E+00
DAV: 134    -0.474856897002E+03   -0.10696E-01   -0.21611E+00  1384   0.741E-01    0.229E+00
DAV: 135    -0.474846355071E+03    0.10542E-01   -0.21786E+00  1384   0.732E-01    0.167E+00
DAV: 136    -0.474856782011E+03   -0.10427E-01   -0.21591E+00  1384   0.741E-01    0.228E+00
DAV: 137    -0.474846406767E+03    0.10375E-01   -0.21788E+00  1384   0.732E-01    0.167E+00
DAV: 138    -0.474856388729E+03   -0.99820E-02   -0.21511E+00  1384   0.740E-01    0.228E+00
DAV: 139    -0.474846072035E+03    0.10317E-01   -0.21700E+00  1384   0.731E-01    0.168E+00
DAV: 140    -0.474856983921E+03   -0.10912E-01   -0.21649E+00  1384   0.740E-01    0.227E+00
DAV: 141    -0.474845821025E+03    0.11163E-01   -0.21621E+00  1384   0.731E-01    0.168E+00
DAV: 142    -0.474857034128E+03   -0.11213E-01   -0.21670E+00  1384   0.740E-01    0.227E+00
DAV: 143    -0.474846111931E+03    0.10922E-01   -0.21682E+00  1384   0.732E-01    0.167E+00
DAV: 144    -0.474856511754E+03   -0.10400E-01   -0.21559E+00  1384   0.740E-01    0.227E+00
DAV: 145    -0.474846427765E+03    0.10084E-01   -0.21756E+00  1384   0.732E-01    0.167E+00
DAV: 146    -0.474856291596E+03   -0.98638E-02   -0.21513E+00  1384   0.740E-01    0.227E+00
DAV: 147    -0.474846390255E+03    0.99013E-02   -0.21742E+00  1384   0.731E-01    0.168E+00
DAV: 148    -0.474856327133E+03   -0.99369E-02   -0.21526E+00  1384   0.740E-01    0.227E+00
DAV: 149    -0.474846071911E+03    0.10255E-01   -0.21658E+00  1384   0.731E-01    0.168E+00
DAV: 150    -0.474856729824E+03   -0.10658E-01   -0.21622E+00  1384   0.740E-01    0.226E+00
DAV: 151    -0.474845955313E+03    0.10775E-01   -0.21619E+00  1384   0.731E-01    0.168E+00
DAV: 152    -0.474856710697E+03   -0.10755E-01   -0.21624E+00  1384   0.740E-01    0.226E+00
DAV: 153    -0.474846116934E+03    0.10594E-01   -0.21653E+00  1384   0.732E-01    0.168E+00
DAV: 154    -0.474856491166E+03   -0.10374E-01   -0.21580E+00  1384   0.740E-01    0.226E+00
DAV: 155    -0.474846242549E+03    0.10249E-01   -0.21681E+00  1384   0.732E-01    0.168E+00
DAV: 156    -0.474856428380E+03   -0.10186E-01   -0.21569E+00  1384   0.740E-01    0.226E+00
DAV: 157    -0.474846241135E+03    0.10187E-01   -0.21678E+00  1384   0.731E-01    0.169E+00
DAV: 158    -0.474856477249E+03   -0.10236E-01   -0.21584E+00  1384   0.740E-01    0.226E+00
DAV: 159    -0.474846240341E+03    0.10237E-01   -0.21674E+00  1384   0.732E-01    0.169E+00
DAV: 160    -0.474856463291E+03   -0.10223E-01   -0.21585E+00  1384   0.740E-01    0.226E+00
DAV: 161    -0.474846240992E+03    0.10222E-01   -0.21672E+00  1384   0.732E-01    0.169E+00
DAV: 162    -0.474856492184E+03   -0.10251E-01   -0.21595E+00  1384   0.740E-01    0.226E+00
DAV: 163    -0.474846215856E+03    0.10276E-01   -0.21664E+00  1384   0.732E-01    0.169E+00
DAV: 164    -0.474856548758E+03   -0.10333E-01   -0.21612E+00  1384   0.740E-01    0.226E+00
DAV: 165    -0.474846196412E+03    0.10352E-01   -0.21658E+00  1384   0.732E-01    0.169E+00
DAV: 166    -0.474856567394E+03   -0.10371E-01   -0.21620E+00  1384   0.740E-01    0.226E+00
DAV: 167    -0.474846217519E+03    0.10350E-01   -0.21661E+00  1384   0.732E-01    0.169E+00
DAV: 168    -0.474856694638E+03   -0.10477E-01   -0.21652E+00  1376   0.741E-01    0.226E+00
DAV: 169    -0.474846399250E+03    0.10295E-01   -0.21704E+00  1384   0.733E-01    0.169E+00
DAV: 170    -0.474856348180E+03   -0.99489E-02   -0.21578E+00  1376   0.740E-01    0.226E+00
DAV: 171    -0.474846608910E+03    0.97393E-02   -0.21758E+00  1384   0.733E-01    0.169E+00
DAV: 172    -0.474856168015E+03   -0.95591E-02   -0.21540E+00  1376   0.741E-01    0.226E+00
DAV: 173    -0.474846781997E+03    0.93860E-02   -0.21807E+00  1376   0.733E-01    0.168E+00
DAV: 174    -0.474855304585E+03   -0.85226E-02   -0.21353E+00  1376   0.740E-01    0.226E+00
DAV: 175    -0.474847312230E+03    0.79924E-02   -0.21943E+00  1376   0.732E-01    0.169E+00
DAV: 176    -0.474855770138E+03   -0.84579E-02   -0.21452E+00  1376   0.742E-01    0.225E+00
DAV: 177    -0.474845671303E+03    0.10099E-01   -0.21541E+00  1384   0.730E-01    0.171E+00
DAV: 178    -0.474857673557E+03   -0.12002E-01   -0.21890E+00  1376   0.741E-01    0.226E+00
DAV: 179    -0.474846047096E+03    0.11626E-01   -0.21611E+00  1376   0.734E-01    0.169E+00
DAV: 180    -0.474856133911E+03   -0.10087E-01   -0.21555E+00  1376   0.739E-01    0.226E+00
DAV: 181    -0.474846321261E+03    0.98127E-02   -0.21691E+00  1376   0.732E-01    0.170E+00
DAV: 182    -0.474856811783E+03   -0.10491E-01   -0.21703E+00  1376   0.741E-01    0.226E+00
DAV: 183    -0.474846326909E+03    0.10485E-01   -0.21688E+00  1376   0.733E-01    0.170E+00
DAV: 184    -0.474856469168E+03   -0.10142E-01   -0.21632E+00  1376   0.741E-01    0.226E+00
DAV: 185    -0.474846414827E+03    0.10054E-01   -0.21713E+00  1376   0.733E-01    0.170E+00
DAV: 186    -0.474856612103E+03   -0.10197E-01   -0.21666E+00  1376   0.742E-01    0.226E+00
DAV: 187    -0.474846381652E+03    0.10230E-01   -0.21705E+00  1376   0.733E-01    0.170E+00
DAV: 188    -0.474856533161E+03   -0.10152E-01   -0.21654E+00  1376   0.741E-01    0.226E+00
DAV: 189    -0.474846463502E+03    0.10070E-01   -0.21726E+00  1376   0.733E-01    0.170E+00
DAV: 190    -0.474856536878E+03   -0.10073E-01   -0.21658E+00  1376   0.742E-01    0.226E+00
DAV: 191    -0.474846439644E+03    0.10097E-01   -0.21721E+00  1376   0.733E-01    0.170E+00
DAV: 192    -0.474856518518E+03   -0.10079E-01   -0.21658E+00  1376   0.742E-01    0.226E+00
DAV: 193    -0.474846610976E+03    0.99075E-02   -0.21763E+00  1376   0.734E-01    0.170E+00
DAV: 194    -0.474856498114E+03   -0.98871E-02   -0.21657E+00  1376   0.742E-01    0.225E+00
DAV: 195    -0.474846507991E+03    0.99901E-02   -0.21740E+00  1376   0.734E-01    0.170E+00
DAV: 196    -0.474856522861E+03   -0.10015E-01   -0.21668E+00  1376   0.742E-01    0.225E+00
DAV: 197    -0.474846569856E+03    0.99530E-02   -0.21754E+00  1376   0.734E-01    0.170E+00
DAV: 198    -0.474856495619E+03   -0.99258E-02   -0.21666E+00  1376   0.742E-01    0.225E+00
DAV: 199    -0.474846617395E+03    0.98782E-02   -0.21766E+00  1376   0.734E-01    0.171E+00
DAV: 200    -0.474856452152E+03   -0.98348E-02   -0.21660E+00  1376   0.742E-01
   2 F= -.47485645E+03 E0= -.47479305E+03  d E =-.122401E-01
       N       E                     dE             d eps       ncg     rms          rms(c)
DAV:   1    -0.474845512673E+03    0.11047E-02   -0.22631E+00  1472   0.140E+00    0.195E+00
DAV:   2    -0.475188871563E+03   -0.34336E+00   -0.31216E+00  1764   0.166E+00    0.823E+00
DAV:   3    -0.474737296022E+03    0.45158E+00   -0.88735E-01  1764   0.228E+00    0.455E+00
DAV:   4    -0.474775675773E+03   -0.38380E-01   -0.47254E-01  1796   0.828E-01    0.443E+00
DAV:   5    -0.474736909974E+03    0.38766E-01   -0.17099E-01  1628   0.337E-01    0.223E+00
DAV:   6    -0.474757421455E+03   -0.20511E-01   -0.37251E-01  1724   0.270E-01    0.279E+00
DAV:   7    -0.474760725064E+03   -0.33036E-02   -0.60136E-01  1704   0.392E-01    0.127E+00
DAV:   8    -0.474815366114E+03   -0.54641E-01   -0.13981E+00  1588   0.521E-01    0.242E+00
DAV:   9    -0.474872748739E+03   -0.57383E-01   -0.25564E+00  1528   0.704E-01    0.333E+00
DAV:  10    -0.474937185577E+03   -0.64437E-01   -0.39120E+00  1460   0.917E-01    0.420E+00
DAV:  11    -0.474961760446E+03   -0.24575E-01   -0.48127E+00  1456   0.105E+00    0.394E+00
DAV:  12    -0.474959194761E+03    0.25657E-02   -0.46272E+00  1424   0.109E+00    0.339E+00
DAV:  13    -0.474917655437E+03    0.41539E-01   -0.38915E+00  1416   0.105E+00    0.208E+00
DAV:  14    -0.474876126937E+03    0.41529E-01   -0.26150E+00  1452   0.931E-01    0.209E+00
DAV:  15    -0.474826975298E+03    0.49152E-01   -0.14122E+00  1488   0.711E-01    0.262E+00
DAV:  16    -0.474797287268E+03    0.29688E-01   -0.10378E+00  1452   0.567E-01    0.238E+00
DAV:  17    -0.474791295200E+03    0.59921E-02   -0.83941E-01  1528   0.491E-01    0.270E+00
DAV:  18    -0.474783562896E+03    0.77323E-02   -0.92794E-01  1448   0.479E-01    0.189E+00
DAV:  19    -0.474799344110E+03   -0.15781E-01   -0.10474E+00  1420   0.501E-01    0.235E+00
DAV:  20    -0.474801143989E+03   -0.17999E-02   -0.13562E+00  1448   0.557E-01    0.141E+00
DAV:  21    -0.474836619867E+03   -0.35476E-01   -0.17404E+00  1432   0.627E-01    0.232E+00
DAV:  22    -0.474838513876E+03   -0.18940E-02   -0.21326E+00  1416   0.703E-01    0.184E+00
DAV:  23    -0.474874680641E+03   -0.36167E-01   -0.25154E+00  1412   0.783E-01    0.253E+00
DAV:  24    -0.474860435061E+03    0.14246E-01   -0.26192E+00  1416   0.817E-01    0.199E+00
DAV:  25    -0.474881827972E+03   -0.21393E-01   -0.26795E+00  1404   0.833E-01    0.247E+00
DAV:  26    -0.474853657489E+03    0.28170E-01   -0.24630E+00  1400   0.816E-01    0.167E+00
DAV:  27    -0.474865606205E+03   -0.11949E-01   -0.22989E+00  1408   0.784E-01    0.237E+00
DAV:  28    -0.474836426170E+03    0.29180E-01   -0.20724E+00  1400   0.749E-01    0.147E+00
DAV:  29    -0.474849824396E+03   -0.13398E-01   -0.19609E+00  1400   0.714E-01    0.236E+00
DAV:  30    -0.474827868896E+03    0.21955E-01   -0.19045E+00  1400   0.703E-01    0.144E+00
DAV:  31    -0.474848519161E+03   -0.20650E-01   -0.19447E+00  1400   0.699E-01    0.237E+00
DAV:  32    -0.474832194803E+03    0.16324E-01   -0.20107E+00  1400   0.710E-01    0.153E+00
DAV:  33    -0.474857271011E+03   -0.25076E-01   -0.21287E+00  1400   0.729E-01    0.241E+00
DAV:  34    -0.474840387805E+03    0.16883E-01   -0.21923E+00  1400   0.743E-01    0.163E+00
DAV:  35    -0.474864420084E+03   -0.24032E-01   -0.22797E+00  1400   0.761E-01    0.243E+00
DAV:  36    -0.474843719209E+03    0.20701E-01   -0.22655E+00  1400   0.763E-01    0.163E+00
DAV:  37    -0.474864567781E+03   -0.20849E-01   -0.22800E+00  1400   0.767E-01    0.242E+00
DAV:  38    -0.474841316864E+03    0.23251E-01   -0.22110E+00  1400   0.759E-01    0.157E+00
DAV:  39    -0.474860535508E+03   -0.19219E-01   -0.21909E+00  1400   0.752E-01    0.241E+00
DAV:  40    -0.474837604555E+03    0.22931E-01   -0.21309E+00  1400   0.744E-01    0.152E+00
DAV:  41    -0.474857603823E+03   -0.19999E-01   -0.21285E+00  1400   0.739E-01    0.241E+00
DAV:  42    -0.474836291787E+03    0.21312E-01   -0.21071E+00  1400   0.736E-01    0.152E+00
DAV:  43    -0.474857827063E+03   -0.21535E-01   -0.21341E+00  1400   0.737E-01    0.242E+00
DAV:  44    -0.474837392667E+03    0.20434E-01   -0.21358E+00  1400   0.739E-01    0.154E+00
DAV:  45    -0.474859624978E+03   -0.22232E-01   -0.21723E+00  1400   0.744E-01    0.243E+00
DAV:  46    -0.474838773409E+03    0.20852E-01   -0.21693E+00  1400   0.745E-01    0.155E+00
DAV:  47    -0.474860669627E+03   -0.21896E-01   -0.21936E+00  1400   0.749E-01    0.244E+00
DAV:  48    -0.474839070316E+03    0.21599E-01   -0.21769E+00  1400   0.747E-01    0.155E+00
DAV:  49    -0.474860156076E+03   -0.21086E-01   -0.21813E+00  1400   0.749E-01    0.244E+00
DAV:  50    -0.474838216808E+03    0.21939E-01   -0.21613E+00  1400   0.745E-01    0.153E+00
DAV:  51    -0.474859349560E+03   -0.21133E-01   -0.21633E+00  1400   0.745E-01    0.244E+00
DAV:  52    -0.474837433860E+03    0.21916E-01   -0.21487E+00  1400   0.742E-01    0.153E+00
DAV:  53    -0.474859737971E+03   -0.22304E-01   -0.21715E+00  1400   0.745E-01    0.245E+00
DAV:  54    -0.474837497273E+03    0.22241E-01   -0.21532E+00  1400   0.743E-01    0.153E+00
DAV:  55    -0.474859722179E+03   -0.22225E-01   -0.21704E+00  1400   0.746E-01    0.245E+00
DAV:  56    -0.474837142559E+03    0.22580E-01   -0.21477E+00  1400   0.743E-01    0.152E+00
DAV:  57    -0.474859235895E+03   -0.22093E-01   -0.21588E+00  1400   0.743E-01    0.246E+00
DAV:  58    -0.474837126541E+03    0.22109E-01   -0.21517E+00  1400   0.741E-01    0.151E+00
DAV:  59    -0.474859095068E+03   -0.21969E-01   -0.21548E+00  1400   0.743E-01    0.247E+00
DAV:  60    -0.474836603268E+03    0.22492E-01   -0.21444E+00  1400   0.740E-01    0.150E+00
DAV:  61    -0.474858693257E+03   -0.22090E-01   -0.21455E+00  1400   0.742E-01    0.247E+00
DAV:  62    -0.474836145772E+03    0.22547E-01   -0.21403E+00  1400   0.739E-01    0.150E+00
DAV:  63    -0.474858653230E+03   -0.22507E-01   -0.21444E+00  1400   0.741E-01    0.249E+00
DAV:  64    -0.474836524292E+03    0.22129E-01   -0.21574E+00  1400   0.741E-01    0.152E+00
DAV:  65    -0.474860164086E+03   -0.23640E-01   -0.21762E+00  1400   0.747E-01    0.251E+00
DAV:  66    -0.474837998688E+03    0.22165E-01   -0.21994E+00  1400   0.747E-01    0.155E+00
DAV:  67    -0.474862495121E+03   -0.24496E-01   -0.22248E+00  1400   0.756E-01    0.253E+00
DAV:  68    -0.474839042574E+03    0.23453E-01   -0.22321E+00  1400   0.754E-01    0.154E+00
DAV:  69    -0.474862900290E+03   -0.23858E-01   -0.22314E+00  1400   0.759E-01    0.254E+00
DAV:  70    -0.474837991262E+03    0.24909E-01   -0.22193E+00  1400   0.754E-01    0.152E+00
DAV:  71    -0.474861780342E+03   -0.23789E-01   -0.22058E+00  1400   0.756E-01    0.255E+00
DAV:  72    -0.474836255837E+03    0.25525E-01   -0.21940E+00  1400   0.750E-01    0.148E+00
DAV:  73    -0.474860383909E+03   -0.24128E-01   -0.21746E+00  1400   0.750E-01    0.257E+00
DAV:  74    -0.474834135731E+03    0.26248E-01   -0.21627E+00  1400   0.744E-01    0.146E+00
DAV:  75    -0.474859815666E+03   -0.25680E-01   -0.21625E+00  1400   0.747E-01    0.259E+00
DAV:  76    -0.474833693744E+03    0.26122E-01   -0.21721E+00  1400   0.744E-01    0.147E+00
DAV:  77    -0.474861048722E+03   -0.27355E-01   -0.21879E+00  1400   0.750E-01    0.262E+00
DAV:  78    -0.474833274112E+03    0.27775E-01   -0.21842E+00  1400   0.748E-01    0.146E+00
DAV:  79    -0.474861458324E+03   -0.28184E-01   -0.21961E+00  1400   0.753E-01    0.265E+00
DAV:  80    -0.474832653939E+03    0.28804E-01   -0.21959E+00  1400   0.750E-01    0.146E+00
DAV:  81    -0.474862249165E+03   -0.29595E-01   -0.22132E+00  1400   0.757E-01    0.269E+00
DAV:  82    -0.474832419059E+03    0.29830E-01   -0.22202E+00  1400   0.754E-01    0.147E+00
DAV:  83    -0.474863665780E+03   -0.31247E-01   -0.22447E+00  1400   0.763E-01    0.273E+00
DAV:  84    -0.474832374418E+03    0.31291E-01   -0.22518E+00  1400   0.760E-01    0.149E+00
DAV:  85    -0.474865106606E+03   -0.32732E-01   -0.22775E+00  1400   0.770E-01    0.277E+00
DAV:  86    -0.474832273063E+03    0.32834E-01   -0.22863E+00  1400   0.767E-01    0.151E+00
DAV:  87    -0.474866832099E+03   -0.34559E-01   -0.23177E+00  1400   0.778E-01    0.282E+00
DAV:  88    -0.474832625532E+03    0.34207E-01   -0.23305E+00  1400   0.774E-01    0.155E+00
DAV:  89    -0.474869067066E+03   -0.36442E-01   -0.23693E+00  1400   0.787E-01    0.287E+00
DAV:  90    -0.474833157067E+03    0.35910E-01   -0.23823E+00  1400   0.783E-01    0.160E+00
DAV:  91    -0.474871365771E+03   -0.38209E-01   -0.24242E+00  1400   0.795E-01    0.293E+00
DAV:  92    -0.474833803308E+03    0.37562E-01   -0.24337E+00  1400   0.792E-01    0.165E+00
DAV:  93    -0.474873899831E+03   -0.40097E-01   -0.24850E+00  1400   0.803E-01    0.298E+00
DAV:  94    -0.474834966713E+03    0.38933E-01   -0.24961E+00  1400   0.803E-01    0.172E+00
DAV:  95    -0.474876538156E+03   -0.41571E-01   -0.25494E+00  1400   0.811E-01    0.303E+00
DAV:  96    -0.474835890672E+03    0.40647E-01   -0.25546E+00  1392   0.814E-01    0.178E+00
DAV:  97    -0.474879461286E+03   -0.43571E-01   -0.26177E+00  1392   0.822E-01    0.306E+00
DAV:  98    -0.474836725864E+03    0.42735E-01   -0.25717E+00  1392   0.819E-01    0.172E+00
DAV:  99    -0.474877325065E+03   -0.40599E-01   -0.25689E+00  1392   0.820E-01    0.302E+00
DAV: 100    -0.474832932618E+03    0.44392E-01   -0.24780E+00  1392   0.807E-01    0.157E+00
DAV: 101    -0.474871530939E+03   -0.38598E-01   -0.24359E+00  1392   0.805E-01    0.298E+00
DAV: 102    -0.474827585937E+03    0.43945E-01   -0.23334E+00  1400   0.783E-01    0.139E+00
DAV: 103    -0.474863984202E+03   -0.36398E-01   -0.22610E+00  1392   0.781E-01    0.292E+00
DAV: 104    -0.474820708687E+03    0.43276E-01   -0.21418E+00  1400   0.752E-01    0.119E+00
DAV: 105    -0.474854055053E+03   -0.33346E-01   -0.20417E+00  1400   0.739E-01    0.288E+00
DAV: 106    -0.474813015645E+03    0.41039E-01   -0.19478E+00  1400   0.715E-01    0.108E+00
DAV: 107    -0.474845353556E+03   -0.32338E-01   -0.18604E+00  1400   0.701E-01    0.287E+00
DAV: 108    -0.474807283568E+03    0.38070E-01   -0.18084E+00  1400   0.686E-01    0.104E+00
DAV: 109    -0.474839461316E+03   -0.32178E-01   -0.17465E+00  1400   0.675E-01    0.287E+00
DAV: 110    -0.474804009926E+03    0.35451E-01   -0.17400E+00  1400   0.669E-01    0.102E+00
DAV: 111    -0.474837548044E+03   -0.33538E-01   -0.17139E+00  1408   0.665E-01    0.287E+00
DAV: 112    -0.474803497758E+03    0.34050E-01   -0.17425E+00  1408   0.666E-01    0.102E+00
DAV: 113    -0.474838879215E+03   -0.35381E-01   -0.17454E+00  1408   0.669E-01    0.288E+00
DAV: 114    -0.474805260787E+03    0.33618E-01   -0.17923E+00  1408   0.674E-01    0.104E+00
DAV: 115    -0.474842156102E+03   -0.36895E-01   -0.18113E+00  1408   0.682E-01    0.288E+00
DAV: 116    -0.474808006987E+03    0.34149E-01   -0.18555E+00  1408   0.685E-01    0.108E+00
DAV: 117    -0.474845162192E+03   -0.37155E-01   -0.18705E+00  1408   0.694E-01    0.288E+00
DAV: 118    -0.474810113436E+03    0.35049E-01   -0.19048E+00  1408   0.695E-01    0.110E+00
DAV: 119    -0.474847383350E+03   -0.37270E-01   -0.19142E+00  1408   0.703E-01    0.288E+00
DAV: 120    -0.474811639854E+03    0.35743E-01   -0.19361E+00  1408   0.702E-01    0.112E+00
DAV: 121    -0.474848517100E+03   -0.36877E-01   -0.19363E+00  1408   0.709E-01    0.288E+00
DAV: 122    -0.474812335261E+03    0.36182E-01   -0.19505E+00  1408   0.706E-01    0.113E+00
DAV: 123    -0.474849064573E+03   -0.36729E-01   -0.19476E+00  1408   0.711E-01    0.288E+00
DAV: 124    -0.474812837182E+03    0.36227E-01   -0.19611E+00  1408   0.708E-01    0.114E+00
DAV: 125    -0.474849600488E+03   -0.36763E-01   -0.19587E+00  1408   0.713E-01    0.288E+00
DAV: 126    -0.474813348076E+03    0.36252E-01   -0.19714E+00  1408   0.709E-01    0.114E+00
DAV: 127    -0.474850080802E+03   -0.36733E-01   -0.19685E+00  1408   0.716E-01    0.288E+00
DAV: 128    -0.474813784963E+03    0.36296E-01   -0.19805E+00  1408   0.711E-01    0.115E+00
DAV: 129    -0.474850557178E+03   -0.36772E-01   -0.19782E+00  1408   0.717E-01    0.287E+00
DAV: 130    -0.474814230626E+03    0.36327E-01   -0.19888E+00  1408   0.713E-01    0.116E+00
DAV: 131    -0.474850892742E+03   -0.36662E-01   -0.19849E+00  1408   0.719E-01    0.287E+00
DAV: 132    -0.474814528942E+03    0.36364E-01   -0.19941E+00  1408   0.714E-01    0.116E+00
DAV: 133    -0.474851053439E+03   -0.36524E-01   -0.19879E+00  1408   0.720E-01    0.287E+00
DAV: 134    -0.474814553569E+03    0.36500E-01   -0.19937E+00  1408   0.714E-01    0.116E+00
DAV: 135    -0.474850931324E+03   -0.36378E-01   -0.19854E+00  1408   0.719E-01    0.287E+00
DAV: 136    -0.474814456409E+03    0.36475E-01   -0.19918E+00  1408   0.714E-01    0.116E+00
DAV: 137    -0.474850936064E+03   -0.36480E-01   -0.19854E+00  1408   0.719E-01    0.287E+00
DAV: 138    -0.474814449734E+03    0.36486E-01   -0.19908E+00  1408   0.714E-01    0.116E+00
DAV: 139    -0.474850785368E+03   -0.36336E-01   -0.19821E+00  1408   0.719E-01    0.287E+00
DAV: 140    -0.474814312198E+03    0.36473E-01   -0.19875E+00  1408   0.713E-01    0.116E+00
DAV: 141    -0.474850658403E+03   -0.36346E-01   -0.19796E+00  1408   0.718E-01    0.287E+00
DAV: 142    -0.474814277954E+03    0.36380E-01   -0.19861E+00  1408   0.713E-01    0.115E+00
DAV: 143    -0.474850581182E+03   -0.36303E-01   -0.19774E+00  1408   0.718E-01    0.287E+00
DAV: 144    -0.474814114388E+03    0.36467E-01   -0.19820E+00  1408   0.712E-01    0.115E+00
DAV: 145    -0.474850344168E+03   -0.36230E-01   -0.19727E+00  1408   0.717E-01    0.287E+00
DAV: 146    -0.474813973454E+03    0.36371E-01   -0.19794E+00  1408   0.712E-01    0.115E+00
DAV: 147    -0.474850343791E+03   -0.36370E-01   -0.19730E+00  1408   0.717E-01    0.287E+00
DAV: 148    -0.474814131924E+03    0.36212E-01   -0.19826E+00  1408   0.712E-01    0.115E+00
DAV: 149    -0.474850369325E+03   -0.36237E-01   -0.19733E+00  1408   0.717E-01    0.287E+00
DAV: 150    -0.474814111974E+03    0.36257E-01   -0.19819E+00  1408   0.712E-01    0.115E+00
DAV: 151    -0.474850324437E+03   -0.36212E-01   -0.19724E+00  1408   0.717E-01    0.287E+00
DAV: 152    -0.474814104540E+03    0.36220E-01   -0.19816E+00  1408   0.712E-01    0.115E+00
DAV: 153    -0.474850251236E+03   -0.36147E-01   -0.19712E+00  1408   0.717E-01    0.287E+00
DAV: 154    -0.474814272397E+03    0.35979E-01   -0.19852E+00  1408   0.712E-01    0.115E+00
DAV: 155    -0.474850274485E+03   -0.36002E-01   -0.19715E+00  1408   0.717E-01    0.287E+00
DAV: 156    -0.474814266559E+03    0.36008E-01   -0.19847E+00  1408   0.712E-01    0.115E+00
DAV: 157    -0.474850205649E+03   -0.35939E-01   -0.19711E+00  1408   0.717E-01    0.287E+00
DAV: 158    -0.474814848839E+03    0.35357E-01   -0.19990E+00  1408   0.713E-01    0.112E+00
DAV: 159    -0.474848098512E+03   -0.33250E-01   -0.19291E+00  1408   0.715E-01    0.286E+00
DAV: 160    -0.474814467272E+03    0.33631E-01   -0.19917E+00  1408   0.708E-01    0.117E+00
DAV: 161    -0.474851271892E+03   -0.36805E-01   -0.19907E+00  1408   0.720E-01    0.287E+00
DAV: 162    -0.474814438172E+03    0.36834E-01   -0.19861E+00  1408   0.714E-01    0.115E+00
DAV: 163    -0.474850015846E+03   -0.35578E-01   -0.19662E+00  1408   0.717E-01    0.287E+00
DAV: 164    -0.474814392775E+03    0.35623E-01   -0.19859E+00  1408   0.711E-01    0.116E+00
DAV: 165    -0.474850690168E+03   -0.36297E-01   -0.19794E+00  1408   0.718E-01    0.287E+00
DAV: 166    -0.474814451711E+03    0.36238E-01   -0.19860E+00  1408   0.713E-01    0.115E+00
DAV: 167    -0.474850361781E+03   -0.35910E-01   -0.19730E+00  1408   0.717E-01    0.286E+00
DAV: 168    -0.474814501091E+03    0.35861E-01   -0.19871E+00  1408   0.712E-01    0.116E+00
DAV: 169    -0.474850584876E+03   -0.36084E-01   -0.19772E+00  1408   0.718E-01    0.286E+00
DAV: 170    -0.474814497151E+03    0.36088E-01   -0.19863E+00  1408   0.713E-01    0.115E+00
DAV: 171    -0.474850508301E+03   -0.36011E-01   -0.19757E+00  1408   0.718E-01    0.286E+00
DAV: 172    -0.474814549167E+03    0.35959E-01   -0.19872E+00  1408   0.712E-01    0.116E+00
DAV: 173    -0.474850578250E+03   -0.36029E-01   -0.19770E+00  1408   0.718E-01    0.286E+00
DAV: 174    -0.474814563567E+03    0.36015E-01   -0.19870E+00  1408   0.713E-01    0.116E+00
DAV: 175    -0.474850554353E+03   -0.35991E-01   -0.19765E+00  1408   0.718E-01    0.286E+00
DAV: 176    -0.474814599648E+03    0.35955E-01   -0.19875E+00  1408   0.713E-01    0.116E+00
DAV: 177    -0.474850556088E+03   -0.35956E-01   -0.19765E+00  1408   0.718E-01    0.286E+00
DAV: 178    -0.474814629083E+03    0.35927E-01   -0.19878E+00  1408   0.713E-01    0.116E+00
DAV: 179    -0.474850599263E+03   -0.35970E-01   -0.19773E+00  1408   0.718E-01    0.286E+00
DAV: 180    -0.474814640503E+03    0.35959E-01   -0.19877E+00  1408   0.713E-01    0.116E+00
DAV: 181    -0.474850591599E+03   -0.35951E-01   -0.19772E+00  1408   0.718E-01    0.286E+00
DAV: 182    -0.474814671610E+03    0.35920E-01   -0.19881E+00  1408   0.713E-01    0.116E+00
DAV: 183    -0.474850650186E+03   -0.35979E-01   -0.19783E+00  1408   0.718E-01    0.286E+00
DAV: 184    -0.474814684325E+03    0.35966E-01   -0.19880E+00  1408   0.713E-01    0.116E+00
DAV: 185    -0.474850629554E+03   -0.35945E-01   -0.19779E+00  1408   0.718E-01    0.286E+00
DAV: 186    -0.474814716175E+03    0.35913E-01   -0.19884E+00  1408   0.713E-01    0.116E+00
DAV: 187    -0.474850622435E+03   -0.35906E-01   -0.19777E+00  1408   0.718E-01    0.286E+00
DAV: 188    -0.474814747973E+03    0.35874E-01   -0.19889E+00  1408   0.713E-01    0.116E+00
DAV: 189    -0.474850681514E+03   -0.35934E-01   -0.19788E+00  1408   0.718E-01    0.286E+00
DAV: 190    -0.474814743769E+03    0.35938E-01   -0.19884E+00  1408   0.713E-01    0.116E+00
DAV: 191    -0.474850680366E+03   -0.35937E-01   -0.19788E+00  1408   0.718E-01    0.286E+00
DAV: 192    -0.474814776344E+03    0.35904E-01   -0.19889E+00  1408   0.713E-01    0.116E+00
DAV: 193    -0.474850730135E+03   -0.35954E-01   -0.19797E+00  1408   0.718E-01    0.286E+00
DAV: 194    -0.474814777119E+03    0.35953E-01   -0.19886E+00  1408   0.713E-01    0.116E+00
DAV: 195    -0.474850718700E+03   -0.35942E-01   -0.19795E+00  1408   0.718E-01    0.286E+00
DAV: 196    -0.474814807240E+03    0.35911E-01   -0.19891E+00  1408   0.713E-01    0.116E+00
DAV: 197    -0.474850691593E+03   -0.35884E-01   -0.19789E+00  1408   0.718E-01    0.286E+00
DAV: 198    -0.474814835476E+03    0.35856E-01   -0.19896E+00  1408   0.713E-01    0.116E+00
DAV: 199    -0.474850716175E+03   -0.35881E-01   -0.19794E+00  1408   0.718E-01    0.286E+00
DAV: 200    -0.474814831662E+03    0.35885E-01   -0.19893E+00  1408   0.713E-01
   3 F= -.47481483E+03 E0= -.47474975E+03  d E =0.293803E-01
       N       E                     dE             d eps       ncg     rms          rms(c)
DAV:   1    -0.474841381932E+03    0.93342E-02   -0.24321E+00  1424   0.230E+00    0.300E+00
DAV:   2    -0.474889773066E+03   -0.48391E-01   -0.25390E+00  1668   0.124E+00    0.389E+00
DAV:   3    -0.476148761114E+03   -0.12590E+01   -0.14791E+01  1764   0.299E+00    0.275E+01
DAV:   4    -0.474665449084E+03    0.14833E+01   -0.84490E+00  1828   0.247E+00    0.359E+00
DAV:   5    -0.474733134409E+03   -0.67685E-01   -0.46492E-02  1572   0.393E-01    0.173E+00
DAV:   6    -0.474730021379E+03    0.31130E-02   -0.53556E-02  1616   0.220E-01    0.700E-01
DAV:   7    -0.474745277449E+03   -0.15256E-01   -0.28375E-01  1724   0.212E-01    0.141E+00
DAV:   8    -0.474794677607E+03   -0.49400E-01   -0.10265E+00  1648   0.399E-01    0.271E+00
DAV:   9    -0.474884624639E+03   -0.89947E-01   -0.28416E+00  1492   0.673E-01    0.370E+00
DAV:  10    -0.474962081284E+03   -0.77457E-01   -0.44501E+00  1480   0.954E-01    0.505E+00
DAV:  11    -0.475005740888E+03   -0.43660E-01   -0.55759E+00  1460   0.110E+00    0.512E+00
DAV:  12    -0.475035184932E+03   -0.29444E-01   -0.61459E+00  1432   0.120E+00    0.582E+00
DAV:  13    -0.475040961975E+03   -0.57770E-02   -0.65029E+00  1432   0.121E+00    0.541E+00
DAV:  14    -0.475045905234E+03   -0.49433E-02   -0.65124E+00  1436   0.126E+00    0.574E+00
DAV:  15    -0.475032765777E+03    0.13139E-01   -0.64351E+00  1416   0.123E+00    0.499E+00
DAV:  16    -0.475017288477E+03    0.15477E-01   -0.60227E+00  1432   0.124E+00    0.496E+00
DAV:  17    -0.474990287837E+03    0.27001E-01   -0.55710E+00  1416   0.118E+00    0.384E+00
DAV:  18    -0.474953663084E+03    0.36625E-01   -0.46746E+00  1440   0.115E+00    0.332E+00
DAV:  19    -0.474917111592E+03    0.36551E-01   -0.38108E+00  1424   0.103E+00    0.234E+00
DAV:  20    -0.474877148576E+03    0.39963E-01   -0.28166E+00  1444   0.929E-01    0.193E+00
DAV:  21    -0.474849860907E+03    0.27288E-01   -0.20980E+00  1480   0.786E-01    0.211E+00
DAV:  22    -0.474825759206E+03    0.24102E-01   -0.16648E+00  1440   0.694E-01    0.187E+00
DAV:  23    -0.474816737377E+03    0.90218E-02   -0.14351E+00  1440   0.622E-01    0.223E+00
DAV:  24    -0.474809953967E+03    0.67834E-02   -0.13805E+00  1436   0.599E-01    0.187E+00
DAV:  25    -0.474812535409E+03   -0.25814E-02   -0.13863E+00  1420   0.589E-01    0.213E+00
DAV:  26    -0.474813264883E+03   -0.72947E-03   -0.14602E+00  1416   0.600E-01    0.181E+00
DAV:  27    -0.474820044146E+03   -0.67793E-02   -0.15486E+00  1420   0.613E-01    0.202E+00
DAV:  28    -0.474823674216E+03   -0.36301E-02   -0.16705E+00  1424   0.638E-01    0.182E+00
DAV:  29    -0.474832201525E+03   -0.85273E-02   -0.17944E+00  1416   0.658E-01    0.197E+00
DAV:  30    -0.474836622503E+03   -0.44210E-02   -0.19248E+00  1424   0.687E-01    0.191E+00
DAV:  31    -0.474844360762E+03   -0.77383E-02   -0.20463E+00  1416   0.705E-01    0.200E+00
DAV:  32    -0.474847817300E+03   -0.34565E-02   -0.21493E+00  1408   0.732E-01    0.202E+00
DAV:  33    -0.474853381397E+03   -0.55641E-02   -0.22396E+00  1412   0.743E-01    0.204E+00
DAV:  34    -0.474854933986E+03   -0.15526E-02   -0.22962E+00  1416   0.763E-01    0.209E+00
DAV:  35    -0.474858100159E+03   -0.31662E-02   -0.23429E+00  1412   0.766E-01    0.206E+00
DAV:  36    -0.474857613873E+03    0.48629E-03   -0.23527E+00  1400   0.777E-01    0.210E+00
DAV:  37    -0.474858888643E+03   -0.12748E-02   -0.23601E+00  1416   0.772E-01    0.206E+00
DAV:  38    -0.474857007203E+03    0.18814E-02   -0.23402E+00  1404   0.778E-01    0.207E+00
DAV:  39    -0.474857292195E+03   -0.28499E-03   -0.23235E+00  1416   0.768E-01    0.204E+00
DAV:  40    -0.474854726206E+03    0.25660E-02   -0.22922E+00  1416   0.770E-01    0.203E+00
DAV:  41    -0.474854817237E+03   -0.91031E-04   -0.22680E+00  1416   0.758E-01    0.203E+00
DAV:  42    -0.474852230928E+03    0.25863E-02   -0.22400E+00  1408   0.760E-01    0.200E+00
DAV:  43    -0.474852682151E+03   -0.45122E-03   -0.22208E+00  1416   0.749E-01    0.202E+00
DAV:  44    -0.474850542174E+03    0.21400E-02   -0.22050E+00  1404   0.753E-01    0.199E+00
DAV:  45    -0.474851551326E+03   -0.10092E-02   -0.21964E+00  1416   0.744E-01    0.201E+00
DAV:  46    -0.474849918100E+03    0.16332E-02   -0.21923E+00  1404   0.750E-01    0.199E+00
DAV:  47    -0.474851307504E+03   -0.13894E-02   -0.21942E+00  1416   0.744E-01    0.201E+00
DAV:  48    -0.474851146998E+03    0.16051E-03   -0.22194E+00  1404   0.753E-01    0.200E+00
DAV:  49    -0.474852304083E+03   -0.11571E-02   -0.22162E+00  1416   0.748E-01    0.202E+00
DAV:  50    -0.474851960730E+03    0.34335E-03   -0.22364E+00  1408   0.756E-01    0.201E+00
DAV:  51    -0.474852780774E+03   -0.82004E-03   -0.22270E+00  1416   0.751E-01    0.202E+00
DAV:  52    -0.474852461758E+03    0.31902E-03   -0.22465E+00  1404   0.758E-01    0.201E+00
DAV:  53    -0.474853338174E+03   -0.87642E-03   -0.22398E+00  1416   0.753E-01    0.202E+00
DAV:  54    -0.474852673076E+03    0.66510E-03   -0.22511E+00  1404   0.760E-01    0.201E+00
DAV:  55    -0.474853017096E+03   -0.34402E-03   -0.22326E+00  1416   0.753E-01    0.201E+00
DAV:  56    -0.474852094481E+03    0.92261E-03   -0.22391E+00  1404   0.758E-01    0.200E+00
DAV:  57    -0.474852260304E+03   -0.16582E-03   -0.22163E+00  1416   0.750E-01    0.201E+00
DAV:  58    -0.474851711655E+03    0.54865E-03   -0.22317E+00  1408   0.756E-01    0.199E+00
DAV:  59    -0.474851957893E+03   -0.24624E-03   -0.22100E+00  1416   0.749E-01    0.201E+00
DAV:  60    -0.474851686877E+03    0.27102E-03   -0.22316E+00  1404   0.756E-01    0.199E+00
DAV:  61    -0.474852045143E+03   -0.35827E-03   -0.22123E+00  1416   0.750E-01    0.201E+00
DAV:  62    -0.474852007743E+03    0.37400E-04   -0.22391E+00  1404   0.757E-01    0.200E+00
DAV:  63    -0.474852296739E+03   -0.28900E-03   -0.22183E+00  1416   0.751E-01    0.201E+00
DAV:  64    -0.474852458129E+03   -0.16139E-03   -0.22488E+00  1404   0.758E-01    0.200E+00
DAV:  65    -0.474852615474E+03   -0.15734E-03   -0.22257E+00  1416   0.753E-01    0.201E+00
DAV:  66    -0.474852783444E+03   -0.16797E-03   -0.22556E+00  1408   0.759E-01    0.200E+00
DAV:  67    -0.474852779239E+03    0.42052E-05   -0.22297E+00  1416   0.754E-01    0.201E+00
DAV:  68    -0.474852660838E+03    0.11840E-03   -0.22530E+00  1408   0.760E-01    0.200E+00
DAV:  69    -0.474852393363E+03    0.26747E-03   -0.22213E+00  1416   0.753E-01    0.201E+00
DAV:  70    -0.474852200174E+03    0.19319E-03   -0.22434E+00  1408   0.758E-01    0.199E+00
DAV:  71    -0.474851942681E+03    0.25749E-03   -0.22117E+00  1416   0.751E-01    0.201E+00
DAV:  72    -0.474851893671E+03    0.49010E-04   -0.22369E+00  1408   0.757E-01    0.199E+00
DAV:  73    -0.474851914247E+03   -0.20576E-04   -0.22117E+00  1416   0.751E-01    0.201E+00
DAV:  74    -0.474852039919E+03   -0.12567E-03   -0.22401E+00  1408   0.757E-01    0.199E+00
DAV:  75    -0.474852085469E+03   -0.45551E-04   -0.22158E+00  1416   0.751E-01    0.201E+00
DAV:  76    -0.474852153269E+03   -0.67800E-04   -0.22426E+00  1408   0.758E-01    0.199E+00
DAV:  77    -0.474852083715E+03    0.69554E-04   -0.22156E+00  1416   0.752E-01    0.200E+00
DAV:  78    -0.474851564075E+03    0.51964E-03   -0.22282E+00  1408   0.757E-01    0.201E+00
DAV:  79    -0.474852847997E+03   -0.12839E-02   -0.22337E+00  1416   0.752E-01    0.200E+00
DAV:  80    -0.474851530224E+03    0.13178E-02   -0.22271E+00  1408   0.758E-01    0.200E+00
DAV:  81    -0.474852154890E+03   -0.62467E-03   -0.22188E+00  1416   0.751E-01    0.201E+00
DAV:  82    -0.474852114194E+03    0.40696E-04   -0.22416E+00  1408   0.758E-01    0.199E+00
DAV:  83    -0.474851902333E+03    0.21186E-03   -0.22126E+00  1416   0.751E-01    0.200E+00
DAV:  84    -0.474852112109E+03   -0.20978E-03   -0.22420E+00  1408   0.757E-01    0.199E+00
DAV:  85    -0.474851920106E+03    0.19200E-03   -0.22132E+00  1408   0.752E-01    0.200E+00
DAV:  86    -0.474852040466E+03   -0.12036E-03   -0.22402E+00  1408   0.757E-01    0.199E+00
DAV:  87    -0.474852084098E+03   -0.43632E-04   -0.22170E+00  1408   0.752E-01    0.200E+00
DAV:  88    -0.474851852381E+03    0.23172E-03   -0.22354E+00  1408   0.757E-01    0.200E+00
DAV:  89    -0.474852361644E+03   -0.50926E-03   -0.22236E+00  1408   0.752E-01    0.200E+00
DAV:  90    -0.474851534021E+03    0.82762E-03   -0.22273E+00  1408   0.757E-01    0.200E+00
DAV:  91    -0.474852729423E+03   -0.11954E-02   -0.22324E+00  1408   0.752E-01    0.200E+00
DAV:  92    -0.474851450815E+03    0.12786E-02   -0.22252E+00  1408   0.758E-01    0.200E+00
DAV:  93    -0.474852380246E+03   -0.92943E-03   -0.22252E+00  1408   0.751E-01    0.200E+00
DAV:  94    -0.474852063603E+03    0.31664E-03   -0.22406E+00  1408   0.758E-01    0.199E+00
DAV:  95    -0.474851484639E+03    0.57896E-03   -0.22048E+00  1408   0.751E-01    0.201E+00
DAV:  96    -0.474852654233E+03   -0.11696E-02   -0.22553E+00  1408   0.758E-01    0.199E+00
DAV:  97    -0.474851512809E+03    0.11414E-02   -0.22043E+00  1408   0.752E-01    0.200E+00
DAV:  98    -0.474851939376E+03   -0.42657E-03   -0.22384E+00  1408   0.756E-01    0.200E+00
DAV:  99    -0.474852280854E+03   -0.34148E-03   -0.22226E+00  1408   0.752E-01    0.200E+00
DAV: 100    -0.474851816231E+03    0.46462E-03   -0.22348E+00  1408   0.758E-01    0.199E+00
DAV: 101    -0.474852039695E+03   -0.22346E-03   -0.22177E+00  1408   0.752E-01    0.200E+00
DAV: 102    -0.474851984759E+03    0.54936E-04   -0.22388E+00  1408   0.758E-01    0.199E+00
DAV: 103    -0.474851997714E+03   -0.12956E-04   -0.22167E+00  1408   0.752E-01    0.200E+00
DAV: 104    -0.474851932840E+03    0.64874E-04   -0.22377E+00  1408   0.757E-01    0.199E+00
DAV: 105    -0.474852051203E+03   -0.11836E-03   -0.22182E+00  1400   0.752E-01    0.200E+00
DAV: 106    -0.474851913444E+03    0.13776E-03   -0.22373E+00  1400   0.758E-01    0.199E+00
DAV: 107    -0.474852043985E+03   -0.13054E-03   -0.22181E+00  1400   0.752E-01    0.200E+00
DAV: 108    -0.474851878110E+03    0.16588E-03   -0.22365E+00  1400   0.758E-01    0.200E+00
DAV: 109    -0.474852104003E+03   -0.22589E-03   -0.22197E+00  1400   0.752E-01    0.200E+00
DAV: 110    -0.474851853432E+03    0.25057E-03   -0.22359E+00  1400   0.758E-01    0.199E+00
DAV: 111    -0.474852078104E+03   -0.22467E-03   -0.22194E+00  1400   0.752E-01    0.200E+00
DAV: 112    -0.474851879341E+03    0.19876E-03   -0.22365E+00  1400   0.758E-01    0.200E+00
DAV: 113    -0.474852100805E+03   -0.22146E-03   -0.22201E+00  1400   0.752E-01    0.200E+00
DAV: 114    -0.474851799639E+03    0.30117E-03   -0.22347E+00  1400   0.758E-01    0.200E+00
DAV: 115    -0.474852135522E+03   -0.33588E-03   -0.22211E+00  1400   0.752E-01    0.200E+00
DAV: 116    -0.474851827182E+03    0.30834E-03   -0.22354E+00  1400   0.758E-01    0.199E+00
DAV: 117    -0.474852068625E+03   -0.24144E-03   -0.22198E+00  1400   0.752E-01    0.200E+00
DAV: 118    -0.474851800533E+03    0.26809E-03   -0.22349E+00  1400   0.758E-01    0.200E+00
DAV: 119    -0.474852161868E+03   -0.36133E-03   -0.22221E+00  1400   0.753E-01    0.200E+00
DAV: 120    -0.474851760960E+03    0.40091E-03   -0.22340E+00  1400   0.758E-01    0.199E+00
DAV: 121    -0.474852112417E+03   -0.35146E-03   -0.22213E+00  1400   0.752E-01    0.200E+00
DAV: 122    -0.474851823597E+03    0.28882E-03   -0.22357E+00  1400   0.758E-01    0.199E+00
DAV: 123    -0.474851929209E+03   -0.10561E-03   -0.22173E+00  1400   0.752E-01    0.200E+00
DAV: 124    -0.474852070035E+03   -0.14083E-03   -0.22419E+00  1400   0.758E-01    0.199E+00
DAV: 125    -0.474851679984E+03    0.39005E-03   -0.22116E+00  1400   0.752E-01    0.200E+00
DAV: 126    -0.474852124675E+03   -0.44469E-03   -0.22435E+00  1400   0.758E-01    0.199E+00
DAV: 127    -0.474851809273E+03    0.31540E-03   -0.22146E+00  1400   0.753E-01    0.200E+00
DAV: 128    -0.474851836430E+03   -0.27157E-04   -0.22365E+00  1400   0.757E-01    0.200E+00
DAV: 129    -0.474852226699E+03   -0.39027E-03   -0.22245E+00  1400   0.753E-01    0.200E+00
DAV: 130    -0.474851542798E+03    0.68390E-03   -0.22292E+00  1400   0.758E-01    0.200E+00
DAV: 131    -0.474852360481E+03   -0.81768E-03   -0.22282E+00  1400   0.753E-01    0.200E+00
DAV: 132    -0.474851637522E+03    0.72296E-03   -0.22315E+00  1400   0.758E-01    0.199E+00
DAV: 133    -0.474852058765E+03   -0.42124E-03   -0.22216E+00  1400   0.753E-01    0.200E+00
DAV: 134    -0.474852009010E+03    0.49754E-04   -0.22410E+00  1400   0.758E-01    0.199E+00
DAV: 135    -0.474851431100E+03    0.57791E-03   -0.22072E+00  1400   0.752E-01    0.200E+00
DAV: 136    -0.474852574876E+03   -0.11438E-02   -0.22551E+00  1400   0.758E-01    0.198E+00
DAV: 137    -0.474851244449E+03    0.13304E-02   -0.22024E+00  1400   0.753E-01    0.200E+00
DAV: 138    -0.474852376565E+03   -0.11321E-02   -0.22508E+00  1400   0.757E-01    0.199E+00
DAV: 139    -0.474851654700E+03    0.72187E-03   -0.22120E+00  1400   0.754E-01    0.200E+00
DAV: 140    -0.474851638828E+03    0.15872E-04   -0.22327E+00  1400   0.757E-01    0.200E+00
DAV: 141    -0.474852713946E+03   -0.10751E-02   -0.22371E+00  1400   0.754E-01    0.200E+00
DAV: 142    -0.474851018547E+03    0.16954E-02   -0.22175E+00  1400   0.758E-01    0.200E+00
DAV: 143    -0.474852431521E+03   -0.14130E-02   -0.22320E+00  1400   0.753E-01    0.200E+00
DAV: 144    -0.474851921099E+03    0.51042E-03   -0.22389E+00  1400   0.759E-01    0.199E+00
DAV: 145    -0.474851715683E+03    0.20542E-03   -0.22149E+00  1400   0.753E-01    0.200E+00
DAV: 146    -0.474851817552E+03   -0.10187E-03   -0.22374E+00  1400   0.758E-01    0.199E+00
DAV: 147    -0.474852071517E+03   -0.25396E-03   -0.22232E+00  1400   0.754E-01    0.200E+00
DAV: 148    -0.474851739022E+03    0.33249E-03   -0.22354E+00  1400   0.758E-01    0.199E+00
DAV: 149    -0.474851927416E+03   -0.18839E-03   -0.22203E+00  1400   0.753E-01    0.200E+00
DAV: 150    -0.474851832658E+03    0.94757E-04   -0.22378E+00  1400   0.758E-01    0.199E+00
DAV: 151    -0.474851935049E+03   -0.10239E-03   -0.22206E+00  1400   0.754E-01    0.200E+00
DAV: 152    -0.474851771769E+03    0.16328E-03   -0.22366E+00  1400   0.758E-01    0.199E+00
DAV: 153    -0.474851942933E+03   -0.17116E-03   -0.22211E+00  1400   0.754E-01    0.200E+00
DAV: 154    -0.474851800679E+03    0.14225E-03   -0.22374E+00  1400   0.759E-01    0.199E+00
DAV: 155    -0.474851910851E+03   -0.11017E-03   -0.22206E+00  1400   0.754E-01    0.200E+00
DAV: 156    -0.474851786867E+03    0.12398E-03   -0.22372E+00  1400   0.758E-01    0.199E+00
DAV: 157    -0.474851922508E+03   -0.13564E-03   -0.22211E+00  1400   0.754E-01    0.200E+00
DAV: 158    -0.474851802439E+03    0.12007E-03   -0.22377E+00  1400   0.759E-01    0.199E+00
DAV: 159    -0.474851871005E+03   -0.68567E-04   -0.22202E+00  1400   0.754E-01    0.200E+00
DAV: 160    -0.474851802460E+03    0.68546E-04   -0.22379E+00  1400   0.759E-01    0.199E+00
DAV: 161    -0.474851891270E+03   -0.88810E-04   -0.22209E+00  1400   0.754E-01    0.200E+00
DAV: 162    -0.474851776950E+03    0.11432E-03   -0.22375E+00  1400   0.759E-01    0.199E+00
DAV: 163    -0.474851846561E+03   -0.69611E-04   -0.22202E+00  1400   0.754E-01    0.200E+00
DAV: 164    -0.474851838866E+03    0.76946E-05   -0.22391E+00  1400   0.759E-01    0.199E+00
DAV: 165    -0.474851824951E+03    0.13915E-04   -0.22199E+00  1400   0.754E-01    0.200E+00
DAV: 166    -0.474851790492E+03    0.34458E-04   -0.22381E+00  1400   0.759E-01    0.199E+00
DAV: 167    -0.474851867264E+03   -0.76772E-04   -0.22212E+00  1400   0.754E-01    0.200E+00
DAV: 168    -0.474851733084E+03    0.13418E-03   -0.22368E+00  1400   0.759E-01    0.199E+00
DAV: 169    -0.474851929319E+03   -0.19623E-03   -0.22229E+00  1400   0.754E-01    0.200E+00
DAV: 170    -0.474851715517E+03    0.21380E-03   -0.22365E+00  1400   0.759E-01    0.199E+00
DAV: 171    -0.474851893829E+03   -0.17831E-03   -0.22224E+00  1400   0.754E-01    0.200E+00
DAV: 172    -0.474851732708E+03    0.16112E-03   -0.22371E+00  1400   0.759E-01    0.199E+00
DAV: 173    -0.474851802248E+03   -0.69539E-04   -0.22206E+00  1400   0.754E-01    0.200E+00
DAV: 174    -0.474851847470E+03   -0.45222E-04   -0.22401E+00  1400   0.759E-01    0.199E+00
DAV: 175    -0.474851740656E+03    0.10681E-03   -0.22193E+00  1400   0.755E-01    0.200E+00
DAV: 176    -0.474851796602E+03   -0.55946E-04   -0.22391E+00  1400   0.759E-01    0.199E+00
DAV: 177    -0.474851819736E+03   -0.23133E-04   -0.22215E+00  1400   0.755E-01    0.200E+00
DAV: 178    -0.474851640158E+03    0.17958E-03   -0.22354E+00  1400   0.759E-01    0.199E+00
DAV: 179    -0.474852102672E+03   -0.46251E-03   -0.22284E+00  1400   0.755E-01    0.199E+00
DAV: 180    -0.474851384624E+03    0.71805E-03   -0.22292E+00  1400   0.759E-01    0.199E+00
DAV: 181    -0.474852260665E+03   -0.87604E-03   -0.22326E+00  1400   0.755E-01    0.199E+00
DAV: 182    -0.474851442566E+03    0.81810E-03   -0.22301E+00  1400   0.760E-01    0.200E+00
DAV: 183    -0.474852654937E+03   -0.12124E-02   -0.22417E+00  1400   0.756E-01    0.199E+00
DAV: 184    -0.474850157072E+03    0.24979E-02   -0.22001E+00  1400   0.759E-01    0.201E+00
DAV: 185    -0.474853159112E+03   -0.30020E-02   -0.22553E+00  1400   0.755E-01    0.200E+00
DAV: 186    -0.474852148644E+03    0.10105E-02   -0.22465E+00  1400   0.763E-01    0.197E+00
DAV: 187    -0.474850592028E+03    0.15566E-02   -0.21947E+00  1400   0.753E-01    0.200E+00
DAV: 188    -0.474851981122E+03   -0.13891E-02   -0.22453E+00  1400   0.757E-01    0.199E+00
DAV: 189    -0.474852174305E+03   -0.19318E-03   -0.22308E+00  1400   0.757E-01    0.200E+00
DAV: 190    -0.474851708035E+03    0.46627E-03   -0.22378E+00  1400   0.760E-01    0.198E+00
DAV: 191    -0.474851417916E+03    0.29012E-03   -0.22143E+00  1400   0.754E-01    0.200E+00
DAV: 192    -0.474851837876E+03   -0.41996E-03   -0.22415E+00  1400   0.759E-01    0.199E+00
DAV: 193    -0.474851887051E+03   -0.49175E-04   -0.22250E+00  1400   0.756E-01    0.199E+00
DAV: 194    -0.474851696133E+03    0.19092E-03   -0.22380E+00  1400   0.760E-01    0.199E+00
DAV: 195    -0.474851650726E+03    0.45407E-04   -0.22201E+00  1400   0.755E-01    0.199E+00
DAV: 196    -0.474851746670E+03   -0.95943E-04   -0.22395E+00  1400   0.759E-01    0.199E+00
DAV: 197    -0.474851803634E+03   -0.56964E-04   -0.22238E+00  1400   0.756E-01    0.199E+00
DAV: 198    -0.474851675836E+03    0.12780E-03   -0.22378E+00  1400   0.760E-01    0.199E+00
DAV: 199    -0.474851732172E+03   -0.56337E-04   -0.22225E+00  1400   0.755E-01    0.199E+00
DAV: 200    -0.474851691794E+03    0.40379E-04   -0.22384E+00  1400   0.760E-01
   4 F= -.47485169E+03 E0= -.47478683E+03  d E =-.747978E-02
       N       E                     dE             d eps       ncg     rms          rms(c)
DAV:   1    -0.474857011845E+03   -0.52797E-02   -0.23714E+00  1480   0.134E+00    0.199E+00
DAV:   2    -0.475283752999E+03   -0.42674E+00   -0.52631E+00  1768   0.174E+00    0.168E+01
DAV:   3    -0.474879273505E+03    0.40448E+00   -0.82426E+00  1736   0.205E+00    0.526E+00
DAV:   4    -0.474767635672E+03    0.11164E+00   -0.21095E-01  1616   0.958E-01    0.390E+00
DAV:   5    -0.474741865551E+03    0.25770E-01   -0.19001E-01  1632   0.319E-01    0.251E+00
DAV:   6    -0.474752078477E+03   -0.10213E-01   -0.35150E-01  1704   0.281E-01    0.210E+00
DAV:   7    -0.474773567406E+03   -0.21489E-01   -0.79130E-01  1692   0.408E-01    0.144E+00
DAV:   8    -0.474829064344E+03   -0.55497E-01   -0.16199E+00  1508   0.549E-01    0.269E+00
DAV:   9    -0.474877285066E+03   -0.48221E-01   -0.28162E+00  1456   0.751E-01    0.304E+00
DAV:  10    -0.474928637694E+03   -0.51353E-01   -0.37466E+00  1456   0.924E-01    0.358E+00
DAV:  11    -0.474920937767E+03    0.76999E-02   -0.39643E+00  1424   0.990E-01    0.298E+00
DAV:  12    -0.474922238342E+03   -0.13006E-02   -0.37312E+00  1452   0.997E-01    0.259E+00
DAV:  13    -0.474869661355E+03    0.52577E-01   -0.27586E+00  1424   0.924E-01    0.163E+00
DAV:  14    -0.474845973919E+03    0.23687E-01   -0.18199E+00  1456   0.765E-01    0.256E+00
DAV:  15    -0.474803782991E+03    0.42191E-01   -0.12305E+00  1456   0.624E-01    0.216E+00
DAV:  16    -0.474799888976E+03    0.38940E-02   -0.10213E+00  1448   0.537E-01    0.262E+00
DAV:  17    -0.474788347748E+03    0.11541E-01   -0.10232E+00  1492   0.508E-01    0.181E+00
DAV:  18    -0.474806528218E+03   -0.18180E-01   -0.12246E+00  1432   0.536E-01    0.220E+00
DAV:  19    -0.474812252675E+03   -0.57245E-02   -0.15081E+00  1428   0.585E-01    0.157E+00
DAV:  20    -0.474844102780E+03   -0.31850E-01   -0.19395E+00  1436   0.666E-01    0.230E+00
DAV:  21    -0.474852823782E+03   -0.87210E-02   -0.23342E+00  1416   0.737E-01    0.204E+00
DAV:  22    -0.474880867261E+03   -0.28043E-01   -0.26979E+00  1416   0.812E-01    0.263E+00
DAV:  23    -0.474874300371E+03    0.65669E-02   -0.28528E+00  1416   0.855E-01    0.217E+00
DAV:  24    -0.474888349366E+03   -0.14049E-01   -0.28746E+00  1416   0.867E-01    0.253E+00
DAV:  25    -0.474866184371E+03    0.22165E-01   -0.26907E+00  1404   0.852E-01    0.182E+00
DAV:  26    -0.474870559241E+03   -0.43749E-02   -0.24630E+00  1400   0.821E-01    0.230E+00
DAV:  27    -0.474844942042E+03    0.25617E-01   -0.21880E+00  1400   0.768E-01    0.158E+00
DAV:  28    -0.474849601627E+03   -0.46596E-02   -0.20111E+00  1400   0.736E-01    0.222E+00
DAV:  29    -0.474831732200E+03    0.17869E-01   -0.18924E+00  1408   0.701E-01    0.157E+00
DAV:  30    -0.474843163870E+03   -0.11432E-01   -0.18975E+00  1400   0.698E-01    0.220E+00
DAV:  31    -0.474834567845E+03    0.85960E-02   -0.19523E+00  1400   0.696E-01    0.162E+00
DAV:  32    -0.474851537551E+03   -0.16970E-01   -0.20764E+00  1400   0.721E-01    0.225E+00
DAV:  33    -0.474845998922E+03    0.55386E-02   -0.21966E+00  1400   0.735E-01    0.175E+00
DAV:  34    -0.474862988609E+03   -0.16990E-01   -0.23157E+00  1400   0.766E-01    0.233E+00
DAV:  35    -0.474854285202E+03    0.87034E-02   -0.23827E+00  1400   0.774E-01    0.181E+00
DAV:  36    -0.474867489309E+03   -0.13204E-01   -0.24107E+00  1392   0.791E-01    0.233E+00
DAV:  37    -0.474854155852E+03    0.13333E-01   -0.23829E+00  1392   0.782E-01    0.176E+00
DAV:  38    -0.474863877984E+03   -0.97221E-02   -0.23305E+00  1392   0.783E-01    0.228E+00
DAV:  39    -0.474848703598E+03    0.15174E-01   -0.22576E+00  1392   0.763E-01    0.168E+00
DAV:  40    -0.474857693473E+03   -0.89899E-02   -0.21979E+00  1392   0.760E-01    0.223E+00
DAV:  41    -0.474844103223E+03    0.13590E-01   -0.21517E+00  1392   0.742E-01    0.166E+00
DAV:  42    -0.474854614262E+03   -0.10511E-01   -0.21368E+00  1392   0.745E-01    0.222E+00
DAV:  43    -0.474843838721E+03    0.10776E-01   -0.21429E+00  1392   0.736E-01    0.168E+00
DAV:  44    -0.474855995079E+03   -0.12156E-01   -0.21692E+00  1392   0.747E-01    0.224E+00
DAV:  45    -0.474846741882E+03    0.92532E-02   -0.22044E+00  1392   0.744E-01    0.172E+00
DAV:  46    -0.474859152841E+03   -0.12411E-01   -0.22372E+00  1392   0.759E-01    0.226E+00
DAV:  47    -0.474849522385E+03    0.96305E-02   -0.22640E+00  1392   0.756E-01    0.175E+00
DAV:  48    -0.474861577971E+03   -0.12056E-01   -0.22888E+00  1392   0.769E-01    0.226E+00
DAV:  49    -0.474849848484E+03    0.11729E-01   -0.22716E+00  1392   0.762E-01    0.174E+00
DAV:  50    -0.474860407071E+03   -0.10559E-01   -0.22625E+00  1392   0.767E-01    0.224E+00
DAV:  51    -0.474847741499E+03    0.12666E-01   -0.22239E+00  1392   0.755E-01    0.171E+00
DAV:  52    -0.474857786447E+03   -0.10045E-01   -0.22055E+00  1392   0.757E-01    0.223E+00
DAV:  53    -0.474845711817E+03    0.12075E-01   -0.21780E+00  1392   0.745E-01    0.170E+00
[...]
DAV: 189    -0.474847895704E+03    0.97304E-02   -0.22039E+00  1384   0.750E-01    0.177E+00
DAV: 190    -0.474857745274E+03   -0.98496E-02   -0.22031E+00  1392   0.758E-01    0.220E+00
DAV: 191    -0.474848054201E+03    0.96911E-02   -0.22072E+00  1384   0.751E-01    0.177E+00
DAV: 192    -0.474857702798E+03   -0.96486E-02   -0.22022E+00  1392   0.758E-01    0.220E+00
DAV: 193    -0.474848004440E+03    0.96984E-02   -0.22055E+00  1384   0.751E-01    0.178E+00
DAV: 194    -0.474858249625E+03   -0.10245E-01   -0.22144E+00  1392   0.759E-01    0.219E+00
DAV: 195    -0.474846308806E+03    0.11941E-01   -0.21623E+00  1384   0.750E-01    0.181E+00
DAV: 196    -0.474860556821E+03   -0.14248E-01   -0.22696E+00  1384   0.760E-01    0.221E+00
DAV: 197    -0.474849753477E+03    0.10803E-01   -0.22440E+00  1384   0.760E-01    0.175E+00
DAV: 198    -0.474856036469E+03   -0.62830E-02   -0.21637E+00  1392   0.757E-01    0.218E+00
DAV: 199    -0.474846214335E+03    0.98221E-02   -0.21647E+00  1384   0.744E-01    0.178E+00
DAV: 200    -0.474857915565E+03   -0.11701E-01   -0.22093E+00  1384   0.755E-01
   6 F= -.47485792E+03 E0= -.47479419E+03  d E =-.137036E-01
       N       E                     dE             d eps       ncg     rms          rms(c)
DAV:   1    -0.474849685151E+03   -0.34708E-02   -0.22474E+00  1496   0.824E-01    0.174E+00
DAV:   2    -0.474859143604E+03   -0.94585E-02   -0.20013E+00  1752   0.864E-01    0.306E+00
DAV:   3    -0.475135406381E+03   -0.27626E+00   -0.44698E+00  1732   0.155E+00    0.148E+01
DAV:   4    -0.474899859864E+03    0.23555E+00   -0.61553E+00  1684   0.137E+00    0.322E+00
DAV:   5    -0.474890835692E+03    0.90242E-02   -0.33737E+00  1652   0.100E+00    0.192E+00
DAV:   6    -0.474870208066E+03    0.20628E-01   -0.23836E+00  1612   0.875E-01    0.240E+00
DAV:   7    -0.474821999754E+03    0.48208E-01   -0.15655E+00  1436   0.710E-01    0.186E+00
DAV:   8    -0.474813449437E+03    0.85503E-02   -0.12302E+00  1436   0.594E-01    0.255E+00
DAV:   9    -0.474798521909E+03    0.14928E-01   -0.11690E+00  1444   0.552E-01    0.174E+00
DAV:  10    -0.474811428672E+03   -0.12907E-01   -0.12797E+00  1424   0.555E-01    0.221E+00
DAV:  11    -0.474817026096E+03   -0.55974E-02   -0.15865E+00  1436   0.599E-01    0.167E+00
DAV:  12    -0.474853112739E+03   -0.36087E-01   -0.20894E+00  1424   0.689E-01    0.245E+00
DAV:  13    -0.474867189307E+03   -0.14077E-01   -0.26353E+00  1424   0.779E-01    0.245E+00
DAV:  14    -0.474895325970E+03   -0.28137E-01   -0.30307E+00  1424   0.861E-01    0.276E+00
DAV:  15    -0.474886338993E+03    0.89870E-02   -0.31053E+00  1400   0.895E-01    0.238E+00
DAV:  16    -0.474891250768E+03   -0.49118E-02   -0.29720E+00  1400   0.893E-01    0.238E+00
DAV:  17    -0.474864385185E+03    0.26866E-01   -0.25614E+00  1400   0.847E-01    0.176E+00
DAV:  18    -0.474856356662E+03    0.80285E-02   -0.21346E+00  1432   0.779E-01    0.217E+00
DAV:  19    -0.474831560091E+03    0.24797E-01   -0.18025E+00  1416   0.706E-01    0.167E+00
DAV:  20    -0.474831021552E+03    0.53854E-03   -0.16301E+00  1416   0.659E-01    0.216E+00
DAV:  21    -0.474822198082E+03    0.88235E-02   -0.16365E+00  1428   0.641E-01    0.164E+00
DAV:  22    -0.474835879717E+03   -0.13682E-01   -0.17598E+00  1424   0.657E-01    0.210E+00
DAV:  23    -0.474839156293E+03   -0.32766E-02   -0.19912E+00  1408   0.687E-01    0.182E+00
DAV:  24    -0.474858701684E+03   -0.19545E-01   -0.22361E+00  1416   0.741E-01    0.225E+00
DAV:  25    -0.474860772727E+03   -0.20710E-02   -0.24553E+00  1416   0.776E-01    0.207E+00
DAV:  26    -0.474873670117E+03   -0.12897E-01   -0.25727E+00  1416   0.815E-01    0.231E+00
DAV:  27    -0.474866139314E+03    0.75308E-02   -0.25754E+00  1400   0.817E-01    0.200E+00
DAV:  28    -0.474869431646E+03   -0.32923E-02   -0.24789E+00  1400   0.816E-01    0.217E+00
DAV:  29    -0.474855330172E+03    0.14101E-01   -0.23168E+00  1400   0.784E-01    0.180E+00
DAV:  30    -0.474854866240E+03    0.46393E-03   -0.21496E+00  1400   0.759E-01    0.208E+00
DAV:  31    -0.474842542343E+03    0.12324E-01   -0.20281E+00  1400   0.728E-01    0.173E+00
DAV:  32    -0.474845764903E+03   -0.32226E-02   -0.19644E+00  1400   0.715E-01    0.206E+00
DAV:  33    -0.474840230327E+03    0.55346E-02   -0.19820E+00  1400   0.707E-01    0.176E+00
DAV:  34    -0.474848914730E+03   -0.86844E-02   -0.20421E+00  1400   0.719E-01    0.208E+00
DAV:  35    -0.474847986545E+03    0.92818E-03   -0.21477E+00  1400   0.729E-01    0.186E+00
DAV:  36    -0.474858004036E+03   -0.10017E-01   -0.22422E+00  1400   0.755E-01    0.213E+00
DAV:  37    -0.474856276504E+03    0.17275E-02   -0.23243E+00  1400   0.764E-01    0.194E+00
DAV:  38    -0.474862983084E+03   -0.67066E-02   -0.23556E+00  1400   0.782E-01    0.214E+00
DAV:  39    -0.474857655679E+03    0.53274E-02   -0.23487E+00  1400   0.777E-01    0.192E+00
DAV:  40    -0.474860375788E+03   -0.27201E-02   -0.22995E+00  1400   0.778E-01    0.208E+00
DAV:  41    -0.474853021726E+03    0.73541E-02   -0.22378E+00  1400   0.761E-01    0.186E+00
DAV:  42    -0.474854457234E+03   -0.14355E-02   -0.21710E+00  1400   0.755E-01    0.204E+00
DAV:  43    -0.474848351085E+03    0.61061E-02   -0.21309E+00  1400   0.740E-01    0.183E+00
DAV:  44    -0.474851328384E+03   -0.29773E-02   -0.21090E+00  1400   0.739E-01    0.202E+00
DAV:  45    -0.474848191654E+03    0.31367E-02   -0.21254E+00  1400   0.734E-01    0.186E+00
DAV:  46    -0.474852986419E+03   -0.47948E-02   -0.21511E+00  1400   0.743E-01    0.203E+00
DAV:  47    -0.474851703878E+03    0.12825E-02   -0.21972E+00  1400   0.744E-01    0.191E+00
DAV:  48    -0.474856291826E+03   -0.45879E-02   -0.22268E+00  1400   0.756E-01    0.205E+00
DAV:  49    -0.474854861481E+03    0.14303E-02   -0.22621E+00  1400   0.757E-01    0.193E+00
DAV:  50    -0.474857747049E+03   -0.28856E-02   -0.22621E+00  1400   0.766E-01    0.205E+00
DAV:  51    -0.474855104433E+03    0.26426E-02   -0.22617E+00  1400   0.760E-01    0.193E+00
DAV:  52    -0.474856289421E+03   -0.11850E-02   -0.22314E+00  1400   0.762E-01    0.202E+00
DAV:  53    -0.474852772255E+03    0.35172E-02   -0.22062E+00  1400   0.752E-01    0.190E+00
DAV:  54    -0.474853739072E+03   -0.96682E-03   -0.21777E+00  1400   0.751E-01    0.200E+00
DAV:  55    -0.474851015756E+03    0.27233E-02   -0.21655E+00  1400   0.744E-01    0.190E+00
DAV:  56    -0.474852603264E+03   -0.15875E-02   -0.21561E+00  1400   0.745E-01    0.199E+00
DAV:  57    -0.474851031836E+03    0.15714E-02   -0.21638E+00  1400   0.742E-01    0.191E+00
DAV:  58    -0.474853164471E+03   -0.21326E-02   -0.21714E+00  1400   0.747E-01    0.200E+00
DAV:  59    -0.474852288847E+03    0.87562E-03   -0.21888E+00  1400   0.745E-01    0.193E+00
DAV:  60    -0.474854293603E+03   -0.20048E-02   -0.21989E+00  1400   0.752E-01    0.200E+00
DAV:  61    -0.474853466400E+03    0.82720E-03   -0.22114E+00  1400   0.750E-01    0.194E+00
DAV:  62    -0.474854789485E+03   -0.13231E-02   -0.22108E+00  1400   0.755E-01    0.200E+00
DAV:  63    -0.474853542895E+03    0.12466E-02   -0.22113E+00  1400   0.751E-01    0.194E+00
DAV:  64    -0.474854301425E+03   -0.75853E-03   -0.22009E+00  1400   0.753E-01    0.199E+00
DAV:  65    -0.474852904742E+03    0.13967E-02   -0.21957E+00  1400   0.749E-01    0.193E+00
DAV:  66    -0.474853524700E+03   -0.61996E-03   -0.21851E+00  1400   0.750E-01    0.198E+00
DAV:  67    -0.474852398653E+03    0.11260E-02   -0.21835E+00  1400   0.746E-01    0.193E+00
DAV:  68    -0.474853230436E+03   -0.83178E-03   -0.21794E+00  1400   0.749E-01    0.198E+00
DAV:  69    -0.474852524372E+03    0.70606E-03   -0.21859E+00  1400   0.746E-01    0.194E+00
DAV:  70    -0.474853572160E+03   -0.10478E-02   -0.21875E+00  1400   0.750E-01    0.198E+00
DAV:  71    -0.474852967460E+03    0.60470E-03   -0.21950E+00  1400   0.747E-01    0.194E+00
DAV:  72    -0.474853876838E+03   -0.90938E-03   -0.21936E+00  1400   0.751E-01    0.198E+00
DAV:  73    -0.474852989275E+03    0.88756E-03   -0.21958E+00  1400   0.748E-01    0.194E+00
DAV:  74    -0.474853792200E+03   -0.80292E-03   -0.21909E+00  1400   0.751E-01    0.198E+00
DAV:  75    -0.474852731423E+03    0.10608E-02   -0.21906E+00  1400   0.747E-01    0.194E+00
DAV:  76    -0.474853630659E+03   -0.89924E-03   -0.21867E+00  1400   0.750E-01    0.198E+00
DAV:  77    -0.474852574153E+03    0.10565E-02   -0.21883E+00  1400   0.747E-01    0.194E+00
DAV:  78    -0.474853819274E+03   -0.12451E-02   -0.21893E+00  1400   0.750E-01    0.199E+00
DAV:  79    -0.474852723200E+03    0.10961E-02   -0.21934E+00  1400   0.748E-01    0.194E+00
DAV:  80    -0.474854164825E+03   -0.14416E-02   -0.21952E+00  1400   0.751E-01    0.199E+00
DAV:  81    -0.474852765493E+03    0.13993E-02   -0.21959E+00  1400   0.748E-01    0.193E+00
DAV:  82    -0.474854266612E+03   -0.15011E-02   -0.21952E+00  1400   0.751E-01    0.200E+00
DAV:  83    -0.474852633308E+03    0.16333E-02   -0.21949E+00  1400   0.748E-01    0.193E+00
DAV:  84    -0.474854552450E+03   -0.19191E-02   -0.21997E+00  1400   0.751E-01    0.200E+00
DAV:  85    -0.474852716216E+03    0.18362E-02   -0.21987E+00  1400   0.749E-01    0.193E+00
DAV:  86    -0.474854763496E+03   -0.20473E-02   -0.22023E+00  1400   0.752E-01    0.201E+00
DAV:  87    -0.474852650259E+03    0.21132E-02   -0.21989E+00  1400   0.749E-01    0.193E+00
DAV:  88    -0.474855265945E+03   -0.26157E-02   -0.22121E+00  1400   0.753E-01    0.202E+00
DAV:  89    -0.474852927105E+03    0.23388E-02   -0.22066E+00  1400   0.751E-01    0.193E+00
DAV:  90    -0.474855355488E+03   -0.24284E-02   -0.22121E+00  1400   0.754E-01    0.202E+00
DAV:  91    -0.474852749602E+03    0.26059E-02   -0.22043E+00  1400   0.751E-01    0.192E+00
DAV:  92    -0.474855310160E+03   -0.25606E-02   -0.22096E+00  1400   0.754E-01    0.202E+00
DAV:  93    -0.474852956076E+03    0.23541E-02   -0.22107E+00  1400   0.751E-01    0.193E+00
DAV:  94    -0.474855923753E+03   -0.29677E-02   -0.22221E+00  1400   0.755E-01    0.203E+00
DAV:  95    -0.474853009671E+03    0.29141E-02   -0.22128E+00  1400   0.752E-01    0.192E+00
DAV:  96    -0.474855718662E+03   -0.27090E-02   -0.22161E+00  1400   0.755E-01    0.203E+00
DAV:  97    -0.474852836330E+03    0.28823E-02   -0.22099E+00  1400   0.751E-01    0.193E+00
DAV:  98    -0.474856225724E+03   -0.33894E-02   -0.22269E+00  1400   0.756E-01    0.203E+00
DAV:  99    -0.474853001584E+03    0.32241E-02   -0.22144E+00  1400   0.753E-01    0.192E+00
DAV: 100    -0.474855829056E+03   -0.28275E-02   -0.22168E+00  1400   0.755E-01    0.204E+00
DAV: 101    -0.474853181438E+03    0.26476E-02   -0.22202E+00  1400   0.752E-01    0.192E+00
DAV: 102    -0.474855631621E+03   -0.24502E-02   -0.22112E+00  1400   0.756E-01    0.204E+00
DAV: 103    -0.474853815128E+03    0.18165E-02   -0.22366E+00  1400   0.753E-01    0.191E+00
DAV: 104    -0.474854859612E+03   -0.10445E-02   -0.21923E+00  1400   0.756E-01    0.204E+00
DAV: 105    -0.474853195899E+03    0.16637E-02   -0.22230E+00  1400   0.750E-01    0.192E+00
DAV: 106    -0.474856211278E+03   -0.30154E-02   -0.22234E+00  1400   0.757E-01    0.204E+00
DAV: 107    -0.474852798065E+03    0.34132E-02   -0.22126E+00  1400   0.752E-01    0.191E+00
DAV: 108    -0.474855770652E+03   -0.29726E-02   -0.22136E+00  1400   0.755E-01    0.204E+00
DAV: 109    -0.474853124187E+03    0.26465E-02   -0.22211E+00  1400   0.752E-01    0.191E+00
DAV: 110    -0.474855788145E+03   -0.26640E-02   -0.22133E+00  1400   0.756E-01    0.204E+00
DAV: 111    -0.474852965689E+03    0.28225E-02   -0.22178E+00  1400   0.752E-01    0.191E+00
DAV: 112    -0.474855778523E+03   -0.28128E-02   -0.22130E+00  1400   0.755E-01    0.204E+00
DAV: 113    -0.474852992135E+03    0.27864E-02   -0.22187E+00  1400   0.752E-01    0.191E+00
DAV: 114    -0.474855741319E+03   -0.27492E-02   -0.22119E+00  1400   0.755E-01    0.204E+00
DAV: 115    -0.474852985995E+03    0.27553E-02   -0.22188E+00  1400   0.752E-01    0.191E+00
DAV: 116    -0.474855718961E+03   -0.27330E-02   -0.22112E+00  1400   0.755E-01    0.204E+00
DAV: 117    -0.474852989325E+03    0.27296E-02   -0.22192E+00  1400   0.751E-01    0.191E+00
DAV: 118    -0.474855714258E+03   -0.27249E-02   -0.22109E+00  1400   0.755E-01    0.204E+00
DAV: 119    -0.474852869127E+03    0.28451E-02   -0.22165E+00  1400   0.751E-01    0.191E+00
DAV: 120    -0.474855774374E+03   -0.29052E-02   -0.22123E+00  1400   0.755E-01    0.204E+00
DAV: 121    -0.474852895951E+03    0.28784E-02   -0.22172E+00  1400   0.751E-01    0.191E+00
DAV: 122    -0.474855697894E+03   -0.28019E-02   -0.22106E+00  1400   0.755E-01    0.204E+00
DAV: 123    -0.474852764754E+03    0.29331E-02   -0.22142E+00  1400   0.751E-01    0.191E+00
DAV: 124    -0.474855891758E+03   -0.31270E-02   -0.22151E+00  1400   0.755E-01    0.204E+00
DAV: 125    -0.474852680371E+03    0.32114E-02   -0.22120E+00  1400   0.751E-01    0.191E+00
DAV: 126    -0.474855843904E+03   -0.31635E-02   -0.22141E+00  1400   0.755E-01    0.204E+00
DAV: 127    -0.474852815438E+03    0.30285E-02   -0.22153E+00  1400   0.751E-01    0.191E+00
DAV: 128    -0.474855719409E+03   -0.29040E-02   -0.22111E+00  1400   0.755E-01    0.204E+00
DAV: 129    -0.474852761991E+03    0.29574E-02   -0.22143E+00  1400   0.751E-01    0.191E+00
DAV: 130    -0.474855784328E+03   -0.30223E-02   -0.22126E+00  1400   0.755E-01    0.204E+00
DAV: 131    -0.474852746228E+03    0.30381E-02   -0.22139E+00  1400   0.751E-01    0.191E+00
DAV: 132    -0.474855737809E+03   -0.29916E-02   -0.22116E+00  1400   0.755E-01    0.204E+00
DAV: 133    -0.474852800827E+03    0.29370E-02   -0.22152E+00  1400   0.751E-01    0.191E+00
DAV: 134    -0.474855644822E+03   -0.28440E-02   -0.22094E+00  1400   0.755E-01    0.204E+00
DAV: 135    -0.474852898202E+03    0.27466E-02   -0.22177E+00  1400   0.751E-01    0.191E+00
DAV: 136    -0.474855532880E+03   -0.26347E-02   -0.22067E+00  1400   0.755E-01    0.204E+00
DAV: 137    -0.474852962486E+03    0.25704E-02   -0.22194E+00  1400   0.751E-01    0.191E+00
DAV: 138    -0.474855495020E+03   -0.25325E-02   -0.22057E+00  1400   0.755E-01    0.204E+00
DAV: 139    -0.474852953820E+03    0.25412E-02   -0.22193E+00  1400   0.751E-01    0.191E+00
DAV: 140    -0.474855557340E+03   -0.26035E-02   -0.22072E+00  1400   0.755E-01    0.204E+00
DAV: 141    -0.474852834599E+03    0.27227E-02   -0.22163E+00  1400   0.751E-01    0.191E+00
DAV: 142    -0.474855717070E+03   -0.28825E-02   -0.22111E+00  1400   0.755E-01    0.204E+00
DAV: 143    -0.474852742516E+03    0.29746E-02   -0.22138E+00  1400   0.751E-01    0.191E+00
DAV: 144    -0.474855740389E+03   -0.29979E-02   -0.22118E+00  1400   0.755E-01    0.204E+00
DAV: 145    -0.474852758432E+03    0.29820E-02   -0.22142E+00  1400   0.751E-01    0.191E+00
DAV: 146    -0.474855684313E+03   -0.29259E-02   -0.22105E+00  1400   0.755E-01    0.204E+00
DAV: 147    -0.474852843105E+03    0.28412E-02   -0.22164E+00  1400   0.751E-01    0.191E+00
DAV: 148    -0.474855369607E+03   -0.25265E-02   -0.22029E+00  1400   0.755E-01    0.205E+00
DAV: 149    -0.474854504169E+03    0.86544E-03   -0.22572E+00  1400   0.754E-01    0.187E+00
DAV: 150    -0.474851858500E+03    0.26457E-02   -0.21212E+00  1400   0.751E-01    0.202E+00
DAV: 151    -0.474850950461E+03    0.90804E-03   -0.21759E+00  1400   0.739E-01    0.194E+00
DAV: 152    -0.474857852509E+03   -0.69020E-02   -0.22617E+00  1400   0.757E-01    0.206E+00
DAV: 153    -0.474855111610E+03    0.27409E-02   -0.22670E+00  1400   0.760E-01    0.191E+00
DAV: 154    -0.474855540793E+03   -0.42918E-03   -0.22050E+00  1400   0.759E-01    0.203E+00
DAV: 155    -0.474851025950E+03    0.45148E-02   -0.21747E+00  1400   0.747E-01    0.190E+00
DAV: 156    -0.474854763129E+03   -0.37372E-02   -0.21912E+00  1400   0.750E-01    0.204E+00
DAV: 157    -0.474853350390E+03    0.14127E-02   -0.22283E+00  1400   0.751E-01    0.192E+00
DAV: 158    -0.474856716140E+03   -0.33657E-02   -0.22337E+00  1400   0.758E-01    0.204E+00
DAV: 159    -0.474852959684E+03    0.37565E-02   -0.22179E+00  1400   0.754E-01    0.190E+00
DAV: 160    -0.474855149749E+03   -0.21901E-02   -0.21983E+00  1400   0.754E-01    0.203E+00
DAV: 161    -0.474852243446E+03    0.29063E-02   -0.22026E+00  1400   0.749E-01    0.191E+00
DAV: 162    -0.474855751253E+03   -0.35078E-02   -0.22127E+00  1400   0.754E-01    0.204E+00
DAV: 163    -0.474853119554E+03    0.26317E-02   -0.22223E+00  1400   0.752E-01    0.191E+00
DAV: 164    -0.474855896023E+03   -0.27765E-02   -0.22152E+00  1400   0.756E-01    0.204E+00
DAV: 165    -0.474852612290E+03    0.32837E-02   -0.22105E+00  1400   0.751E-01    0.191E+00
DAV: 166    -0.474855468243E+03   -0.28560E-02   -0.22059E+00  1400   0.754E-01    0.204E+00
DAV: 167    -0.474852694492E+03    0.27738E-02   -0.22127E+00  1400   0.751E-01    0.191E+00
DAV: 168    -0.474855805700E+03   -0.31112E-02   -0.22136E+00  1400   0.755E-01    0.204E+00
DAV: 169    -0.474852864429E+03    0.29413E-02   -0.22164E+00  1400   0.752E-01    0.191E+00
DAV: 170    -0.474855674289E+03   -0.28099E-02   -0.22104E+00  1400   0.755E-01    0.204E+00
DAV: 171    -0.474852666454E+03    0.30078E-02   -0.22120E+00  1400   0.751E-01    0.191E+00
DAV: 172    -0.474855633296E+03   -0.29668E-02   -0.22097E+00  1400   0.755E-01    0.204E+00
DAV: 173    -0.474852782492E+03    0.28508E-02   -0.22147E+00  1400   0.751E-01    0.191E+00
DAV: 174    -0.474855725813E+03   -0.29433E-02   -0.22117E+00  1400   0.755E-01    0.204E+00
DAV: 175    -0.474852767680E+03    0.29581E-02   -0.22143E+00  1400   0.751E-01    0.191E+00
DAV: 176    -0.474855651277E+03   -0.28836E-02   -0.22100E+00  1400   0.755E-01    0.204E+00
DAV: 177    -0.474852731641E+03    0.29196E-02   -0.22135E+00  1400   0.751E-01    0.191E+00
DAV: 178    -0.474855678275E+03   -0.29466E-02   -0.22106E+00  1400   0.755E-01    0.204E+00
DAV: 179    -0.474852776634E+03    0.29016E-02   -0.22145E+00  1400   0.751E-01    0.191E+00
DAV: 180    -0.474855684152E+03   -0.29075E-02   -0.22107E+00  1400   0.755E-01    0.204E+00
DAV: 181    -0.474852749876E+03    0.29343E-02   -0.22139E+00  1400   0.751E-01    0.191E+00
DAV: 182    -0.474855662949E+03   -0.29131E-02   -0.22102E+00  1400   0.755E-01    0.204E+00
DAV: 183    -0.474852756065E+03    0.29069E-02   -0.22141E+00  1400   0.751E-01    0.191E+00
DAV: 184    -0.474855678753E+03   -0.29227E-02   -0.22106E+00  1400   0.755E-01    0.204E+00
DAV: 185    -0.474852763032E+03    0.29157E-02   -0.22142E+00  1400   0.751E-01    0.191E+00
DAV: 186    -0.474855672938E+03   -0.29099E-02   -0.22104E+00  1400   0.755E-01    0.204E+00
DAV: 187    -0.474852754043E+03    0.29189E-02   -0.22140E+00  1400   0.751E-01    0.191E+00
DAV: 188    -0.474855669895E+03   -0.29159E-02   -0.22104E+00  1400   0.755E-01    0.204E+00
DAV: 189    -0.474852763313E+03    0.29066E-02   -0.22143E+00  1400   0.751E-01    0.191E+00
DAV: 190    -0.474855673743E+03   -0.29104E-02   -0.22105E+00  1400   0.755E-01    0.204E+00
DAV: 191    -0.474852758485E+03    0.29153E-02   -0.22142E+00  1400   0.751E-01    0.191E+00
DAV: 192    -0.474855668690E+03   -0.29102E-02   -0.22103E+00  1400   0.755E-01    0.204E+00
DAV: 193    -0.474852801369E+03    0.28673E-02   -0.22152E+00  1400   0.751E-01    0.191E+00
DAV: 194    -0.474855633123E+03   -0.28318E-02   -0.22095E+00  1400   0.755E-01    0.204E+00
DAV: 195    -0.474852790450E+03    0.28427E-02   -0.22150E+00  1400   0.751E-01    0.191E+00
DAV: 196    -0.474855648260E+03   -0.28578E-02   -0.22098E+00  1400   0.755E-01    0.204E+00
DAV: 197    -0.474852783400E+03    0.28649E-02   -0.22148E+00  1400   0.751E-01    0.191E+00
DAV: 198    -0.474855699174E+03   -0.29158E-02   -0.22110E+00  1400   0.755E-01    0.204E+00
DAV: 199    -0.474852423834E+03    0.32753E-02   -0.22045E+00  1400   0.751E-01    0.194E+00
DAV: 200    -0.474858564444E+03   -0.61406E-02   -0.22781E+00  1400   0.761E-01
   7 F= -.47485856E+03 E0= -.47479491E+03  d E =-.143524E-01
       N       E                     dE             d eps       ncg     rms          rms(c)
