 vasp.6.3.2 27Jun22 (build May 04 2024 18:40:40) complex                        
  
 executed on             LinuxIFC date 2024.09.03  09:39:10
 running on   48 total cores
 distrk:  each k-point on   48 cores,    1 groups
 distr:  one band on NCORE=  12 cores,    4 groups


--------------------------------------------------------------------------------------------------------


 INCAR:
   SYSTEM = slab_Cel1-OPT
   ISTART = 0
   ICHARG = 2
   LWAVE = .F.
   LAECHG = .F.
   LCHARG = .F.
   LELF = .False.
   ENCUT = 400
   PREC = N
   NELM = 200
   ALGO = N
   ISMEAR = 0
   SIGMA = 0.1
   EDIFF = 1E-5
   IBRION = 2
   POTIM = 0.1
   EDIFFG = -0.05
   ISIF = 3
   NSW = 1000
   LDIPOL = .True.
   IDIPOL = 3
   LREAL = AUTO
   NCORE = 12

 POTCAR:    PAW_PBE C 08Apr2002                   
 POTCAR:    PAW_PBE N 08Apr2002                   
 POTCAR:    PAW_PBE Ni 02Aug2007                  
 POTCAR:    PAW_PBE C 08Apr2002                   
   SHA256 =  253f7b50bb8d59471dbedb8285d89021f4a42ed1a2c5d38a03a736e69125dd95 C/POTCAR              
   COPYR  = (c) Copyright 08Apr2002 Georg Kresse                                                    
   COPYR  = This file is part of the software VASP. Any use, copying, and all other rights are regul
   COPYR  = If you do not have a valid VASP license, you may not use, copy or distribute this file. 
   VRHFIN =C: s2p2                                                                                  
   LEXCH  = PE                                                                                      
   EATOM  =   147.1560 eV,   10.8157 Ry                                                             
                                                                                                    
   TITEL  = PAW_PBE C 08Apr2002                                                                     
   LULTRA =        F    use ultrasoft PP ?                                                          
   IUNSCR =        1    unscreen: 0-lin 1-nonlin 2-no                                               
   RPACOR =    1.200    partial core radius                                                         
   POMASS =   12.011; ZVAL   =    4.000    mass and valenz                                          
   RCORE  =    1.500    outmost cutoff radius                                                       
   RWIGS  =    1.630; RWIGS  =    0.863    wigner-seitz radius (au A)                               
   ENMAX  =  400.000; ENMIN  =  300.000 eV                                                          
   ICORE  =        2    local potential                                                             
   LCOR   =        T    correct aug charges                                                         
   LPAW   =        T    paw PP                                                                      
   EAUG   =  644.873                                                                                
   DEXC   =    0.000                                                                                
   RMAX   =    1.529    core radius for proj-oper                                                   
   RAUG   =    1.300    factor for augmentation sphere                                              
   RDEP   =    1.501    radius for radial grids                                                     
   RDEPT  =    1.300    core radius for aug-charge                                                  
                                                                                                    
   Atomic configuration                                                                             
    4 entries                                                                                       
     n  l   j            E        occ.                                                              
     1  0  0.50      -273.3789   2.0000                                                             
     2  0  0.50       -13.7508   2.0000                                                             
     2  1  0.50        -5.2854   2.0000                                                             
     3  2  1.50        -5.4423   0.0000                                                             
   Description                                                                                      
     l       E           TYP  RCUT    TYP  RCUT                                                     
     0    -13.7508458     23  1.200                                                                 
     0     -8.2022199     23  1.200                                                                 
     1     -5.2854383     23  1.500                                                                 
     1     34.0145650     23  1.500                                                                 
     2     -5.4423304      7  1.500                                                                 
  local pseudopotential read in
  partial core-charges read in
  partial kinetic energy density read in
  atomic valenz-charges read in
  non local Contribution for L=           0  read in
    real space projection operators read in
  non local Contribution for L=           0  read in
    real space projection operators read in
  non local Contribution for L=           1  read in
    real space projection operators read in
  non local Contribution for L=           1  read in
    real space projection operators read in
    PAW grid and wavefunctions read in
 
   number of l-projection  operators is LMAX  =           4
   number of lm-projection operators is LMMAX =           8
 
 POTCAR:    PAW_PBE N 08Apr2002                   
   SHA256 =  e053789ff3a61a86a1b75d8a110fcc91f86041011e7b0817c7c99e4e8a6349d7 N/POTCAR              
   COPYR  = (c) Copyright 08Apr2002 Georg Kresse                                                    
   COPYR  = This file is part of the software VASP. Any use, copying, and all other rights are regul
   COPYR  = If you do not have a valid VASP license, you may not use, copy or distribute this file. 
   VRHFIN =N: s2p3                                                                                  
   LEXCH  = PE                                                                                      
   EATOM  =   264.5486 eV,   19.4438 Ry                                                             
                                                                                                    
   TITEL  = PAW_PBE N 08Apr2002                                                                     
   LULTRA =        F    use ultrasoft PP ?                                                          
   IUNSCR =        1    unscreen: 0-lin 1-nonlin 2-no                                               
   RPACOR =    1.200    partial core radius                                                         
   POMASS =   14.001; ZVAL   =    5.000    mass and valenz                                          
   RCORE  =    1.500    outmost cutoff radius                                                       
   RWIGS  =    1.400; RWIGS  =    0.741    wigner-seitz radius (au A)                               
   ENMAX  =  400.000; ENMIN  =  300.000 eV                                                          
   ICORE  =        2    local potential                                                             
   LCOR   =        T    correct aug charges                                                         
   LPAW   =        T    paw PP                                                                      
   EAUG   =  627.112                                                                                
   DEXC   =    0.000                                                                                
   RMAX   =    1.529    core radius for proj-oper                                                   
   RAUG   =    1.300    factor for augmentation sphere                                              
   RDEP   =    1.514    radius for radial grids                                                     
   RDEPT  =    1.338    core radius for aug-charge                                                  
                                                                                                    
   Atomic configuration                                                                             
    4 entries                                                                                       
     n  l   j            E        occ.                                                              
     1  0  0.50      -384.7179   2.0000                                                             
     2  0  0.50       -18.5828   2.0000                                                             
     2  1  0.50        -7.0898   3.0000                                                             
     3  2  1.50        -6.8029   0.0000                                                             
   Description                                                                                      
     l       E           TYP  RCUT    TYP  RCUT                                                     
     0    -18.5828119     23  1.200                                                                 
     0    -13.5018863     23  1.200                                                                 
     1     -7.0897853     23  1.500                                                                 
     1      9.5240782     23  1.500                                                                 
     2     -6.8029130      7  1.500                                                                 
  local pseudopotential read in
  partial core-charges read in
  partial kinetic energy density read in
  atomic valenz-charges read in
  non local Contribution for L=           0  read in
    real space projection operators read in
  non local Contribution for L=           0  read in
    real space projection operators read in
  non local Contribution for L=           1  read in
    real space projection operators read in
  non local Contribution for L=           1  read in
    real space projection operators read in
    PAW grid and wavefunctions read in
 
   number of l-projection  operators is LMAX  =           4
   number of lm-projection operators is LMMAX =           8
 
 POTCAR:    PAW_PBE Ni 02Aug2007                  
   SHA256 =  0534bc51ca8003dfef23f56753fef9fdd3e22eac8d719fccacb59f3e6b7a69c7 Ni/POTCAR             
   COPYR  = (c) Copyright 02Aug2007 Georg Kresse                                                    
   COPYR  = This file is part of the software VASP. Any use, copying, and all other rights are regul
   COPYR  = If you do not have a valid VASP license, you may not use, copy or distribute this file. 
   VRHFIN =Ni:                                                                                      
   LEXCH  = PE                                                                                      
   EATOM  =  1077.6739 eV,   79.2068 Ry                                                             
                                                                                                    
   TITEL  = PAW_PBE Ni 02Aug2007                                                                    
   LULTRA =        F    use ultrasoft PP ?                                                          
   IUNSCR =        1    unscreen: 0-lin 1-nonlin 2-no                                               
   RPACOR =    2.000    partial core radius                                                         
   POMASS =   58.690; ZVAL   =   10.000    mass and valenz                                          
   RCORE  =    2.300    outmost cutoff radius                                                       
   RWIGS  =    2.430; RWIGS  =    1.286    wigner-seitz radius (au A)                               
   ENMAX  =  269.532; ENMIN  =  202.149 eV                                                          
   RCLOC  =    1.201    cutoff for local pot                                                        
   LCOR   =        T    correct aug charges                                                         
   LPAW   =        T    paw PP                                                                      
   EAUG   =  544.565                                                                                
   DEXC   =    0.000                                                                                
   RMAX   =    2.357    core radius for proj-oper                                                   
   RAUG   =    1.300    factor for augmentation sphere                                              
   RDEP   =    2.390    radius for radial grids                                                     
   RDEPT  =    1.838    core radius for aug-charge                                                  
                                                                                                    
   Atomic configuration                                                                             
    9 entries                                                                                       
     n  l   j            E        occ.                                                              
     1  0  0.50     -8206.4253   2.0000                                                             
     2  0  0.50      -976.1748   2.0000                                                             
     2  1  1.50      -839.0571   6.0000                                                             
     3  0  0.50      -105.9991   2.0000                                                             
     3  1  1.50       -66.4603   6.0000                                                             
     3  2  2.50        -4.6458   9.0000                                                             
     4  0  0.50        -4.4926   1.0000                                                             
     4  1  1.50        -4.0817   0.0000                                                             
     4  3  2.50        -1.3606   0.0000                                                             
   Description                                                                                      
     l       E           TYP  RCUT    TYP  RCUT                                                     
     2     -4.6457903     23  2.300                                                                 
     2     -6.0063729     23  2.300                                                                 
     0     -4.4925590     23  2.300                                                                 
     0      5.0102601     23  2.300                                                                 
     1     -2.7211652     23  2.300                                                                 
     1     16.5183231     23  2.300                                                                 
  local pseudopotential read in
  partial core-charges read in
  partial kinetic energy density read in
  atomic valenz-charges read in
  non local Contribution for L=           2  read in
    real space projection operators read in
  non local Contribution for L=           2  read in
    real space projection operators read in
  non local Contribution for L=           0  read in
    real space projection operators read in
  non local Contribution for L=           0  read in
    real space projection operators read in
  non local Contribution for L=           1  read in
    real space projection operators read in
  non local Contribution for L=           1  read in
    real space projection operators read in
    PAW grid and wavefunctions read in
 
   number of l-projection  operators is LMAX  =           6
   number of lm-projection operators is LMMAX =          18
 
 Optimization of the real space projectors (new method)

 maximal supplied QI-value         = 25.13
 optimisation between [QCUT,QGAM] = [ 10.05, 20.36] = [ 28.30,116.06] Ry 
 Optimized for a Real-space Cutoff    1.30 Angstroem

   l    n(q)    QCUT    max X(q) W(low)/X(q) W(high)/X(q)  e(spline) 
   0      8    10.053   115.676    0.49E-03    0.72E-03    0.18E-06
   0      8    10.053    87.132    0.49E-03    0.71E-03    0.18E-06
   1      7    10.053     4.429    0.32E-03    0.31E-03    0.18E-06
   1      7    10.053     2.733    0.23E-03    0.19E-03    0.20E-06
 Optimization of the real space projectors (new method)

 maximal supplied QI-value         = 25.13
 optimisation between [QCUT,QGAM] = [ 10.05, 20.36] = [ 28.30,116.06] Ry 
 Optimized for a Real-space Cutoff    1.65 Angstroem

   l    n(q)    QCUT    max X(q) W(low)/X(q) W(high)/X(q)  e(spline) 
   0     10    10.053    79.467    0.76E-04    0.72E-04    0.56E-06
   0     10    10.053    66.151    0.76E-04    0.72E-04    0.55E-06
   1     10    10.053     8.350    0.25E-03    0.92E-03    0.41E-05
   1     10    10.053     5.531    0.27E-03    0.10E-02    0.45E-05
 Optimization of the real space projectors (new method)

 maximal supplied QI-value         = 16.25
 optimisation between [QCUT,QGAM] = [ 10.24, 20.48] = [ 29.35,117.42] Ry 
 Optimized for a Real-space Cutoff    1.34 Angstroem

   l    n(q)    QCUT    max X(q) W(low)/X(q) W(high)/X(q)  e(spline) 
   2      7    10.239    60.317    0.39E-03    0.10E-02    0.10E-06
   2      7    10.239    55.921    0.39E-03    0.10E-02    0.11E-06
   0      8    10.239    51.690    0.45E-03    0.17E-03    0.10E-06
   0      8    10.239    30.015    0.41E-03    0.16E-03    0.90E-07
   1      8    10.239    18.849    0.23E-03    0.62E-03    0.14E-06
   1      8    10.239    14.624    0.18E-03    0.51E-03    0.12E-06
  PAW_PBE C 08Apr2002                   :
 energy of atom  1       EATOM= -147.1560
 kinetic energy error for atom=    0.0288 (will be added to EATOM!!)
  PAW_PBE N 08Apr2002                   :
 energy of atom  2       EATOM= -264.5486
 kinetic energy error for atom=    0.0736 (will be added to EATOM!!)
  PAW_PBE Ni 02Aug2007                  :
 energy of atom  3       EATOM=-1077.6739
 kinetic energy error for atom=    0.0101 (will be added to EATOM!!)
 
 
 POSCAR: C  N  Ni
  positions in cartesian coordinates
  No initial velocities read in
 exchange correlation table for  LEXCH =        8
   RHO(1)=    0.500       N(1)  =     2000
   RHO(2)=  100.500       N(2)  =     4000

 VTST: version 4.2, (08/11/21)

 CHAIN: initializing optimizer
 
 OPT: Using VASP Conjugate-Gradient optimizer
 CHAIN: Read ICHAIN            0
 
 POSCAR: C  N  Ni
  positions in cartesian coordinates
  No initial velocities read in
 


--------------------------------------------------------------------------------------------------------


 ion  position               nearest neighbor table
   1  0.066  0.404  0.133-  25 1.33  27 1.33  31 1.39
   2  0.981  0.234  0.133-  29 1.32  26 1.33  31 1.39
   3  0.226  0.398  0.133-  30 1.33  27 1.33  40 1.48
   4  0.816  0.576  0.134-  44 1.33  45 1.35  32 1.45
   5  0.150  0.234  0.133-  28 1.32  30 1.33  31 1.39
   6  0.905  0.398  0.133-  26 1.33  25 1.33  32 1.47
   7  0.566  0.401  0.133-  35 1.33  33 1.33  39 1.37
   8  0.480  0.233  0.133-  37 1.32  34 1.33  39 1.40
   9  0.727  0.398  0.133-  38 1.33  35 1.35  32 1.45
  10  0.315  0.576  0.134-  53 1.33  52 1.35  40 1.45
  11  0.651  0.233  0.133-  36 1.32  38 1.33  39 1.40
  12  0.404  0.398  0.134-  34 1.33  33 1.35  40 1.45
  13  0.816  0.905  0.133-  43 1.32  41 1.33  47 1.40
  14  0.733  0.736  0.133-  45 1.33  42 1.33  47 1.37
  15  0.977  0.898  0.133-  46 1.34  43 1.34  56 1.46
  16  0.901  0.734  0.133-  46 1.32  44 1.33  47 1.40
  17  0.654  0.899  0.134-  41 1.33  42 1.35  48 1.45
  18  0.315  0.905  0.133-  49 1.32  51 1.33  55 1.40
  19  0.230  0.734  0.133-  50 1.32  53 1.33  55 1.40
  20  0.477  0.899  0.134-  51 1.33  54 1.35  48 1.45
  21  0.398  0.736  0.133-  52 1.33  54 1.33  55 1.37
  22  0.154  0.899  0.133-  50 1.34  49 1.34  56 1.46
  23  0.065  0.077  0.133-  29 1.33  28 1.33  56 1.46
  24  0.566  0.076  0.133-  37 1.34  36 1.34  48 1.46
  25  0.984  0.457  0.133-   1 1.33   6 1.33
  26  0.901  0.290  0.133-   2 1.33   6 1.33
  27  0.147  0.457  0.133-   1 1.33   3 1.33
  28  0.149  0.127  0.133-   5 1.32  23 1.33
  29  0.982  0.127  0.133-   2 1.32  23 1.33
  30  0.231  0.290  0.133-   5 1.33   3 1.33
  31  0.066  0.291  0.133-   1 1.39   5 1.39   2 1.39
  32  0.815  0.458  0.133-   4 1.45   9 1.45   6 1.47
  33  0.485  0.456  0.134-   7 1.33  12 1.35  57 2.36
  34  0.401  0.290  0.134-   8 1.33  12 1.33
  35  0.646  0.456  0.134-   7 1.33   9 1.35  57 2.38
  36  0.649  0.126  0.133-  11 1.32  24 1.34
  37  0.482  0.126  0.133-   8 1.32  24 1.34
  38  0.730  0.290  0.134-  11 1.33   9 1.33
  39  0.566  0.290  0.133-   7 1.37   8 1.40  11 1.40
  40  0.316  0.458  0.133-  10 1.45  12 1.45   3 1.48
  41  0.734  0.956  0.134-  13 1.33  17 1.33
  42  0.652  0.789  0.134-  14 1.33  17 1.35  57 2.38
  43  0.897  0.957  0.133-  13 1.32  15 1.34
  44  0.898  0.627  0.134-  16 1.33   4 1.33
  45  0.732  0.628  0.134-  14 1.33   4 1.35  57 2.39
  46  0.981  0.790  0.133-  16 1.32  15 1.34
  47  0.816  0.792  0.133-  14 1.37  13 1.40  16 1.40
  48  0.565  0.957  0.133-  20 1.45  17 1.45  24 1.46
  49  0.234  0.957  0.133-  18 1.32  22 1.34
  50  0.150  0.790  0.133-  19 1.32  22 1.34
  51  0.397  0.956  0.134-  18 1.33  20 1.33
  52  0.399  0.629  0.134-  21 1.33  10 1.35  57 2.35
  53  0.233  0.627  0.134-  19 1.33  10 1.33
  54  0.479  0.789  0.134-  21 1.33  20 1.35  57 2.36
  55  0.314  0.792  0.133-  21 1.37  18 1.40  19 1.40
  56  0.065  0.958  0.133-  22 1.46  15 1.46  23 1.46
  57  0.564  0.624  0.137-  52 2.35  33 2.36  54 2.36  42 2.38  35 2.38  45 2.39
 
  LATTYP: Found a simple orthorhombic cell.
 ALAT       =    12.3019443187
 B/A-ratio  =     1.1547820380
 C/A-ratio  =     1.2193194516
  
  Lattice vectors:
  
 A1 = (   0.0000000000, -12.3019443187,   0.0000000000)
 A2 = (  14.2060643322,   0.0000000000,   0.0000000000)
 A3 = (   0.0000000000,   0.0000000000,  15.0000000000)


Analysis of symmetry for initial positions (statically):
=====================================================================
 Subroutine PRICEL returns:
 Original cell was already a primitive cell.
 

 Routine SETGRP: Setting up the symmetry group for a 
 simple orthorhombic supercell.


 Subroutine GETGRP returns: Found  1 space group operations
 (whereof  1 operations were pure point group operations)
 out of a pool of  8 trial point group operations.


The static configuration has the point symmetry C_1 .


Analysis of symmetry for dynamics (positions and initial velocities):
=====================================================================
 Subroutine PRICEL returns:
 Original cell was already a primitive cell.
 

 Routine SETGRP: Setting up the symmetry group for a 
 simple orthorhombic supercell.


 Subroutine GETGRP returns: Found  1 space group operations
 (whereof  1 operations were pure point group operations)
 out of a pool of  8 trial point group operations.


The dynamic configuration has the point symmetry C_1 .


 Subroutine INISYM returns: Found  1 space group operations
 (whereof  1 operations are pure point group operations),
 and found     1 'primitive' translations


----------------------------------------------------------------------------------------

                                     Primitive cell                                     

  volume of cell :    2621.4332

  direct lattice vectors                    reciprocal lattice vectors
    14.206064332  0.000000000  0.000000000     0.070392473  0.000000000  0.000000000
     0.000000000 12.301944319  0.000000000     0.000000000  0.081287963  0.000000000
     0.000000000  0.000000000 15.000000000     0.000000000  0.000000000  0.066666667

  length of vectors
    14.206064332 12.301944319 15.000000000     0.070392473  0.081287963  0.066666667

  position of ions in fractional coordinates (direct lattice)
     0.065529235  0.404282237  0.133328831
     0.980735063  0.234486534  0.133312505
     0.225968488  0.398007423  0.133326927
     0.815677134  0.575981502  0.133532706
     0.150327391  0.234489072  0.133307555
     0.905105668  0.398012154  0.133328883
     0.565636000  0.400604596  0.133292902
     0.480032749  0.233399150  0.133191182
     0.726999594  0.398166055  0.133491426
     0.315303449  0.576044428  0.133527046
     0.651138453  0.233328856  0.133187340
     0.404179461  0.398309286  0.133528911
     0.815931831  0.905241227  0.133221785
     0.733126834  0.736133884  0.133367616
     0.976534045  0.898492509  0.133309971
     0.901300943  0.734284177  0.133173972
     0.654360767  0.898693939  0.133519079
     0.314963862  0.905446831  0.133200544
     0.229581881  0.734364644  0.133160120
     0.476521177  0.898895762  0.133500490
     0.397654077  0.736413117  0.133290114
     0.154351035  0.898550683  0.133325631
     0.065476293  0.076898475  0.133313670
     0.565525173  0.076362738  0.133314068
     0.983860967  0.456732302  0.133316568
     0.900513234  0.290052123  0.133280115
     0.147218914  0.456730850  0.133304340
     0.148799782  0.126829434  0.133286961
     0.982170530  0.126819644  0.133295271
     0.230593732  0.290044664  0.133283595
     0.065531261  0.291231028  0.133349583
     0.815214505  0.457923502  0.133370479
     0.485379059  0.455962223  0.133727606
     0.400765775  0.290455134  0.133597090
     0.645890395  0.455834349  0.133688615
     0.649158742  0.126118557  0.133419558
     0.481927033  0.126180434  0.133408328
     0.730446883  0.290290815  0.133578592
     0.565590134  0.289633462  0.132592387
     0.315901674  0.458006144  0.133387856
     0.733551173  0.956139981  0.133617287
     0.651569445  0.788863889  0.133722144
     0.897217997  0.957091439  0.133441068
     0.898348406  0.626533913  0.133512795
     0.731943047  0.628297315  0.133848471
     0.980717750  0.789927915  0.133385637
     0.816444021  0.791705291  0.132653305
     0.565463827  0.957298147  0.133351265
     0.233655124  0.957193320  0.133468823
     0.150161843  0.789980794  0.133438657
     0.397333924  0.956353629  0.133639266
     0.399002064  0.628553289  0.133811538
     0.232638641  0.626608723  0.133556841
     0.479195328  0.789086106  0.133666598
     0.314416586  0.791891828  0.132532095
     0.065443803  0.957877428  0.133311231
     0.564130240  0.624365632  0.137312762

  ion indices of the primitive-cell ions
   primitive index   ion index
                 1           1
                 2           2
                 3           3
                 4           4
                 5           5
                 6           6
                 7           7
                 8           8
                 9           9
                10          10
                11          11
                12          12
                13          13
                14          14
                15          15
                16          16
                17          17
                18          18
                19          19
                20          20
                21          21
                22          22
                23          23
                24          24
                25          25
                26          26
                27          27
                28          28
                29          29
                30          30
                31          31
                32          32
                33          33
                34          34
                35          35
                36          36
                37          37
                38          38
                39          39
                40          40
                41          41
                42          42
                43          43
                44          44
                45          45
                46          46
                47          47
                48          48
                49          49
                50          50
                51          51
                52          52
                53          53
                54          54
                55          55
                56          56
                57          57

----------------------------------------------------------------------------------------

 
 
 KPOINTS: K-POINTS                                

Automatic generation of k-mesh.
 Grid dimensions read from file:
 generate k-points for:    2    2    1

 Generating k-lattice:

  Cartesian coordinates                     Fractional coordinates (reciprocal lattice)
     0.035196237  0.000000000  0.000000000     0.500000000  0.000000000  0.000000000
     0.000000000  0.040643982  0.000000000     0.000000000  0.500000000  0.000000000
     0.000000000  0.000000000  0.066666667     0.000000000  0.000000000  1.000000000

  Length of vectors
     0.035196237  0.040643982  0.066666667

  Shift w.r.t. Gamma in fractional coordinates (k-lattice)
     0.000000000  0.000000000  0.000000000

 
 Subroutine IBZKPT returns following result:
 ===========================================
 
 Found      4 irreducible k-points:
 
 Following reciprocal coordinates:
            Coordinates               Weight
  0.000000  0.000000  0.000000      1.000000
  0.500000  0.000000  0.000000      1.000000
  0.000000  0.500000  0.000000      1.000000
  0.500000  0.500000  0.000000      1.000000
 
 Following cartesian coordinates:
            Coordinates               Weight
  0.000000  0.000000  0.000000      1.000000
  0.035196  0.000000  0.000000      1.000000
  0.000000  0.040644  0.000000      1.000000
  0.035196  0.040644  0.000000      1.000000
 


--------------------------------------------------------------------------------------------------------




 Dimension of arrays:
   k-points           NKPTS =      4   k-points in BZ     NKDIM =      4   number of bands    NBANDS=    164
   number of dos      NEDOS =    301   number of ions     NIONS =     57
   non local maximal  LDIM  =      6   non local SUM 2l+1 LMDIM =     18
   total plane-waves  NPLWV = 336000
   max r-space proj   IRMAX =   2454   max aug-charges    IRDMAX=   4354
   dimension x,y,z NGX =    70 NGY =   60 NGZ =   80
   dimension x,y,z NGXF=   140 NGYF=  120 NGZF=  160
   support grid    NGXF=   140 NGYF=  120 NGZF=  160
   ions per type =              24  32   1
   NGX,Y,Z   is equivalent  to a cutoff of   8.19,  8.11,  8.87 a.u.
   NGXF,Y,Z  is equivalent  to a cutoff of  16.38, 16.22, 17.73 a.u.

 SYSTEM =  slab_Cel1-OPT                           
 POSCAR =  C  N  Ni                                

 Startparameter for this run:
   NWRITE =      2    write-flag & timer
   PREC   = n         normal or accurate (medium, high low for compatibility)
   ISTART =      0    job   : 0-new  1-cont  2-samecut
   ICHARG =      2    charge: 1-file 2-atom 10-const
   ISPIN  =      1    spin polarized calculation?
   LNONCOLLINEAR =      F non collinear calculations
   LSORBIT =      F    spin-orbit coupling
   INIWAV =      1    electr: 0-lowe 1-rand  2-diag
   LASPH  =      F    aspherical Exc in radial PAW
 Electronic Relaxation 1
   ENCUT  =  400.0 eV  29.40 Ry    5.42 a.u.  23.17 20.06 24.46*2*pi/ulx,y,z
   ENINI  =  400.0     initial cutoff
   ENAUG  =  644.9 eV  augmentation charge cutoff
   NELM   =    200;   NELMIN=  2; NELMDL= -5     # of ELM steps 
   EDIFF  = 0.1E-04   stopping-criterion for ELM
   LREAL  =      T    real-space projection
   NLSPLINE    = F    spline interpolate recip. space projectors
   LCOMPAT=      F    compatible to vasp.4.4
   GGA_COMPAT  = T    GGA compatible to vasp.4.4-vasp.4.6
   LMAXPAW     = -100 max onsite density
   LMAXMIX     =    2 max onsite mixed and CHGCAR
   VOSKOWN=      0    Vosko Wilk Nusair interpolation
   ROPT   =   -0.00050  -0.00050  -0.00050
 Ionic relaxation
   EDIFFG = -.5E-01   stopping-criterion for IOM
   NSW    =   1000    number of steps for IOM
   NBLOCK =      1;   KBLOCK =   1000    inner block; outer block 
   IBRION =      2    ionic relax: 0-MD 1-quasi-New 2-CG
   NFREE  =      1    steps in history (QN), initial steepest desc. (CG)
   ISIF   =      3    stress and relaxation
   IWAVPR =     11    prediction:  0-non 1-charg 2-wave 3-comb
   ISYM   =      2    0-nonsym 1-usesym 2-fastsym
   LCORR  =      T    Harris-Foulkes like correction to forces

   POTIM  = 0.1000    time-step for ionic-motion
   TEIN   =    0.0    initial temperature
   TEBEG  =    0.0;   TEEND  =   0.0 temperature during run
   SMASS  =  -3.00    Nose mass-parameter (am)
   estimated Nose-frequenzy (Omega)   =  0.10E-29 period in steps = 0.63E+47 mass=  -0.461E-26a.u.
   SCALEE = 1.0000    scale energy and forces
   NPACO  =    256;   APACO  = 10.0  distance and # of slots for P.C.
   PSTRESS=    0.0 pullay stress

  Mass of Ions in am
   POMASS =  12.01 14.00 58.69
  Ionic Valenz
   ZVAL   =   4.00  5.00 10.00
  Atomic Wigner-Seitz radii
   RWIGS  =  -1.00 -1.00 -1.00
  virtual crystal weights 
   VCA    =   1.00  1.00  1.00
   NELECT =     266.0000    total number of electrons
   NUPDOWN=      -1.0000    fix difference up-down

 DOS related values:
   EMIN   =  10.00;   EMAX   =-10.00  energy-range for DOS
   EFERMI =   0.00
   ISMEAR =     0;   SIGMA  =   0.10  broadening in eV -4-tet -1-fermi 0-gaus

 Electronic relaxation 2 (details)
   IALGO  =     38    algorithm
   LDIAG  =      T    sub-space diagonalisation (order eigenvalues)
   LSUBROT=      F    optimize rotation matrix (better conditioning)
   TURBO    =      0    0=normal 1=particle mesh
   IRESTART =      0    0=no restart 2=restart with 2 vectors
   NREBOOT  =      0    no. of reboots
   NMIN     =      0    reboot dimension
   EREF     =   0.00    reference energy to select bands
   IMIX   =      4    mixing-type and parameters
     AMIX     =   0.40;   BMIX     =  1.00
     AMIX_MAG =   1.60;   BMIX_MAG =  1.00
     AMIN     =   0.10
     WC   =   100.;   INIMIX=   1;  MIXPRE=   1;  MAXMIX= -45

 Intra band minimization:
   WEIMIN = 0.0010     energy-eigenvalue tresh-hold
   EBREAK =  0.15E-07  absolut break condition
   DEPER  =   0.30     relativ break condition  

   TIME   =   0.40     timestep for ELM

  volume/ion in A,a.u.               =      45.99       310.36
  Fermi-wavevector in a.u.,A,eV,Ry     =   0.763582  1.442961  7.932982  0.583058
  Thomas-Fermi vector in A             =   1.863296
 
 Write flags
   LWAVE        =      F    write WAVECAR
   LDOWNSAMPLE  =      F    k-point downsampling of WAVECAR
   LCHARG       =      F    write CHGCAR
   LVTOT        =      F    write LOCPOT, total local potential
   LVHAR        =      F    write LOCPOT, Hartree potential only
   LELF         =      F    write electronic localiz. function (ELF)
   LORBIT       =      0    0 simple, 1 ext, 2 COOP (PROOUT), +10 PAW based schemes


 Dipole corrections
   LMONO  =      F    monopole corrections only (constant potential shift)
   LDIPOL =      T    correct potential (dipole corrections)
   IDIPOL =      3    1-x, 2-y, 3-z, 4-all directions 
   EPSILON=  1.0000000 bulk dielectric constant

 Exchange correlation treatment:
   GGA     =    --    GGA type
   LEXCH   =     8    internal setting for exchange type
   LIBXC   =     F    Libxc                    
   VOSKOWN =     0    Vosko Wilk Nusair interpolation
   LHFCALC =     F    Hartree Fock is set to
   LHFONE  =     F    Hartree Fock one center treatment
   AEXX    =    0.0000 exact exchange contribution

 Linear response parameters
   LEPSILON=     F    determine dielectric tensor
   LRPA    =     F    only Hartree local field effects (RPA)
   LNABLA  =     F    use nabla operator in PAW spheres
   LVEL    =     F    velocity operator in full k-point grid
   CSHIFT  =0.1000    complex shift for real part using Kramers Kronig
   OMEGAMAX=  -1.0    maximum frequency
   DEG_THRESHOLD= 0.2000000E-02 threshold for treating states as degnerate
   RTIME   =   -0.100 relaxation time in fs
  (WPLASMAI=    0.000 imaginary part of plasma frequency in eV, 0.658/RTIME)
   DFIELD  = 0.0000000 0.0000000 0.0000000 field for delta impulse in time
 
  Optional k-point grid parameters
   LKPOINTS_OPT  =     F    use optional k-point grid
   KPOINTS_OPT_MODE=     1    mode for optional k-point grid
 
 Orbital magnetization related:
   ORBITALMAG=     F  switch on orbital magnetization
   LCHIMAG   =     F  perturbation theory with respect to B field
   DQ        =  0.001000  dq finite difference perturbation B field
   LLRAUG    =     F  two centre corrections for induced B field



--------------------------------------------------------------------------------------------------------


 conjugate gradient relaxation of ions
 charge density and potential will be updated during run
 non-spin polarized calculation
 Variant of blocked Davidson
 Davidson routine will perform the subspace rotation
 perform sub-space diagonalisation
    after iterative eigenvector-optimisation
 modified Broyden-mixing scheme, WC =      100.0
 initial mixing is a Kerker type mixing with AMIX =  0.4000 and BMIX =      1.0000
 Hartree-type preconditioning will be used
 using additional bands           31
 real space projection scheme for non local part
 use partial core corrections
 calculate Harris-corrections to forces 
   (improved forces if not selfconsistent)
 use gradient corrections 
 use of overlap-Matrix (Vanderbilt PP)
 Gauss-broadening in eV      SIGMA  =   0.10


--------------------------------------------------------------------------------------------------------


  energy-cutoff  :      400.00
  volume of cell :     2621.43
      direct lattice vectors                 reciprocal lattice vectors
    14.206064332  0.000000000  0.000000000     0.070392473  0.000000000  0.000000000
     0.000000000 12.301944319  0.000000000     0.000000000  0.081287963  0.000000000
     0.000000000  0.000000000 15.000000000     0.000000000  0.000000000  0.066666667

  length of vectors
    14.206064332 12.301944319 15.000000000     0.070392473  0.081287963  0.066666667


 
 k-points in units of 2pi/SCALE and weight: K-POINTS                                
   0.00000000  0.00000000  0.00000000       0.250
   0.03519624  0.00000000  0.00000000       0.250
   0.00000000  0.04064398  0.00000000       0.250
   0.03519624  0.04064398  0.00000000       0.250
 
 k-points in reciprocal lattice and weights: K-POINTS                                
   0.00000000  0.00000000  0.00000000       0.250
   0.50000000  0.00000000  0.00000000       0.250
   0.00000000  0.50000000  0.00000000       0.250
   0.50000000  0.50000000  0.00000000       0.250
 
 position of ions in fractional coordinates (direct lattice) 
   0.06552924  0.40428224  0.13332883
   0.98073506  0.23448653  0.13331251
   0.22596849  0.39800742  0.13332693
   0.81567713  0.57598150  0.13353271
   0.15032739  0.23448907  0.13330756
   0.90510567  0.39801215  0.13332888
   0.56563600  0.40060460  0.13329290
   0.48003275  0.23339915  0.13319118
   0.72699959  0.39816605  0.13349143
   0.31530345  0.57604443  0.13352705
   0.65113845  0.23332886  0.13318734
   0.40417946  0.39830929  0.13352891
   0.81593183  0.90524123  0.13322179
   0.73312683  0.73613388  0.13336762
   0.97653404  0.89849251  0.13330997
   0.90130094  0.73428418  0.13317397
   0.65436077  0.89869394  0.13351908
   0.31496386  0.90544683  0.13320054
   0.22958188  0.73436464  0.13316012
   0.47652118  0.89889576  0.13350049
   0.39765408  0.73641312  0.13329011
   0.15435104  0.89855068  0.13332563
   0.06547629  0.07689847  0.13331367
   0.56552517  0.07636274  0.13331407
   0.98386097  0.45673230  0.13331657
   0.90051323  0.29005212  0.13328011
   0.14721891  0.45673085  0.13330434
   0.14879978  0.12682943  0.13328696
   0.98217053  0.12681964  0.13329527
   0.23059373  0.29004466  0.13328360
   0.06553126  0.29123103  0.13334958
   0.81521451  0.45792350  0.13337048
   0.48537906  0.45596222  0.13372761
   0.40076577  0.29045513  0.13359709
   0.64589040  0.45583435  0.13368861
   0.64915874  0.12611856  0.13341956
   0.48192703  0.12618043  0.13340833
   0.73044688  0.29029081  0.13357859
   0.56559013  0.28963346  0.13259239
   0.31590167  0.45800614  0.13338786
   0.73355117  0.95613998  0.13361729
   0.65156945  0.78886389  0.13372214
   0.89721800  0.95709144  0.13344107
   0.89834841  0.62653391  0.13351279
   0.73194305  0.62829732  0.13384847
   0.98071775  0.78992791  0.13338564
   0.81644402  0.79170529  0.13265331
   0.56546383  0.95729815  0.13335126
   0.23365512  0.95719332  0.13346882
   0.15016184  0.78998079  0.13343866
   0.39733392  0.95635363  0.13363927
   0.39900206  0.62855329  0.13381154
   0.23263864  0.62660872  0.13355684
   0.47919533  0.78908611  0.13366660
   0.31441659  0.79189183  0.13253209
   0.06544380  0.95787743  0.13331123
   0.56413024  0.62436563  0.13731276
 
 position of ions in cartesian coordinates  (Angst):
   0.93091253  4.97345757  1.99993246
  13.93238540  2.88464028  1.99968758
   3.21012288  4.89626515  1.99990391
  11.58756184  7.08569236  2.00299060
   2.13556059  2.88467151  1.99961333
  12.85798934  4.89632336  1.99993325
   8.03546141  4.92821543  1.99939354
   6.81937611  2.87126335  1.99786773
  10.32780300  4.89821664  2.00237138
   4.47922107  7.08646647  2.00290568
   9.25011475  2.87039860  1.99781009
   5.74179943  4.89997866  2.00293366
  11.59118008 11.13622717  1.99832678
  10.41484697  9.05587805  2.00051424
  13.87270546 11.05320482  1.99964956
  12.80393918  9.03312305  1.99760958
   9.29589115 11.05568280  2.00278619
   4.47439688 11.13875650  1.99800817
   3.26145497  9.03411296  1.99740180
   6.76949050 11.05816561  2.00250735
   5.64909941  9.05931316  1.99935171
   2.19272074 11.05392047  1.99988447
   0.93016043  0.94600075  1.99970505
   8.03388699  0.93941015  1.99971102
  13.97679220  5.61869535  1.99974852
  12.79274893  3.56820507  1.99920172
   2.09140136  5.61867749  1.99956510
   2.11385928  1.56024864  1.99930442
  13.95277773  1.56012820  1.99942906
   3.27582939  3.56811331  1.99925393
   0.93094132  3.58270789  2.00024375
  11.58098971  5.63334942  2.00055718
   6.89532614  5.60922188  2.00591409
   5.69330438  3.57316288  2.00395636
   9.17556051  5.60764878  2.00532922
   9.22199085  1.55150347  2.00129337
   6.84628644  1.55226467  2.00112492
  10.37677540  3.57114144  2.00367887
   8.03480983  3.56305472  1.98888580
   4.48771951  5.63436608  2.00081784
  10.42087515 11.76238081  2.00425930
   9.25623745  9.70455963  2.00583217
  12.74593658 11.77408559  2.00161602
  12.76199524  7.70758531  2.00269192
  10.39803001  7.72927859  2.00772706
  13.93213945  9.71764922  2.00078455
  11.59845628  9.73951441  1.98979958
   8.03301551 11.77662850  2.00026897
   3.31931973 11.77533893  2.00203234
   2.13320880  9.71829974  2.00157985
   5.64455129 11.76500909  2.00458900
   5.66824898  7.73242756  2.00717307
   3.30487950  7.70850563  2.00335261
   6.80747966  9.70729334  2.00499897
   4.46662225  9.74180917  1.98798142
   0.92969887 11.78375478  1.99966847
   8.01407048  7.68091124  2.05969143
 


--------------------------------------------------------------------------------------------------------


 k-point   1 :   0.0000 0.0000 0.0000  plane waves:   47567
 k-point   2 :   0.5000 0.0000 0.0000  plane waves:   47614
 k-point   3 :   0.0000 0.5000 0.0000  plane waves:   47620
 k-point   4 :   0.5000 0.5000 0.0000  plane waves:   47640

 maximum and minimum number of plane-waves per node :      3998     3933

 maximum number of plane-waves:     47640
 maximum index in each direction: 
   IXMAX=   23   IYMAX=   20   IZMAX=   24
   IXMIN=  -23   IYMIN=  -20   IZMIN=  -24


 real space projection operators:
  total allocation   :       6568.36 KBytes
  max/ min on nodes  :        578.69        465.39


 parallel 3D FFT for wavefunctions:
    minimum data exchange during FFTs selected (reduces bandwidth)
 parallel 3D FFT for charge:
    minimum data exchange during FFTs selected (reduces bandwidth)


 total amount of memory used by VASP MPI-rank0    51469. kBytes
=======================================================================

   base      :      30000. kBytes
   nonlr-proj:       3036. kBytes
   fftplans  :       2857. kBytes
   grid      :       4878. kBytes
   one-center:         77. kBytes
   wavefun   :      10621. kBytes
 
     INWAV:  cpu time      0.0000: real time      0.0002
 Broyden mixing: mesh for mixing (old mesh)
   NGX = 47   NGY = 41   NGZ = 49
  (NGX  =140   NGY  =120   NGZ  =160)
  gives a total of  94423 points

 initial charge density was supplied:
 charge density of overlapping atoms calculated
 number of electron     266.0000000 magnetization 
 keeping initial charge density in first step


--------------------------------------------------------------------------------------------------------


 Maximum index for non-local projection operator          236
 Maximum index for augmentation-charges          147 (set IRDMAX)


--------------------------------------------------------------------------------------------------------


 First call to EWALD:  gamma=   0.129
 Maximum number of real-space cells 3x 3x 3
 Maximum number of reciprocal cells 3x 3x 3

    FEWALD:  cpu time      0.0019: real time      0.0019


--------------------------------------- Iteration      1(   1)  ---------------------------------------


    POTLOK:  cpu time      0.0381: real time      0.0391
    SETDIJ:  cpu time      0.0049: real time      0.0054
     EDDAV:  cpu time      1.7014: real time      1.7030
       DOS:  cpu time      0.0008: real time      0.0008
    --------------------------------------------
      LOOP:  cpu time      1.7452: real time      1.7482

 eigenvalue-minimisations  :  1528
 total energy-change (2. order) : 0.2437584E+04  (-0.9302523E+04)
 number of electron     266.0000000 magnetization 
 augmentation part      266.0000000 magnetization 

 DIPCOR: dipole corrections for dipol
 direction  3 min pos   105,
 dipolmoment           0.000000      0.000000      0.000148 electrons x Angstroem
 Tr[quadrupol]     -8015.750126

 energy correction for charged system         0.000000 eV
 dipol+quadrupol energy correction           -0.000000 eV
 added-field ion interaction          0.000705 eV  (added to PSCEN)


 Free energy of the ion-electron system (eV)
  ---------------------------------------------------
  alpha Z        PSCENC =       125.16077288
  Ewald energy   TEWEN  =     27889.07788115
  -Hartree energ DENC   =    -38297.07657533
  -exchange      EXHF   =         0.00000000
  -V(xc)+E(xc)   XCENC  =       986.28277094
  PAW double counting   =     10125.32191863   -10243.94913705
  entropy T*S    EENTRO =        -0.10029292
  eigenvalues    EBANDS =     -1219.05086520
  atomic energy  EATOM  =     13071.91728729
  Solvation  Ediel_sol  =         0.00000000
  ---------------------------------------------------
  free energy    TOTEN  =      2437.58376041 eV

  energy without entropy =     2437.68405333  energy(sigma->0) =     2437.63390687


--------------------------------------------------------------------------------------------------------




--------------------------------------- Iteration      1(   2)  ---------------------------------------


     EDDAV:  cpu time      1.9344: real time      1.9348
       DOS:  cpu time      0.0006: real time      0.0005
    --------------------------------------------
      LOOP:  cpu time      1.9349: real time      1.9354

 eigenvalue-minimisations  :  1896
 total energy-change (2. order) :-0.2410981E+04  (-0.2292156E+04)
 number of electron     266.0000000 magnetization 
 augmentation part      266.0000000 magnetization 

 DIPCOR: dipole corrections for dipol
 direction  3 min pos   105,
 dipolmoment           0.000000      0.000000      0.000148 electrons x Angstroem
 Tr[quadrupol]     -8015.750126

 energy correction for charged system         0.000000 eV
 dipol+quadrupol energy correction           -0.000000 eV
 added-field ion interaction          0.000705 eV  (added to PSCEN)


 Free energy of the ion-electron system (eV)
  ---------------------------------------------------
  alpha Z        PSCENC =       125.16077288
  Ewald energy   TEWEN  =     27889.07788115
  -Hartree energ DENC   =    -38297.07657533
  -exchange      EXHF   =         0.00000000
  -V(xc)+E(xc)   XCENC  =       986.28277094
  PAW double counting   =     10125.32191863   -10243.94913705
  entropy T*S    EENTRO =        -0.00004060
  eigenvalues    EBANDS =     -3630.13256549
  atomic energy  EATOM  =     13071.91728729
  Solvation  Ediel_sol  =         0.00000000
  ---------------------------------------------------
  free energy    TOTEN  =        26.60231244 eV

  energy without entropy =       26.60235303  energy(sigma->0) =       26.60233274


--------------------------------------------------------------------------------------------------------




--------------------------------------- Iteration      1(   3)  ---------------------------------------


     EDDAV:  cpu time      1.6924: real time      1.6926
       DOS:  cpu time      0.0012: real time      0.0012
    --------------------------------------------
      LOOP:  cpu time      1.6936: real time      1.6938

 eigenvalue-minimisations  :  1600
 total energy-change (2. order) :-0.5228825E+03  (-0.5143883E+03)
 number of electron     266.0000000 magnetization 
 augmentation part      266.0000000 magnetization 

 DIPCOR: dipole corrections for dipol
 direction  3 min pos   105,
 dipolmoment           0.000000      0.000000      0.000148 electrons x Angstroem
 Tr[quadrupol]     -8015.750126

 energy correction for charged system         0.000000 eV
 dipol+quadrupol energy correction           -0.000000 eV
 added-field ion interaction          0.000705 eV  (added to PSCEN)


 Free energy of the ion-electron system (eV)
  ---------------------------------------------------
  alpha Z        PSCENC =       125.16077288
  Ewald energy   TEWEN  =     27889.07788115
  -Hartree energ DENC   =    -38297.07657533
  -exchange      EXHF   =         0.00000000
  -V(xc)+E(xc)   XCENC  =       986.28277094
  PAW double counting   =     10125.32191863   -10243.94913705
  entropy T*S    EENTRO =        -0.10178065
  eigenvalues    EBANDS =     -4152.91330780
  atomic energy  EATOM  =     13071.91728729
  Solvation  Ediel_sol  =         0.00000000
  ---------------------------------------------------
  free energy    TOTEN  =      -496.28016992 eV

  energy without entropy =     -496.17838927  energy(sigma->0) =     -496.22927960


--------------------------------------------------------------------------------------------------------




--------------------------------------- Iteration      1(   4)  ---------------------------------------


     EDDAV:  cpu time      1.6728: real time      1.6731
       DOS:  cpu time      0.0007: real time      0.0007
    --------------------------------------------
      LOOP:  cpu time      1.6736: real time      1.6739

 eigenvalue-minimisations  :  1528
 total energy-change (2. order) :-0.2275265E+02  (-0.2160765E+02)
 number of electron     266.0000000 magnetization 
 augmentation part      266.0000000 magnetization 

 DIPCOR: dipole corrections for dipol
 direction  3 min pos   105,
 dipolmoment           0.000000      0.000000      0.000148 electrons x Angstroem
 Tr[quadrupol]     -8015.750126

 energy correction for charged system         0.000000 eV
 dipol+quadrupol energy correction           -0.000000 eV
 added-field ion interaction          0.000705 eV  (added to PSCEN)


 Free energy of the ion-electron system (eV)
  ---------------------------------------------------
  alpha Z        PSCENC =       125.16077288
  Ewald energy   TEWEN  =     27889.07788115
  -Hartree energ DENC   =    -38297.07657533
  -exchange      EXHF   =         0.00000000
  -V(xc)+E(xc)   XCENC  =       986.28277094
  PAW double counting   =     10125.32191863   -10243.94913705
  entropy T*S    EENTRO =        -0.11614318
  eigenvalues    EBANDS =     -4175.65159402
  atomic energy  EATOM  =     13071.91728729
  Solvation  Ediel_sol  =         0.00000000
  ---------------------------------------------------
  free energy    TOTEN  =      -519.03281867 eV

  energy without entropy =     -518.91667550  energy(sigma->0) =     -518.97474709


--------------------------------------------------------------------------------------------------------




--------------------------------------- Iteration      1(   5)  ---------------------------------------


     EDDAV:  cpu time      1.9468: real time      1.9468
       DOS:  cpu time      0.0007: real time      0.0007
    CHARGE:  cpu time      0.0435: real time      0.0435
    MIXING:  cpu time      0.0020: real time      0.0022
    --------------------------------------------
      LOOP:  cpu time      1.9929: real time      1.9932

 eigenvalue-minimisations  :  1904
 total energy-change (2. order) :-0.1159995E+01  (-0.1137270E+01)
 number of electron     265.9999920 magnetization 
 augmentation part       12.1451349 magnetization 

 DIPCOR: dipole corrections for dipol
 direction  3 min pos   105,
 dipolmoment           0.000000      0.000000      0.000148 electrons x Angstroem
 Tr[quadrupol]     -8015.750126

 energy correction for charged system         0.000000 eV
 dipol+quadrupol energy correction           -0.000000 eV
 added-field ion interaction          0.000705 eV  (added to PSCEN)


 Broyden mixing:
  rms(total) = 0.76275E+01    rms(broyden)= 0.76251E+01
  rms(prec ) = 0.94737E+01
  weight for this iteration     100.00

 Free energy of the ion-electron system (eV)
  ---------------------------------------------------
  alpha Z        PSCENC =       125.16077288
  Ewald energy   TEWEN  =     27889.07788115
  -Hartree energ DENC   =    -38297.07657533
  -exchange      EXHF   =         0.00000000
  -V(xc)+E(xc)   XCENC  =       986.28277094
  PAW double counting   =     10125.32191863   -10243.94913705
  entropy T*S    EENTRO =        -0.11931932
  eigenvalues    EBANDS =     -4176.80841301
  atomic energy  EATOM  =     13071.91728729
  Solvation  Ediel_sol  =         0.00000000
  ---------------------------------------------------
  free energy    TOTEN  =      -520.19281381 eV

  energy without entropy =     -520.07349449  energy(sigma->0) =     -520.13315415


--------------------------------------------------------------------------------------------------------




--------------------------------------- Iteration      1(   6)  ---------------------------------------


    POTLOK:  cpu time      0.0305: real time      0.0307
    SETDIJ:  cpu time      0.0045: real time      0.0049
     EDDAV:  cpu time      1.9697: real time      1.9698
       DOS:  cpu time      0.0006: real time      0.0006
    CHARGE:  cpu time      0.0425: real time      0.0425
    MIXING:  cpu time      0.0017: real time      0.0017
    --------------------------------------------
      LOOP:  cpu time      2.0496: real time      2.0502

 eigenvalue-minimisations  :  1936
 total energy-change (2. order) :-0.2091389E+03  (-0.4056246E+02)
 number of electron     265.9999892 magnetization 
 augmentation part       15.2871624 magnetization 

 DIPCOR: dipole corrections for dipol
 direction  3 min pos    98,
 dipolmoment           0.000000      0.000000     -0.009991 electrons x Angstroem
 Tr[quadrupol]     -8016.901236

 energy correction for charged system         0.000000 eV
 dipol+quadrupol energy correction           -0.000004 eV
 added-field ion interaction          0.079010 eV  (added to PSCEN)


 Broyden mixing:
  rms(total) = 0.57125E+02    rms(broyden)= 0.57124E+02
  rms(prec ) = 0.57476E+02
  weight for this iteration     100.00

 eigenvalues of (default mixing * dielectric matrix)
  average eigenvalue GAMMA=   0.0263
  0.0263

 Free energy of the ion-electron system (eV)
  ---------------------------------------------------
  alpha Z        PSCENC =       125.23907412
  Ewald energy   TEWEN  =     27889.07788115
  -Hartree energ DENC   =    -38488.39850866
  -exchange      EXHF   =         0.00000000
  -V(xc)+E(xc)   XCENC  =       999.99755893
  PAW double counting   =     15634.51600689   -15713.78147588
  entropy T*S    EENTRO =        -0.10643163
  eigenvalues    EBANDS =     -4247.79307261
  atomic energy  EATOM  =     13071.91728729
  Solvation  Ediel_sol  =         0.00000000
  ---------------------------------------------------
  free energy    TOTEN  =      -729.33168039 eV

  energy without entropy =     -729.22524876  energy(sigma->0) =     -729.27846457


--------------------------------------------------------------------------------------------------------




--------------------------------------- Iteration      1(   7)  ---------------------------------------


    POTLOK:  cpu time      0.0294: real time      0.0296
    SETDIJ:  cpu time      0.0030: real time      0.0030
     EDDAV:  cpu time      1.8986: real time      1.8986
       DOS:  cpu time      0.0006: real time      0.0006
    CHARGE:  cpu time      0.0460: real time      0.0460
    MIXING:  cpu time      0.0013: real time      0.0013
    --------------------------------------------
      LOOP:  cpu time      1.9790: real time      1.9791

 eigenvalue-minimisations  :  1800
 total energy-change (2. order) :-0.2261512E+00  (-0.3034280E+02)
 number of electron     265.9999891 magnetization 
 augmentation part       14.2008271 magnetization 

 DIPCOR: dipole corrections for dipol
 direction  3 min pos    94,
 dipolmoment           0.000000      0.000000      0.019199 electrons x Angstroem
 Tr[quadrupol]     -8017.108715

 energy correction for charged system         0.000000 eV
 dipol+quadrupol energy correction           -0.000013 eV
 added-field ion interaction         -0.290986 eV  (added to PSCEN)


 Broyden mixing:
  rms(total) = 0.75160E+02    rms(broyden)= 0.75160E+02
  rms(prec ) = 0.75501E+02
  weight for this iteration     100.00

 eigenvalues of (default mixing * dielectric matrix)
  average eigenvalue GAMMA=   0.1350
  0.1893  0.0806

 Free energy of the ion-electron system (eV)
  ---------------------------------------------------
  alpha Z        PSCENC =       124.86906857
  Ewald energy   TEWEN  =     27889.07788115
  -Hartree energ DENC   =    -38497.44555911
  -exchange      EXHF   =         0.00000000
  -V(xc)+E(xc)   XCENC  =      1000.56575227
  PAW double counting   =     16921.32919069   -17003.64283105
  entropy T*S    EENTRO =        -0.12700439
  eigenvalues    EBANDS =     -4236.10161704
  atomic energy  EATOM  =     13071.91728729
  Solvation  Ediel_sol  =         0.00000000
  ---------------------------------------------------
  free energy    TOTEN  =      -729.55783161 eV

  energy without entropy =     -729.43082722  energy(sigma->0) =     -729.49432942


--------------------------------------------------------------------------------------------------------




--------------------------------------- Iteration      1(   8)  ---------------------------------------


    POTLOK:  cpu time      0.0302: real time      0.0315
    SETDIJ:  cpu time      0.0046: real time      0.0049
     EDDAV:  cpu time      1.6576: real time      1.6576
       DOS:  cpu time      0.0006: real time      0.0006
    CHARGE:  cpu time      0.0534: real time      0.0534
    MIXING:  cpu time      0.0012: real time      0.0012
    --------------------------------------------
      LOOP:  cpu time      1.7475: real time      1.7492

 eigenvalue-minimisations  :  1552
 total energy-change (2. order) : 0.4558330E+02  (-0.2054729E+01)
 number of electron     265.9999879 magnetization 
 augmentation part       14.4260369 magnetization 

 DIPCOR: dipole corrections for dipol
 direction  3 min pos    94,
 dipolmoment           0.000000      0.000000      0.026401 electrons x Angstroem
 Tr[quadrupol]     -8017.108682

 energy correction for charged system         0.000000 eV
 dipol+quadrupol energy correction           -0.000025 eV
 added-field ion interaction         -0.400139 eV  (added to PSCEN)


 Broyden mixing:
  rms(total) = 0.74932E+02    rms(broyden)= 0.74932E+02
  rms(prec ) = 0.75212E+02
  weight for this iteration     100.00

 eigenvalues of (default mixing * dielectric matrix)
  average eigenvalue GAMMA=   0.3896
  0.1713  0.4987  0.4987

 Free energy of the ion-electron system (eV)
  ---------------------------------------------------
  alpha Z        PSCENC =       124.75990390
  Ewald energy   TEWEN  =     27889.07788115
  -Hartree energ DENC   =    -38519.75105599
  -exchange      EXHF   =         0.00000000
  -V(xc)+E(xc)   XCENC  =      1002.32870480
  PAW double counting   =     16234.89193146   -16324.89152512
  entropy T*S    EENTRO =        -0.11438606
  eigenvalues    EBANDS =     -4162.19327608
  atomic energy  EATOM  =     13071.91728729
  Solvation  Ediel_sol  =         0.00000000
  ---------------------------------------------------
  free energy    TOTEN  =      -683.97453465 eV

  energy without entropy =     -683.86014859  energy(sigma->0) =     -683.91734162


--------------------------------------------------------------------------------------------------------




--------------------------------------- Iteration      1(   9)  ---------------------------------------


    POTLOK:  cpu time      0.0293: real time      0.0295
    SETDIJ:  cpu time      0.0030: real time      0.0030
     EDDAV:  cpu time      1.6805: real time      1.6806
       DOS:  cpu time      0.0006: real time      0.0006
    CHARGE:  cpu time      0.0422: real time      0.0422
    MIXING:  cpu time      0.0012: real time      0.0012
    --------------------------------------------
      LOOP:  cpu time      1.7568: real time      1.7570

 eigenvalue-minimisations  :  1608
 total energy-change (2. order) : 0.2292669E+02  (-0.1007912E+02)
 number of electron     265.9999884 magnetization 
 augmentation part       14.0396221 magnetization 

 DIPCOR: dipole corrections for dipol
 direction  3 min pos    94,
 dipolmoment           0.000000      0.000000      0.017848 electrons x Angstroem
 Tr[quadrupol]     -8016.974361

 energy correction for charged system         0.000000 eV
 dipol+quadrupol energy correction           -0.000012 eV
 added-field ion interaction         -0.270514 eV  (added to PSCEN)


 Broyden mixing:
  rms(total) = 0.76108E+02    rms(broyden)= 0.76108E+02
  rms(prec ) = 0.76477E+02
  weight for this iteration     100.00

 eigenvalues of (default mixing * dielectric matrix)
  average eigenvalue GAMMA=   0.4997
  0.1869  0.7105  0.7105  0.3910

 Free energy of the ion-electron system (eV)
  ---------------------------------------------------
  alpha Z        PSCENC =       124.88954220
  Ewald energy   TEWEN  =     27889.07788115
  -Hartree energ DENC   =    -38588.56779473
  -exchange      EXHF   =         0.00000000
  -V(xc)+E(xc)   XCENC  =      1007.77043986
  PAW double counting   =     20561.22196165   -20660.71885306
  entropy T*S    EENTRO =        -0.02295952
  eigenvalues    EBANDS =     -4066.61534906
  atomic energy  EATOM  =     13071.91728729
  Solvation  Ediel_sol  =         0.00000000
  ---------------------------------------------------
  free energy    TOTEN  =      -661.04784420 eV

  energy without entropy =     -661.02488468  energy(sigma->0) =     -661.03636444


--------------------------------------------------------------------------------------------------------




--------------------------------------- Iteration      1(  10)  ---------------------------------------


    POTLOK:  cpu time      0.0304: real time      0.0344
    SETDIJ:  cpu time      0.0030: real time      0.0030
     EDDAV:  cpu time      1.6574: real time      1.6574
       DOS:  cpu time      0.0006: real time      0.0006
    CHARGE:  cpu time      0.0434: real time      0.0434
    MIXING:  cpu time      0.0013: real time      0.0013
    --------------------------------------------
      LOOP:  cpu time      1.7361: real time      1.7401

 eigenvalue-minimisations  :  1568
 total energy-change (2. order) : 0.6650862E+02  (-0.7291749E+01)
 number of electron     265.9999872 magnetization 
 augmentation part       16.4674541 magnetization 

 DIPCOR: dipole corrections for dipol
 direction  3 min pos    97,
 dipolmoment           0.000000      0.000000     -0.019153 electrons x Angstroem
 Tr[quadrupol]     -8016.195820

 energy correction for charged system         0.000000 eV
 dipol+quadrupol energy correction           -0.000013 eV
 added-field ion interaction          0.186167 eV  (added to PSCEN)


 Broyden mixing:
  rms(total) = 0.16508E+02    rms(broyden)= 0.16498E+02
  rms(prec ) = 0.17081E+02
  weight for this iteration     100.00

 eigenvalues of (default mixing * dielectric matrix)
  average eigenvalue GAMMA=   0.5092
  0.8074  0.8074  0.1877  0.3718  0.3718

 Free energy of the ion-electron system (eV)
  ---------------------------------------------------
  alpha Z        PSCENC =       125.34622207
  Ewald energy   TEWEN  =     27889.07788115
  -Hartree energ DENC   =    -38637.65562121
  -exchange      EXHF   =         0.00000000
  -V(xc)+E(xc)   XCENC  =      1010.58932505
  PAW double counting   =     36282.38510649   -36394.35114913
  entropy T*S    EENTRO =        -0.09114862
  eigenvalues    EBANDS =     -3941.75712235
  atomic energy  EATOM  =     13071.91728729
  Solvation  Ediel_sol  =         0.00000000
  ---------------------------------------------------
  free energy    TOTEN  =      -594.53921925 eV

  energy without entropy =     -594.44807063  energy(sigma->0) =     -594.49364494


--------------------------------------------------------------------------------------------------------




--------------------------------------- Iteration      1(  11)  ---------------------------------------


    POTLOK:  cpu time      0.0296: real time      0.0298
    SETDIJ:  cpu time      0.0030: real time      0.0030
     EDDAV:  cpu time      1.6918: real time      1.6918
       DOS:  cpu time      0.0006: real time      0.0006
    CHARGE:  cpu time      0.0421: real time      0.0421
    MIXING:  cpu time      0.0013: real time      0.0013
    --------------------------------------------
      LOOP:  cpu time      1.7685: real time      1.7687

 eigenvalue-minimisations  :  1612
 total energy-change (2. order) : 0.6911863E+02  (-0.6150032E+01)
 number of electron     265.9999871 magnetization 
 augmentation part       16.9226346 magnetization 

 DIPCOR: dipole corrections for dipol
 direction  3 min pos   100,
 dipolmoment           0.000000      0.000000     -0.010475 electrons x Angstroem
 Tr[quadrupol]     -8016.796305

 energy correction for charged system         0.000000 eV
 dipol+quadrupol energy correction           -0.000004 eV
 added-field ion interaction          0.044872 eV  (added to PSCEN)


 Broyden mixing:
  rms(total) = 0.12948E+02    rms(broyden)= 0.12947E+02
  rms(prec ) = 0.13263E+02
  weight for this iteration     100.00

 eigenvalues of (default mixing * dielectric matrix)
  average eigenvalue GAMMA=   0.5038
  0.7650  0.7650  0.1877  0.4621  0.4621  0.3808

 Free energy of the ion-electron system (eV)
  ---------------------------------------------------
  alpha Z        PSCENC =       125.20493588
  Ewald energy   TEWEN  =     27889.07788115
  -Hartree energ DENC   =    -38689.44545380
  -exchange      EXHF   =         0.00000000
  -V(xc)+E(xc)   XCENC  =      1011.21016640
  PAW double counting   =     47333.17345800   -47463.91031177
  entropy T*S    EENTRO =        -0.01645134
  eigenvalues    EBANDS =     -3802.63210518
  atomic energy  EATOM  =     13071.91728729
  Solvation  Ediel_sol  =         0.00000000
  ---------------------------------------------------
  free energy    TOTEN  =      -525.42059336 eV

  energy without entropy =     -525.40414202  energy(sigma->0) =     -525.41236769


--------------------------------------------------------------------------------------------------------




--------------------------------------- Iteration      1(  12)  ---------------------------------------


    POTLOK:  cpu time      0.0299: real time      0.0401
    SETDIJ:  cpu time      0.0030: real time      0.0030
     EDDAV:  cpu time      1.8297: real time      1.8297
       DOS:  cpu time      0.0007: real time      0.0006
    CHARGE:  cpu time      0.0424: real time      0.0424
    MIXING:  cpu time      0.0013: real time      0.0013
    --------------------------------------------
      LOOP:  cpu time      1.9069: real time      1.9172

 eigenvalue-minimisations  :  1788
 total energy-change (2. order) : 0.9711328E+01  (-0.4038043E+01)
 number of electron     265.9999868 magnetization 
 augmentation part       17.1253722 magnetization 

 DIPCOR: dipole corrections for dipol
 direction  3 min pos   102,
 dipolmoment           0.000000      0.000000     -0.010720 electrons x Angstroem
 Tr[quadrupol]     -8016.744394

 energy correction for charged system         0.000000 eV
 dipol+quadrupol energy correction           -0.000004 eV
 added-field ion interaction          0.007070 eV  (added to PSCEN)


 Broyden mixing:
  rms(total) = 0.93298E+01    rms(broyden)= 0.93296E+01
  rms(prec ) = 0.96819E+01
  weight for this iteration     100.00

 eigenvalues of (default mixing * dielectric matrix)
  average eigenvalue GAMMA=   0.5565
  0.8818  0.8818  0.1878  0.5761  0.5761  0.4276  0.3645

 Free energy of the ion-electron system (eV)
  ---------------------------------------------------
  alpha Z        PSCENC =       125.16713360
  Ewald energy   TEWEN  =     27889.07788115
  -Hartree energ DENC   =    -38721.42549334
  -exchange      EXHF   =         0.00000000
  -V(xc)+E(xc)   XCENC  =      1012.17790845
  PAW double counting   =     46440.17591678   -46573.74686694
  entropy T*S    EENTRO =        -0.08737599
  eigenvalues    EBANDS =     -3758.96565640
  atomic energy  EATOM  =     13071.91728729
  Solvation  Ediel_sol  =         0.00000000
  ---------------------------------------------------
  free energy    TOTEN  =      -515.70926539 eV

  energy without entropy =     -515.62188940  energy(sigma->0) =     -515.66557739


--------------------------------------------------------------------------------------------------------




--------------------------------------- Iteration      1(  13)  ---------------------------------------


    POTLOK:  cpu time      0.0299: real time      0.0301
    SETDIJ:  cpu time      0.0030: real time      0.0030
     EDDAV:  cpu time      1.8497: real time      1.8498
       DOS:  cpu time      0.0006: real time      0.0006
    CHARGE:  cpu time      0.0449: real time      0.0449
    MIXING:  cpu time      0.0024: real time      0.0024
    --------------------------------------------
      LOOP:  cpu time      1.9306: real time      1.9308

 eigenvalue-minimisations  :  1800
 total energy-change (2. order) : 0.1747433E+02  (-0.1141831E+01)
 number of electron     265.9999862 magnetization 
 augmentation part       17.3678559 magnetization 

 DIPCOR: dipole corrections for dipol
 direction  3 min pos   100,
 dipolmoment           0.000000      0.000000      0.010421 electrons x Angstroem
 Tr[quadrupol]     -8017.531664

 energy correction for charged system         0.000000 eV
 dipol+quadrupol energy correction           -0.000004 eV
 added-field ion interaction         -0.044641 eV  (added to PSCEN)


 Broyden mixing:
  rms(total) = 0.79461E+01    rms(broyden)= 0.79460E+01
  rms(prec ) = 0.81342E+01
  weight for this iteration     100.00

 eigenvalues of (default mixing * dielectric matrix)
  average eigenvalue GAMMA=   0.6958
  1.3236  1.3236  0.1878  0.6962  0.6962  0.4914  0.4914  0.3564

 Free energy of the ion-electron system (eV)
  ---------------------------------------------------
  alpha Z        PSCENC =       125.11542353
  Ewald energy   TEWEN  =     27889.07788115
  -Hartree energ DENC   =    -38758.87460705
  -exchange      EXHF   =         0.00000000
  -V(xc)+E(xc)   XCENC  =      1012.42088214
  PAW double counting   =     40452.55416698   -40587.25895235
  entropy T*S    EENTRO =        -0.00392086
  eigenvalues    EBANDS =     -3703.18309620
  atomic energy  EATOM  =     13071.91728729
  Solvation  Ediel_sol  =         0.00000000
  ---------------------------------------------------
  free energy    TOTEN  =      -498.23493537 eV

  energy without entropy =     -498.23101451  energy(sigma->0) =     -498.23297494


--------------------------------------------------------------------------------------------------------




--------------------------------------- Iteration      1(  14)  ---------------------------------------


    POTLOK:  cpu time      0.0442: real time      0.0450
    SETDIJ:  cpu time      0.0050: real time      0.0053
     EDDAV:  cpu time      1.8757: real time      1.8758
       DOS:  cpu time      0.0005: real time      0.0005
    CHARGE:  cpu time      0.0422: real time      0.0422
    MIXING:  cpu time      0.0017: real time      0.0017
    --------------------------------------------
      LOOP:  cpu time      1.9693: real time      1.9706

 eigenvalue-minimisations  :  1816
 total energy-change (2. order) : 0.1623450E+02  (-0.1578798E+01)
 number of electron     265.9999862 magnetization 
 augmentation part       17.1302260 magnetization 

 DIPCOR: dipole corrections for dipol
 direction  3 min pos    99,
 dipolmoment           0.000000      0.000000      0.010070 electrons x Angstroem
 Tr[quadrupol]     -8018.795019

 energy correction for charged system         0.000000 eV
 dipol+quadrupol energy correction           -0.000004 eV
 added-field ion interaction         -0.061383 eV  (added to PSCEN)


 Broyden mixing:
  rms(total) = 0.56342E+01    rms(broyden)= 0.56342E+01
  rms(prec ) = 0.57607E+01
  weight for this iteration     100.00

 eigenvalues of (default mixing * dielectric matrix)
  average eigenvalue GAMMA=   0.7823
  1.5717  1.5717  0.1878  0.7636  0.7636  0.8505  0.4863  0.4863  0.3588

 Free energy of the ion-electron system (eV)
  ---------------------------------------------------
  alpha Z        PSCENC =       125.09868092
  Ewald energy   TEWEN  =     27889.07788115
  -Hartree energ DENC   =    -38856.38948305
  -exchange      EXHF   =         0.00000000
  -V(xc)+E(xc)   XCENC  =      1014.51210256
  PAW double counting   =     31813.79477127   -31946.81994078
  entropy T*S    EENTRO =        -0.00000003
  eigenvalues    EBANDS =     -3593.19173560
  atomic energy  EATOM  =     13071.91728729
  Solvation  Ediel_sol  =         0.00000000
  ---------------------------------------------------
  free energy    TOTEN  =      -482.00043626 eV

  energy without entropy =     -482.00043623  energy(sigma->0) =     -482.00043624


--------------------------------------------------------------------------------------------------------




--------------------------------------- Iteration      1(  15)  ---------------------------------------


    POTLOK:  cpu time      0.0316: real time      0.0326
    SETDIJ:  cpu time      0.0030: real time      0.0030
     EDDAV:  cpu time      1.9836: real time      1.9836
       DOS:  cpu time      0.0007: real time      0.0007
    CHARGE:  cpu time      0.0424: real time      0.0424
    MIXING:  cpu time      0.0015: real time      0.0015
    --------------------------------------------
      LOOP:  cpu time      2.0628: real time      2.0637

 eigenvalue-minimisations  :  1972
 total energy-change (2. order) :-0.4631145E+02  (-0.5893948E+01)
 number of electron     265.9999899 magnetization 
 augmentation part       10.4589965 magnetization 

 DIPCOR: dipole corrections for dipol
 direction  3 min pos   104,
 dipolmoment           0.000000      0.000000     -0.021824 electrons x Angstroem
 Tr[quadrupol]     -8020.890595

 energy correction for charged system         0.000000 eV
 dipol+quadrupol energy correction           -0.000017 eV
 added-field ion interaction         -0.064700 eV  (added to PSCEN)


 Broyden mixing:
  rms(total) = 0.74989E+01    rms(broyden)= 0.74982E+01
  rms(prec ) = 0.93218E+01
  weight for this iteration     100.00

 eigenvalues of (default mixing * dielectric matrix)
  average eigenvalue GAMMA=   0.7395
  1.9932  1.2271  1.2271  0.1878  0.6453  0.6453  0.4334  0.4334  0.3357  0.2665

 Free energy of the ion-electron system (eV)
  ---------------------------------------------------
  alpha Z        PSCENC =       125.09535103
  Ewald energy   TEWEN  =     27889.07788115
  -Hartree energ DENC   =    -39028.99610507
  -exchange      EXHF   =         0.00000000
  -V(xc)+E(xc)   XCENC  =      1018.89902152
  PAW double counting   =     27088.90714798   -27220.81408264
  entropy T*S    EENTRO =        -0.07864355
  eigenvalues    EBANDS =     -3472.31974157
  atomic energy  EATOM  =     13071.91728729
  Solvation  Ediel_sol  =         0.00000000
  ---------------------------------------------------
  free energy    TOTEN  =      -528.31188386 eV

  energy without entropy =     -528.23324031  energy(sigma->0) =     -528.27256208


--------------------------------------------------------------------------------------------------------




--------------------------------------- Iteration      1(  16)  ---------------------------------------


    POTLOK:  cpu time      0.0299: real time      0.0300
    SETDIJ:  cpu time      0.0030: real time      0.0030
     EDDAV:  cpu time      1.7956: real time      1.7957
       DOS:  cpu time      0.0007: real time      0.0007
    CHARGE:  cpu time      0.0428: real time      0.0428
    MIXING:  cpu time      0.0015: real time      0.0015
    --------------------------------------------
      LOOP:  cpu time      1.8735: real time      1.8737

 eigenvalue-minimisations  :  1760
 total energy-change (2. order) : 0.5332191E+02  (-0.9519655E+00)
 number of electron     265.9999868 magnetization 
 augmentation part       16.3104770 magnetization 

 DIPCOR: dipole corrections for dipol
 direction  3 min pos   101,
 dipolmoment           0.000000      0.000000     -0.007866 electrons x Angstroem
 Tr[quadrupol]     -8020.421606

 energy correction for charged system         0.000000 eV
 dipol+quadrupol energy correction           -0.000002 eV
 added-field ion interaction          0.019441 eV  (added to PSCEN)


 Broyden mixing:
  rms(total) = 0.48446E+01    rms(broyden)= 0.48439E+01
  rms(prec ) = 0.48635E+01
  weight for this iteration     100.00

 eigenvalues of (default mixing * dielectric matrix)
  average eigenvalue GAMMA=   0.7262
  2.0082  1.2097  1.2097  0.1878  0.6793  0.6793  0.5094  0.5094  0.4290  0.3526
  0.2135

 Free energy of the ion-electron system (eV)
  ---------------------------------------------------
  alpha Z        PSCENC =       125.17950715
  Ewald energy   TEWEN  =     27889.07788115
  -Hartree energ DENC   =    -38993.09587281
  -exchange      EXHF   =         0.00000000
  -V(xc)+E(xc)   XCENC  =      1018.77785981
  PAW double counting   =     33138.05156246   -33271.94095990
  entropy T*S    EENTRO =        -0.09462484
  eigenvalues    EBANDS =     -3452.86261395
  atomic energy  EATOM  =     13071.91728729
  Solvation  Ediel_sol  =         0.00000000
  ---------------------------------------------------
  free energy    TOTEN  =      -474.98997363 eV

  energy without entropy =     -474.89534879  energy(sigma->0) =     -474.94266121


--------------------------------------------------------------------------------------------------------




--------------------------------------- Iteration      1(  17)  ---------------------------------------


    POTLOK:  cpu time      0.0396: real time      0.0398
    SETDIJ:  cpu time      0.0030: real time      0.0030
     EDDAV:  cpu time      1.8321: real time      1.8321
       DOS:  cpu time      0.0005: real time      0.0005
[...]
    162       2.4124      0.00000
    163       2.4391      0.00000
    164       2.5561      0.00000


--------------------------------------------------------------------------------------------------------


 soft charge-density along one line, spin component           1
         0         1         2         3         4         5         6         7         8         9
 total charge-density along one line
 
 pseudopotential strength for first ion, spin component:           1
 10.343  13.757  -0.003   0.000   0.000   0.008  -0.000  -0.000
 13.757  18.298  -0.004   0.000   0.000   0.011  -0.000  -0.000
 -0.003  -0.004  -4.472   0.000   0.000   8.751  -0.000  -0.000
  0.000   0.000   0.000  -4.459   0.000  -0.000   8.729  -0.000
  0.000   0.000   0.000   0.000  -4.470  -0.000  -0.000   8.745
  0.008   0.011   8.751  -0.000  -0.000 -19.269   0.000   0.000
 -0.000  -0.000  -0.000   8.729  -0.000   0.000 -19.234  -0.000
 -0.000  -0.000  -0.000  -0.000   8.745   0.000  -0.000 -19.252
 total augmentation occupancy for first ion, spin component:           1
  8.994  -4.263   0.070  -0.001   0.000   0.009  -0.000   0.000
 -4.263   2.155  -0.006   0.000  -0.000  -0.003   0.000  -0.000
  0.070  -0.006   1.694  -0.000  -0.000   0.180  -0.000   0.000
 -0.001   0.000  -0.000   1.194  -0.000  -0.000   0.075  -0.000
  0.000  -0.000  -0.000  -0.000   1.960   0.000  -0.000   0.196
  0.009  -0.003   0.180  -0.000   0.000   0.021  -0.000   0.000
 -0.000   0.000  -0.000   0.075  -0.000  -0.000   0.005  -0.000
  0.000  -0.000   0.000  -0.000   0.196   0.000  -0.000   0.023


------------------------ aborting loop EDIFF was not reached (unconverged)  ----------------------------


 -----------------------------------------------------------------------------
|                                                                             |
|           W    W    AA    RRRRR   N    N  II  N    N   GGGG   !!!           |
|           W    W   A  A   R    R  NN   N  II  NN   N  G    G  !!!           |
|           W    W  A    A  R    R  N N  N  II  N N  N  G       !!!           |
|           W WW W  AAAAAA  RRRRR   N  N N  II  N  N N  G  GGG   !            |
|           WW  WW  A    A  R   R   N   NN  II  N   NN  G    G                |
|           W    W  A    A  R    R  N    N  II  N    N   GGGG   !!!           |
|                                                                             |
|     The electronic self-consistency was not achieved in the given           |
|     number of steps (NELM). The forces and other quantities evaluated       |
|     might not be reliable so examine the results carefully. If you find     |
|     spurious results, we suggest increasing NELM, if you were close to      |
|     convergence or switching to a different ALGO or adjusting the           |
|     density mixing parameters otherwise.                                    |
|                                                                             |
 -----------------------------------------------------------------------------

    CHARGE:  cpu time      0.0425: real time      0.0425
    FORLOC:  cpu time      0.0123: real time      0.0123
    FORNL :  cpu time      0.2409: real time      0.2409
    STRESS:  cpu time      0.7130: real time      0.7130
    FORCOR:  cpu time      0.0407: real time      0.0407
    FORHAR:  cpu time      0.0178: real time      0.0178
    MIXING:  cpu time      0.0047: real time      0.0047
    OFIELD:  cpu time      0.0000: real time      0.0000

  FORCE on cell =-STRESS in cart. coord.  units (eV):
  Direction    XX          YY          ZZ          XY          YZ          ZX
  --------------------------------------------------------------------------------------
  Alpha Z   125.37138   125.37138   125.37138
  Ewald   36886.74178 36924.60171-45860.77371    -2.49404     0.66768    -0.09056
  Hartree 37237.68788 37263.34371-35319.92627    -1.63000     0.34734     0.02206
  E(xc)   -1097.43409 -1097.39210 -1132.77715     0.00586     0.00192     0.00161
  Local  -77373.82294-77435.21660 77310.33590     4.02785    -0.99060     0.13274
  n-local  -522.11660  -522.44812  -488.82746    -0.01424    -0.01473     0.00188
  augment   197.81798   197.81157   210.27445     0.04444    -0.00920    -0.06606
  Kinetic  4546.31215  4545.81136  5137.96242     1.52876    -0.00313     0.01089
  Fock        0.00000     0.00000     0.00000     0.00000     0.00000     0.00000
  -------------------------------------------------------------------------------------
  Total       0.55754     1.88293   -18.36044     1.46863    -0.00072     0.01257
  in kB       0.34133     1.15276   -11.24055     0.89912    -0.00044     0.00770
  external pressure =       -3.25 kB  Pullay stress =        0.00 kB


 VOLUME and BASIS-vectors are now :
 -----------------------------------------------------------------------------
  energy-cutoff  :      400.00
  volume of cell :     2617.01
      direct lattice vectors                 reciprocal lattice vectors
    14.200398459  0.000000000  0.000000000     0.070420559  0.000000000  0.000000000
     0.000000000 12.286109451  0.000000000     0.000000000  0.081392731  0.000000000
     0.000000000  0.000000000 15.000000000     0.000000000  0.000000000  0.066666667

  length of vectors
    14.200398459 12.286109451 15.000000000     0.070420559  0.081392731  0.066666667


 FORCES acting on ions
    electron-ion (+dipol)            ewald-force                    non-local-force                 convergence-correction
 -----------------------------------------------------------------------------------------------
   0.690E-01 -.657E+02 0.157E+00   0.339E-03 0.684E+02 -.163E+00   0.339E-02 -.273E+01 0.671E-02   -.698E-01 -.201E-01 -.328E-03
   0.559E+02 0.350E+02 0.167E+00   -.582E+02 -.365E+02 -.175E+00   0.235E+01 0.145E+01 0.710E-02   -.350E-01 0.218E-01 -.429E-03
   -.262E+02 -.157E+02 0.382E+00   0.230E+02 0.138E+02 -.375E+00   0.330E+01 0.192E+01 -.480E-02   -.113E+00 -.137E-01 -.116E-02
   -.326E+02 0.458E+02 0.264E+00   0.331E+02 -.428E+02 -.333E+00   -.508E+00 -.308E+01 0.707E-01   -.574E-01 -.776E-01 0.571E-02
   -.559E+02 0.350E+02 0.209E+00   0.583E+02 -.364E+02 -.219E+00   -.235E+01 0.144E+01 0.848E-02   -.717E-01 -.308E-01 -.943E-04
   0.262E+02 -.158E+02 0.349E+00   -.229E+02 0.139E+02 -.344E+00   -.329E+01 0.191E+01 -.441E-02   -.622E-01 -.162E-01 0.130E-03
   -.105E+01 0.348E+01 0.244E+01   0.119E+00 -.973E+00 -.237E+01   -.134E-01 -.219E+01 -.671E-01   0.764E+00 -.194E+00 -.378E-02
   0.662E+02 0.454E+02 0.127E+01   -.686E+02 -.467E+02 -.122E+01   0.223E+01 0.156E+01 -.547E-01   0.147E+00 -.195E+00 -.474E-02
   -.545E+02 0.365E+01 0.424E+00   0.524E+02 -.551E+01 -.495E+00   0.235E+01 0.199E+01 0.726E-01   -.177E+00 0.739E-01 0.637E-02
   0.337E+02 0.461E+02 0.360E+00   -.339E+02 -.432E+02 -.398E+00   0.508E+00 -.305E+01 0.562E-01   -.259E+00 0.599E-01 -.940E-02
   -.665E+02 0.450E+02 0.126E+01   0.686E+02 -.466E+02 -.122E+01   -.223E+01 0.156E+01 -.370E-01   0.129E+00 0.115E+00 0.273E-02
   0.555E+02 0.431E+01 0.281E+00   -.526E+02 -.584E+01 -.322E+00   -.240E+01 0.189E+01 0.532E-01   -.320E+00 -.231E+00 -.914E-02
   -.117E+02 -.805E+02 0.111E+01   0.117E+02 0.833E+02 -.106E+01   -.340E+00 -.273E+01 -.454E-01   0.155E+00 -.123E-01 -.202E-02
   -.363E+01 -.249E+01 0.209E+01   0.118E+01 0.179E+01 -.202E+01   0.191E+01 0.111E+01 -.703E-01   0.357E+00 -.200E+00 -.258E-02
   -.387E+02 -.238E+02 0.407E+00   0.358E+02 0.222E+02 -.437E+00   0.290E+01 0.168E+01 0.308E-01   0.286E-01 0.361E-02 0.222E-03
   -.755E+02 0.307E+02 0.129E+01   0.779E+02 -.317E+02 -.125E+01   -.249E+01 0.116E+01 -.443E-01   0.207E-01 -.315E-01 0.144E-02
   0.217E+02 -.473E+02 0.357E+00   -.187E+02 0.456E+02 -.414E+00   -.292E+01 0.113E+01 0.607E-01   -.102E+00 0.263E+00 -.120E-02
   0.114E+02 -.808E+02 0.117E+01   -.118E+02 0.835E+02 -.113E+01   0.351E+00 -.276E+01 -.495E-01   0.111E+00 0.272E-01 0.341E-03
   0.758E+02 0.306E+02 0.139E+01   -.783E+02 -.318E+02 -.133E+01   0.252E+01 0.115E+01 -.643E-01   -.218E-01 0.994E-01 -.361E-02
   -.216E+02 -.472E+02 0.417E+00   0.189E+02 0.462E+02 -.472E+00   0.295E+01 0.103E+01 0.643E-01   -.162E+00 -.128E+00 -.151E-02
   0.418E+01 -.396E+01 0.248E+01   -.228E+01 0.248E+01 -.240E+01   -.187E+01 0.107E+01 -.693E-01   0.760E-01 0.440E+00 -.555E-02
   0.387E+02 -.237E+02 0.373E+00   -.359E+02 0.221E+02 -.406E+00   -.290E+01 0.168E+01 0.360E-01   0.171E-01 0.700E-02 -.115E-02
   0.360E-01 0.398E+02 0.104E+00   -.359E-01 -.363E+02 -.999E-01   0.171E-02 -.348E+01 -.563E-02   -.426E-02 -.609E-02 -.262E-03
   -.481E-01 0.338E+02 0.735E+00   0.108E+00 -.301E+02 -.763E+00   -.616E-02 -.369E+01 0.315E-01   -.509E-01 0.543E-02 -.633E-03
   -.342E+02 -.182E+03 0.477E+00   0.342E+02 0.220E+03 -.485E+00   0.557E-01 -.376E+02 0.826E-02   -.647E-01 -.226E-01 -.163E-02
   0.139E+03 0.123E+03 0.753E+00   -.171E+03 -.142E+03 -.783E+00   0.325E+02 0.189E+02 0.267E-01   -.741E-01 0.224E-01 -.305E-03
   0.345E+02 -.182E+03 0.588E+00   -.343E+02 0.219E+03 -.609E+00   -.407E-01 -.377E+02 0.162E-01   -.981E-01 -.246E-01 0.689E-03
   -.170E+03 0.706E+02 0.462E+00   0.203E+03 -.897E+02 -.484E+00   -.325E+02 0.191E+02 0.163E-01   -.392E-01 -.381E-01 0.132E-03
   0.170E+03 0.706E+02 0.392E+00   -.203E+03 -.897E+02 -.407E+00   0.326E+02 0.191E+02 0.119E-01   0.148E-02 0.316E-01 -.785E-03
   -.138E+03 0.123E+03 0.731E+00   0.171E+03 -.142E+03 -.757E+00   -.326E+02 0.189E+02 0.223E-01   -.142E+00 -.434E-01 -.691E-03
   0.290E-01 0.316E+01 -.172E+00   0.432E-01 -.323E+01 0.198E+00   -.363E-03 0.800E-01 -.209E-01   -.707E-01 -.121E-01 -.349E-03
   -.329E+02 0.184E+02 0.108E+01   0.342E+02 -.189E+02 -.116E+01   -.112E+01 0.543E+00 0.856E-01   -.156E+00 -.499E-01 0.330E-02
   0.400E+02 -.802E+02 0.426E+00   -.409E+02 0.114E+03 -.265E+00   0.502E+00 -.331E+02 -.118E+00   0.209E+00 -.624E+00 -.355E-01
   0.161E+03 0.134E+03 -.143E+01   -.193E+03 -.153E+03 0.162E+01   0.323E+02 0.187E+02 -.181E+00   -.219E-01 -.223E+00 -.361E-02
   -.411E+02 -.848E+02 0.520E+00   0.414E+02 0.117E+03 -.508E+00   -.810E+00 -.315E+02 -.378E-01   0.480E+00 0.745E-01 0.234E-01
   -.178E+03 0.723E+02 -.482E+00   0.211E+03 -.919E+02 0.646E+00   -.321E+02 0.194E+02 -.164E+00   -.546E-02 0.128E+00 0.453E-03
   0.178E+03 0.724E+02 -.382E+00   -.210E+03 -.917E+02 0.544E+00   0.321E+02 0.194E+02 -.156E+00   0.263E-01 -.139E+00 -.231E-02
   -.161E+03 0.134E+03 -.138E+01   0.193E+03 -.153E+03 0.157E+01   -.323E+02 0.187E+02 -.180E+00   -.102E-03 0.126E+00 0.969E-03
   -.465E+00 0.391E+02 0.769E+01   0.159E+00 -.418E+02 -.810E+01   -.362E-03 0.281E+01 0.394E+00   0.327E+00 -.104E+00 -.208E-02
   0.339E+02 0.191E+02 0.100E+01   -.347E+02 -.197E+02 -.107E+01   0.115E+01 0.598E+00 0.856E-01   -.313E+00 -.293E-01 -.609E-02
   -.417E+02 -.203E+03 -.158E+01   0.417E+02 0.240E+03 0.178E+01   -.120E+00 -.373E+02 -.188E+00   0.611E-01 0.104E+00 -.221E-02
   0.893E+02 0.833E+01 0.595E+00   -.118E+03 -.245E+02 -.514E+00   0.288E+02 0.161E+02 -.649E-01   0.215E+00 0.291E+00 -.126E-01
   0.141E+02 -.193E+03 -.854E+00   -.134E+02 0.230E+03 0.103E+01   -.837E+00 -.376E+02 -.166E+00   0.821E-01 -.383E-02 -.991E-03
   -.198E+03 0.700E+02 -.807E+00   0.230E+03 -.887E+02 0.942E+00   -.323E+02 0.187E+02 -.123E+00   -.289E-01 -.474E-01 -.590E-03
   0.541E+02 0.763E+02 -.705E+00   -.823E+02 -.927E+02 0.827E+00   0.277E+02 0.167E+02 -.134E+00   0.237E+00 -.370E+00 0.134E-01
   -.157E+03 0.109E+03 -.492E+00   0.190E+03 -.128E+03 0.636E+00   -.329E+02 0.181E+02 -.146E+00   -.281E-02 0.290E-02 0.146E-02
   -.376E+02 -.211E+02 0.728E+01   0.398E+02 0.224E+02 -.766E+01   -.232E+01 -.133E+01 0.366E+00   0.208E+00 -.564E-01 -.423E-02
   -.815E-01 -.313E+02 0.134E+01   0.353E+00 0.322E+02 -.143E+01   -.289E-01 -.989E+00 0.958E-01   -.242E+00 0.616E-01 -.120E-02
   -.141E+02 -.193E+03 -.110E+01   0.131E+02 0.230E+03 0.130E+01   0.887E+00 -.376E+02 -.192E+00   0.534E-01 -.268E-01 -.275E-03
   0.157E+03 0.109E+03 -.926E+00   -.190E+03 -.128E+03 0.112E+01   0.329E+02 0.181E+02 -.188E+00   0.343E-02 0.561E-01 -.325E-02
   0.417E+02 -.203E+03 -.187E+01   -.417E+02 0.240E+03 0.210E+01   0.101E+00 -.372E+02 -.224E+00   0.138E-01 -.801E-01 -.364E-03
   -.502E+02 0.751E+02 -.329E+00   0.785E+02 -.926E+02 0.538E+00   -.278E+02 0.168E+02 -.163E+00   -.367E+00 0.477E+00 -.286E-01
   0.198E+03 0.701E+02 -.121E+01   -.231E+03 -.889E+02 0.138E+01   0.323E+02 0.187E+02 -.172E+00   -.106E+00 0.976E-01 -.199E-02
   -.908E+02 0.680E+01 0.910E+00   0.119E+03 -.223E+02 -.882E+00   -.277E+02 0.150E+02 -.195E-01   -.648E-01 0.223E+00 0.138E-02
   0.383E+02 -.219E+02 0.825E+01   -.409E+02 0.231E+02 -.870E+01   0.239E+01 -.137E+01 0.428E+00   0.796E-01 0.168E+00 -.377E-03
   0.238E+00 -.414E+01 0.304E+00   -.272E+00 0.427E+01 -.299E+00   0.136E-01 -.127E+00 -.376E-02   0.192E-01 -.392E-02 -.444E-03
   -.774E+01 0.641E-01 -.376E+02   0.719E+01 -.112E+00 0.373E+02   0.186E+00 0.704E-01 0.207E+00   0.345E+00 0.690E-01 -.236E-02
 -----------------------------------------------------------------------------------------------
   -.197E+01 -.103E+01 0.100E+01   0.817E-13 0.387E-12 -.142E-13   0.110E+01 0.977E+00 -.897E+00   0.866E+00 -.506E-02 -.982E-01
 
 
 POSITION                                       TOTAL-FORCE (eV/Angst)
 -----------------------------------------------------------------------------------
      0.93063      4.96728      1.99991         0.003028      0.008997     -0.000518
     13.92694      2.88113      1.99967         0.019047      0.022578     -0.001436
      3.20917      4.89035      1.99993         0.019642      0.028437      0.001105
     11.58358      7.07714      2.00307         0.020811     -0.150832      0.007121
      2.13465      2.88107      1.99958        -0.014667      0.027067     -0.001526
     12.85267      4.89039      1.99995        -0.014959      0.035460      0.000896
      8.03233      4.92089      1.99940        -0.184417      0.126572      0.000249
      6.81646      2.86723      1.99782        -0.039099      0.089487     -0.003451
     10.32613      4.89232      2.00251         0.005641      0.202470      0.008100
      4.47688      7.07804      2.00298        -0.000160     -0.104748      0.008257
      9.24653      2.86638      1.99777        -0.008188      0.039061     -0.001335
      5.73726      4.89417      2.00306         0.214441      0.126751      0.003650
     11.58739     11.12241      1.99835        -0.130315      0.001257     -0.001489
     10.41301      9.04257      2.00053        -0.186101      0.210274      0.000053
     13.86719     11.03938      1.99967         0.009273      0.033108      0.001253
     12.79950      9.02117      1.99754        -0.019580      0.036399     -0.002478
      9.29011     11.04384      2.00290         0.041533     -0.303502      0.002512
      4.47169     11.12491      1.99802         0.069479     -0.034710     -0.001176
      3.25950      9.02212      1.99735         0.038206      0.036535     -0.004442
      6.76870     11.04636      2.00263         0.101800     -0.179546      0.008367
      5.64437      9.04619      1.99930         0.103039      0.037801     -0.000502
      2.19180     11.04001      1.99992        -0.021159      0.032820      0.002369
      0.92981      0.94441      1.99968        -0.002391     -0.016156     -0.001776
      8.03067      0.93829      1.99977         0.003191      0.003213      0.002609
     13.97134      5.61137      1.99972        -0.009971      0.064259     -0.001425
     12.78799      3.56362      1.99913        -0.037879     -0.023684     -0.003908
      2.09043      5.61126      1.99953         0.014706      0.060892     -0.003451
      2.11287      1.55849      1.99923         0.007824     -0.062219     -0.005445
     13.94730      1.55842      1.99937        -0.006945     -0.059332     -0.003710
      3.27420      3.56342      1.99918         0.027743     -0.027131     -0.004249
      0.93056      3.57802      2.00034         0.001212      0.001560      0.005329
     11.57611      5.62610      2.00067         0.041678     -0.000497      0.004660
      6.89475      5.60779      2.00612        -0.202833     -0.205123      0.007824
      5.69164      3.56952      2.00402        -0.024118     -0.011052      0.004451
      9.16927      5.60613      2.00550        -0.081615      0.298824     -0.002168
      9.21837      1.54990      2.00134         0.004147     -0.049867      0.000324
      6.84343      1.55078      2.00119        -0.009431     -0.059233      0.003594
     10.37215      3.56752      2.00376         0.009917      0.024615      0.012122
      8.03150      3.55972      1.98865         0.019783      0.013999     -0.014509
      4.48631      5.62716      2.00093        -0.031117      0.001019      0.007452
     10.41564     11.74610      2.00446        -0.030709      0.018145      0.009197
      9.24931      9.68526      2.00585         0.121050      0.208189      0.003617
     12.73995     11.75877      2.00167         0.010703      0.057426      0.006458
     12.75614      7.69764      2.00276         0.014082     -0.053438      0.011183
     10.39482      7.71924      2.00789        -0.236050     -0.136234      0.001078
     13.92611      9.70492      2.00082         0.032750     -0.020458     -0.001132
     11.59165      9.72610      1.98955         0.048143     -0.032509     -0.015744
      8.02979     11.76095      2.00032         0.000796      0.043678      0.006768
      3.31871     11.75995      2.00210        -0.010267      0.054388      0.007307
      2.13278      9.70546      2.00165        -0.028222     -0.030592      0.005455
      5.64327     11.74880      2.00480         0.053370     -0.008984      0.007254
      5.66489      7.72217      2.00728         0.191011     -0.211909      0.017154
      3.30436      7.69858      2.00343        -0.013432     -0.057403      0.001087
      6.80778      9.68800      2.00494         0.218161     -0.220652      0.008807
      4.46704      9.72817      1.98768        -0.102776      0.022166     -0.019325
      0.92930     11.76862      1.99969        -0.001627     -0.000461      0.000401
      8.01195      7.67066      2.05831        -0.018178      0.092823     -0.082868
 -----------------------------------------------------------------------------------
    total drift:                               -0.003272     -0.061805      0.008481


--------------------------------------------------------------------------------------------------------



  FREE ENERGIE OF THE ION-ELECTRON SYSTEM (eV)
  ---------------------------------------------------
  free  energy   TOTEN  =      -474.85856444 eV

  energy  without entropy=     -474.73126009  energy(sigma->0) =     -474.79491226
 
 d Force = 0.2183470E-03[ 0.210E-03, 0.226E-03]  d Energy = 0.6488789E-03-0.431E-03
 d Force =-0.4256515E-01[-0.428E-01,-0.423E-01]  d Ewald  = 0.4233925E+01-0.428E+01


--------------------------------------------------------------------------------------------------------


    POTLOK:  cpu time      0.0347: real time      0.0349


--------------------------------------------------------------------------------------------------------


 stress matrix after NEB project (eV)
      0.55754      1.46863      0.01257
      1.46863      1.88293     -0.00072
      0.01257     -0.00072    -18.36044
  FORCES: max atom, RMS     0.310418    0.134747
  FORCE total and by dimension    1.017314    0.303502
  Stress total and by dimension   18.581611   18.360445


--------------------------------------------------------------------------------------------------------


    WAVPRE:  cpu time      0.0208: real time      0.0242
    FEWALD:  cpu time      0.0007: real time      0.0007
    GENKIN:  cpu time      0.0066: real time      0.0066

 real space projection operators:
  total allocation   :       6577.50 KBytes
  max/ min on nodes  :        579.31        466.20

    ORTHCH:  cpu time      0.1217: real time      0.1217
     LOOP+:  cpu time    320.9193: real time    321.0238

