<?xml version="1.0" encoding="ISO-8859-1"?>
<modeling>
 <generator>
  <i name="program" type="string">vasp </i>
  <i name="version" type="string">6.3.2  </i>
  <i name="subversion" type="string">27Jun22 (build May 04 2024 18:40:40) complex                          parallel </i>
  <i name="platform" type="string">LinuxIFC </i>
  <i name="date" type="string">2024 09 03 </i>
  <i name="time" type="string">09:39:10 </i>
 </generator>
 <incar>
  <i type="string" name="SYSTEM">slab_Cel1-OPT</i>
  <i type="int" name="ISTART">     0</i>
  <i type="string" name="PREC">N</i>
  <i type="string" name="ALGO">N</i>
  <i type="int" name="ICHARG">     2</i>
  <i type="int" name="NELM">   200</i>
  <i type="int" name="IBRION">     2</i>
  <i name="EDIFF">      0.00001000</i>
  <i name="EDIFFG">     -0.05000000</i>
  <i type="int" name="NSW">  1000</i>
  <i type="int" name="ISIF">     3</i>
  <i name="ENCUT">    400.00000000</i>
  <i name="POTIM">      0.10000000</i>
  <i type="string" name="LREAL">AUTO</i>
  <i type="int" name="ISMEAR">     0</i>
  <i name="SIGMA">      0.10000000</i>
  <i type="logical" name="LWAVE"> F  </i>
  <i type="logical" name="LCHARG"> F  </i>
  <i type="logical" name="LELF"> F  </i>
  <i type="logical" name="LAECHG"> F  </i>
  <i type="logical" name="LDIPOL"> T  </i>
  <i type="int" name="IDIPOL">     3</i>
 </incar>
 <primitive_cell>
  <structure name="primitive_cell" >
   <crystal>
    <varray name="basis" >
     <v>      14.20606433       0.00000000       0.00000000 </v>
     <v>       0.00000000      12.30194432       0.00000000 </v>
     <v>       0.00000000       0.00000000      15.00000000 </v>
    </varray>
    <i name="volume">   2621.43318603 </i>
    <varray name="rec_basis" >
     <v>       0.07039247       0.00000000       0.00000000 </v>
     <v>       0.00000000       0.08128796       0.00000000 </v>
     <v>       0.00000000       0.00000000       0.06666667 </v>
    </varray>
   </crystal>
   <varray name="positions" >
    <v>       0.06552924       0.40428224       0.13332883 </v>
    <v>       0.98073506       0.23448653       0.13331251 </v>
    <v>       0.22596849       0.39800742       0.13332693 </v>
    <v>       0.81567713       0.57598150       0.13353271 </v>
    <v>       0.15032739       0.23448907       0.13330756 </v>
    <v>       0.90510567       0.39801215       0.13332888 </v>
    <v>       0.56563600       0.40060460       0.13329290 </v>
    <v>       0.48003275       0.23339915       0.13319118 </v>
    <v>       0.72699959       0.39816605       0.13349143 </v>
    <v>       0.31530345       0.57604443       0.13352705 </v>
    <v>       0.65113845       0.23332886       0.13318734 </v>
    <v>       0.40417946       0.39830929       0.13352891 </v>
    <v>       0.81593183       0.90524123       0.13322179 </v>
    <v>       0.73312683       0.73613388       0.13336762 </v>
    <v>       0.97653404       0.89849251       0.13330997 </v>
    <v>       0.90130094       0.73428418       0.13317397 </v>
    <v>       0.65436077       0.89869394       0.13351908 </v>
    <v>       0.31496386       0.90544683       0.13320054 </v>
    <v>       0.22958188       0.73436464       0.13316012 </v>
    <v>       0.47652118       0.89889576       0.13350049 </v>
    <v>       0.39765408       0.73641312       0.13329011 </v>
    <v>       0.15435104       0.89855068       0.13332563 </v>
    <v>       0.06547629       0.07689847       0.13331367 </v>
    <v>       0.56552517       0.07636274       0.13331407 </v>
    <v>       0.98386097       0.45673230       0.13331657 </v>
    <v>       0.90051323       0.29005212       0.13328011 </v>
    <v>       0.14721891       0.45673085       0.13330434 </v>
    <v>       0.14879978       0.12682943       0.13328696 </v>
    <v>       0.98217053       0.12681964       0.13329527 </v>
    <v>       0.23059373       0.29004466       0.13328360 </v>
    <v>       0.06553126       0.29123103       0.13334958 </v>
    <v>       0.81521451       0.45792350       0.13337048 </v>
    <v>       0.48537906       0.45596222       0.13372761 </v>
    <v>       0.40076577       0.29045513       0.13359709 </v>
    <v>       0.64589040       0.45583435       0.13368861 </v>
    <v>       0.64915874       0.12611856       0.13341956 </v>
    <v>       0.48192703       0.12618043       0.13340833 </v>
    <v>       0.73044688       0.29029081       0.13357859 </v>
    <v>       0.56559013       0.28963346       0.13259239 </v>
    <v>       0.31590167       0.45800614       0.13338786 </v>
    <v>       0.73355117       0.95613998       0.13361729 </v>
    <v>       0.65156945       0.78886389       0.13372214 </v>
    <v>       0.89721800       0.95709144       0.13344107 </v>
    <v>       0.89834841       0.62653391       0.13351279 </v>
    <v>       0.73194305       0.62829732       0.13384847 </v>
    <v>       0.98071775       0.78992791       0.13338564 </v>
    <v>       0.81644402       0.79170529       0.13265331 </v>
    <v>       0.56546383       0.95729815       0.13335126 </v>
    <v>       0.23365512       0.95719332       0.13346882 </v>
    <v>       0.15016184       0.78998079       0.13343866 </v>
    <v>       0.39733392       0.95635363       0.13363927 </v>
    <v>       0.39900206       0.62855329       0.13381154 </v>
    <v>       0.23263864       0.62660872       0.13355684 </v>
    <v>       0.47919533       0.78908611       0.13366660 </v>
    <v>       0.31441659       0.79189183       0.13253209 </v>
    <v>       0.06544380       0.95787743       0.13331123 </v>
    <v>       0.56413024       0.62436563       0.13731276 </v>
   </varray>
  </structure>
  <varray name="primitive_index" >
   <v type="int" >        1 </v>
   <v type="int" >        2 </v>
   <v type="int" >        3 </v>
   <v type="int" >        4 </v>
   <v type="int" >        5 </v>
   <v type="int" >        6 </v>
   <v type="int" >        7 </v>
   <v type="int" >        8 </v>
   <v type="int" >        9 </v>
   <v type="int" >       10 </v>
   <v type="int" >       11 </v>
   <v type="int" >       12 </v>
   <v type="int" >       13 </v>
   <v type="int" >       14 </v>
   <v type="int" >       15 </v>
   <v type="int" >       16 </v>
   <v type="int" >       17 </v>
   <v type="int" >       18 </v>
   <v type="int" >       19 </v>
   <v type="int" >       20 </v>
   <v type="int" >       21 </v>
   <v type="int" >       22 </v>
   <v type="int" >       23 </v>
   <v type="int" >       24 </v>
   <v type="int" >       25 </v>
   <v type="int" >       26 </v>
   <v type="int" >       27 </v>
   <v type="int" >       28 </v>
   <v type="int" >       29 </v>
   <v type="int" >       30 </v>
   <v type="int" >       31 </v>
   <v type="int" >       32 </v>
   <v type="int" >       33 </v>
   <v type="int" >       34 </v>
   <v type="int" >       35 </v>
   <v type="int" >       36 </v>
   <v type="int" >       37 </v>
   <v type="int" >       38 </v>
   <v type="int" >       39 </v>
   <v type="int" >       40 </v>
   <v type="int" >       41 </v>
   <v type="int" >       42 </v>
   <v type="int" >       43 </v>
   <v type="int" >       44 </v>
   <v type="int" >       45 </v>
   <v type="int" >       46 </v>
   <v type="int" >       47 </v>
   <v type="int" >       48 </v>
   <v type="int" >       49 </v>
   <v type="int" >       50 </v>
   <v type="int" >       51 </v>
   <v type="int" >       52 </v>
   <v type="int" >       53 </v>
   <v type="int" >       54 </v>
   <v type="int" >       55 </v>
   <v type="int" >       56 </v>
   <v type="int" >       57 </v>
  </varray>
 </primitive_cell>
 <kpoints>
  <generation param="Gamma">
   <v type="int" name="divisions">       2        2        1 </v>
   <v name="usershift">      0.00000000       0.00000000       0.00000000 </v>
   <v name="genvec1">      0.50000000       0.00000000       0.00000000 </v>
   <v name="genvec2">      0.00000000       0.50000000       0.00000000 </v>
   <v name="genvec3">      0.00000000       0.00000000       1.00000000 </v>
   <v name="shift">      0.00000000       0.00000000       0.00000000 </v>
  </generation>
  <varray name="kpointlist" >
   <v>       0.00000000       0.00000000       0.00000000 </v>
   <v>       0.50000000       0.00000000       0.00000000 </v>
   <v>       0.00000000       0.50000000       0.00000000 </v>
   <v>       0.50000000       0.50000000       0.00000000 </v>
  </varray>
  <varray name="weights" >
   <v>       0.25000000 </v>
   <v>       0.25000000 </v>
   <v>       0.25000000 </v>
   <v>       0.25000000 </v>
  </varray>
 </kpoints>
 <parameters>
  <separator name="general" >
   <i type="string" name="SYSTEM">slab_Cel1-OPT</i>
   <i type="logical" name="LCOMPAT"> F  </i>
  </separator>
  <separator name="electronic" >
   <i type="string" name="PREC">n</i>
   <i name="ENMAX">    400.00000000</i>
   <i name="ENAUG">    644.87300000</i>
   <i name="EDIFF">      0.00001000</i>
   <i type="int" name="IALGO">    38</i>
   <i type="int" name="IWAVPR">    11</i>
   <i type="int" name="NBANDS">   164</i>
   <i type="int" name="NBANDSLOW">    -1</i>
   <i type="int" name="NBANDSHIGH">    -1</i>
   <i name="NELECT">    266.00000000</i>
   <i type="int" name="TURBO">     0</i>
   <i type="int" name="IRESTART">     0</i>
   <i type="int" name="NREBOOT">     0</i>
   <i type="int" name="NMIN">     0</i>
   <i name="EREF">      0.00000000</i>
   <separator name="electronic smearing" >
    <i type="int" name="ISMEAR">     0</i>
    <i name="SIGMA">      0.10000000</i>
    <i name="KSPACING">      0.50000000</i>
    <i type="logical" name="KGAMMA"> T  </i>
    <i type="logical" name="KBLOWUP"> T  </i>
   </separator>
   <separator name="electronic projectors" >
    <i type="logical" name="LREAL"> T  </i>
    <v name="ROPT">     -0.00050000     -0.00050000     -0.00050000</v>
    <i type="int" name="LMAXPAW">  -100</i>
    <i type="int" name="LMAXMIX">     2</i>
    <i type="logical" name="NLSPLINE"> F  </i>
   </separator>
   <separator name="electronic startup" >
    <i type="int" name="ISTART">     0</i>
    <i type="int" name="ICHARG">     2</i>
    <i type="int" name="INIWAV">     1</i>
   </separator>
   <separator name="electronic spin" >
    <i type="int" name="ISPIN">     1</i>
    <i type="logical" name="LNONCOLLINEAR"> F  </i>
    <v name="MAGMOM">      1.00000000      1.00000000      1.00000000      1.00000000      1.00000000      1.00000000      1.00000000      1.00000000      1.00000000      1.00000000      1.00000000      1.00000000      1.00000000      1.00000000      1.00000000      1.00000000      1.00000000      1.00000000      1.00000000      1.00000000
      1.00000000      1.00000000      1.00000000      1.00000000      1.00000000      1.00000000      1.00000000      1.00000000      1.00000000      1.00000000      1.00000000      1.00000000      1.00000000      1.00000000      1.00000000      1.00000000      1.00000000      1.00000000      1.00000000      1.00000000
      1.00000000      1.00000000      1.00000000      1.00000000      1.00000000      1.00000000      1.00000000      1.00000000      1.00000000      1.00000000      1.00000000      1.00000000      1.00000000      1.00000000      1.00000000      1.00000000      1.00000000</v>
    <i name="NUPDOWN">     -1.00000000</i>
    <i type="logical" name="LSORBIT"> F  </i>
    <v name="SAXIS">      0.00000000      0.00000000      1.00000000</v>
    <i type="logical" name="LSPIRAL"> F  </i>
    <v name="QSPIRAL">      0.00000000      0.00000000      0.00000000</v>
    <i type="logical" name="LZEROZ"> F  </i>
   </separator>
   <separator name="electronic exchange-correlation" >
    <i type="logical" name="LASPH"> F  </i>
    <i type="logical" name="LMETAGGA"> F  </i>
   </separator>
   <separator name="electronic convergence" >
    <i type="int" name="NELM">   200</i>
    <i type="int" name="NELMDL">    -5</i>
    <i type="int" name="NELMIN">     2</i>
    <i name="ENINI">    400.00000000</i>
    <separator name="electronic convergence detail" >
     <i type="logical" name="LDIAG"> T  </i>
     <i type="logical" name="LSUBROT"> F  </i>
     <i name="WEIMIN">      0.00100000</i>
     <i name="EBREAK">      0.00000002</i>
     <i name="DEPER">      0.30000000</i>
     <i type="int" name="NRMM">     4</i>
     <i name="TIME">      0.40000000</i>
    </separator>
   </separator>
   <separator name="electronic mixer" >
    <i name="AMIX">      0.40000000</i>
    <i name="BMIX">      1.00000000</i>
    <i name="AMIN">      0.10000000</i>
    <i name="AMIX_MAG">      1.60000000</i>
    <i name="BMIX_MAG">      1.00000000</i>
    <separator name="electronic mixer details" >
     <i type="int" name="IMIX">     4</i>
     <i type="logical" name="MIXFIRST"> F  </i>
     <i type="int" name="MAXMIX">   -45</i>
     <i name="WC">    100.00000000</i>
     <i type="int" name="INIMIX">     1</i>
     <i type="int" name="MIXPRE">     1</i>
     <i type="int" name="MREMOVE">     5</i>
    </separator>
   </separator>
   <separator name="electronic dipolcorrection" >
    <i type="logical" name="LDIPOL"> T  </i>
    <i type="logical" name="LMONO"> F  </i>
    <i type="int" name="IDIPOL">     3</i>
    <i name="EPSILON">      1.00000000</i>
    <v name="DIPOL">   -100.00000000   -100.00000000   -100.00000000</v>
    <i name="EFIELD">      0.00000000</i>
   </separator>
  </separator>
  <separator name="grids" >
   <i type="int" name="NGX">    70</i>
   <i type="int" name="NGY">    60</i>
   <i type="int" name="NGZ">    80</i>
   <i type="int" name="NGXF">   140</i>
   <i type="int" name="NGYF">   120</i>
   <i type="int" name="NGZF">   160</i>
   <i type="logical" name="ADDGRID"> F  </i>
  </separator>
  <separator name="ionic" >
   <i type="int" name="NSW">  1000</i>
   <i type="int" name="IBRION">     2</i>
   <i type="int" name="MDALGO">     0</i>
   <i type="int" name="ISIF">     3</i>
   <i name="PSTRESS">      0.00000000</i>
   <i name="EDIFFG">     -0.05000000</i>
   <i type="int" name="NFREE">     1</i>
   <i name="POTIM">      0.10000000</i>
   <i name="SMASS">     -3.00000000</i>
   <i name="SCALEE">      1.00000000</i>
  </separator>
  <separator name="ionic md" >
   <i name="TEBEG">      0.00010000</i>
   <i name="TEEND">      0.00010000</i>
   <i type="int" name="NBLOCK">     1</i>
   <i type="int" name="KBLOCK">  1000</i>
   <i type="int" name="NPACO">   256</i>
   <i name="APACO">     10.00000000</i>
  </separator>
  <separator name="symmetry" >
   <i type="int" name="ISYM">     2</i>
   <i name="SYMPREC">      0.00001000</i>
  </separator>
  <separator name="dos" >
   <i type="int" name="LORBIT">     0</i>
   <v name="RWIGS">     -1.00000000     -1.00000000     -1.00000000</v>
   <i type="int" name="NEDOS">   301</i>
   <i name="EMIN">     10.00000000</i>
   <i name="EMAX">    -10.00000000</i>
   <i name="EFERMI">      0.00000000</i>
  </separator>
  <separator name="writing" >
   <i type="int" name="NWRITE">     2</i>
   <i type="logical" name="LWAVE"> F  </i>
   <i type="logical" name="LDOWNSAMPLE"> F  </i>
   <i type="logical" name="LCHARG"> F  </i>
   <i type="logical" name="LPARD"> F  </i>
   <i type="logical" name="LVTOT"> F  </i>
   <i type="logical" name="LVHAR"> F  </i>
   <i type="logical" name="LELF"> F  </i>
   <i type="logical" name="LOPTICS"> F  </i>
   <v name="STM">      0.00000000      0.00000000      0.00000000      0.00000000      0.00000000      0.00000000      0.00000000</v>
  </separator>
  <separator name="performance" >
   <i type="int" name="NPAR">     4</i>
   <i type="int" name="NSIM">     4</i>
   <i type="int" name="NBLK">    -1</i>
   <i type="logical" name="LPLANE"> T  </i>
   <i type="logical" name="LSCALAPACK"> T  </i>
   <i type="logical" name="LSCAAWARE"> F  </i>
   <i type="logical" name="LSCALU"> F  </i>
   <i type="logical" name="LASYNC"> F  </i>
   <i type="logical" name="LORBITALREAL"> F  </i>
  </separator>
  <separator name="miscellaneous" >
   <i type="int" name="IDIOT">     3</i>
   <i type="int" name="PHON_NSTRUCT">    -1</i>
   <i type="logical" name="LMUSIC"> F  </i>
   <v name="POMASS">     12.01100000     14.00100000     58.69000000</v>
   <v name="DARWINR">      0.00000000      0.00000000      0.00000000</v>
   <v name="DARWINV">      1.00000000      1.00000000      1.00000000</v>
   <i type="logical" name="LCORR"> T  </i>
  </separator>
  <i type="logical" name="GGA_COMPAT"> T  </i>
  <i type="logical" name="LBERRY"> F  </i>
  <i type="int" name="ICORELEVEL">     0</i>
  <i type="logical" name="LDAU"> F  </i>
  <i type="int" name="I_CONSTRAINED_M">     0</i>
  <separator name="electronic exchange-correlation" >
   <i type="string" name="GGA">--</i>
   <i type="int" name="VOSKOWN">     0</i>
   <i type="logical" name="LHFCALC"> F  </i>
   <i type="string" name="PRECFOCK"></i>
   <i type="logical" name="LSYMGRAD"> F  </i>
   <i type="logical" name="LHFONE"> F  </i>
   <i type="logical" name="LRHFCALC"> F  </i>
   <i type="logical" name="LTHOMAS"> F  </i>
   <i type="logical" name="LMODELHF"> F  </i>
   <i type="logical" name="LFOCKACE"> F  </i>
   <i name="ENCUT4O">     -1.00000000</i>
   <i type="int" name="EXXOEP">     0</i>
   <i type="int" name="FOURORBIT">     0</i>
   <i name="AEXX">      0.00000000</i>
   <i name="HFALPHA">      0.00000000</i>
   <i name="MCALPHA">      0.00000000</i>
   <i name="ALDAX">      1.00000000</i>
   <i name="AGGAX">      1.00000000</i>
   <i name="ALDAC">      1.00000000</i>
   <i name="AGGAC">      1.00000000</i>
   <i type="int" name="NKREDX">     1</i>
   <i type="int" name="NKREDY">     1</i>
   <i type="int" name="NKREDZ">     1</i>
   <i type="logical" name="SHIFTRED"> F  </i>
   <i type="logical" name="ODDONLY"> F  </i>
   <i type="logical" name="EVENONLY"> F  </i>
   <i type="int" name="LMAXFOCK">     0</i>
   <i type="int" name="NMAXFOCKAE">     0</i>
   <i type="logical" name="LFOCKAEDFT"> F  </i>
   <i name="HFSCREEN">      0.00000000</i>
   <i name="HFSCREENC">      0.00000000</i>
   <i type="int" name="NBANDSGWLOW">     0</i>
  </separator>
  <separator name="vdW DFT" >
   <i type="logical" name="LUSE_VDW"> F  </i>
   <i name="Zab_VDW">     -0.84910000</i>
   <i name="PARAM1">      0.12340000</i>
   <i name="PARAM2">      1.00000000</i>
   <i name="PARAM3">      0.00000000</i>
  </separator>
  <separator name="model GW" >
   <i type="int" name="MODEL_GW">     0</i>
   <i name="MODEL_EPS0">     27.59403354</i>
   <i name="MODEL_ALPHA">      1.00000000</i>
  </separator>
  <separator name="linear response parameters" >
   <i type="logical" name="LEPSILON"> F  </i>
   <i type="logical" name="LRPA"> F  </i>
   <i type="logical" name="LNABLA"> F  </i>
   <i type="logical" name="LVEL"> F  </i>
   <i name="CSHIFT">      0.10000000</i>
   <i name="OMEGAMAX">     -1.00000000</i>
   <i name="DEG_THRESHOLD">      0.00200000</i>
   <i name="RTIME">     -0.10000000</i>
   <i name="WPLASMAI">      0.00000000</i>
   <v name="DFIELD">      0.00000000      0.00000000      0.00000000</v>
   <v name="WPLASMA">      0.00000000      0.00000000      0.00000000      0.00000000      0.00000000      0.00000000      0.00000000      0.00000000      0.00000000</v>
  </separator>
  <separator name="orbital magnetization" >
   <i type="logical" name="NUCIND"> F  </i>
   <v name="MAGPOS">      0.00000000      0.00000000      0.00000000</v>
   <i type="logical" name="LNICSALL"> T  </i>
   <i type="logical" name="ORBITALMAG"> F  </i>
   <i type="logical" name="LMAGBLOCH"> F  </i>
   <i type="logical" name="LCHIMAG"> F  </i>
   <i type="logical" name="LGAUGE"> T  </i>
   <i type="int" name="MAGATOM">     0</i>
   <v name="MAGDIPOL">      0.00000000      0.00000000      0.00000000</v>
   <v name="AVECCONST">      0.00000000      0.00000000      0.00000000</v>
  </separator>
  <separator name="response functions" >
   <i type="logical" name="LFINITE_TEMPERATURE"> F  </i>
   <i type="logical" name="LADDER"> F  </i>
   <i type="logical" name="LRPAFORCE"> F  </i>
   <i type="logical" name="LFXC"> F  </i>
   <i type="logical" name="LHARTREE"> T  </i>
   <i type="int" name="IBSE">     0</i>
   <v type="int" name="KPOINT">    -1     0     0     0</v>
   <i type="logical" name="LTCTC"> F  </i>
   <i type="logical" name="LTCTE"> F  </i>
   <i type="logical" name="LTETE"> F  </i>
   <i type="logical" name="LTRIPLET"> F  </i>
   <i type="logical" name="LFXCEPS"> F  </i>
   <i type="logical" name="LFXHEG"> F  </i>
   <i type="int" name="NATURALO">     2</i>
   <i type="logical" name="LHOLEGF"> F  </i>
   <i type="logical" name="L2ORDER"> F  </i>
   <i type="logical" name="LDMP1"> F  </i>
   <i type="logical" name="LMP2LT"> F  </i>
   <i type="logical" name="LSMP2LT"> F  </i>
   <i type="logical" name="LGWLF"> F  </i>
   <i name="ENCUTGW">     -2.00000000</i>
   <i name="ENCUTGWSOFT">     -2.00000000</i>
   <i name="ENCUTLF">     -1.00000000</i>
   <i type="logical" name="LESF_SPLINES"> F  </i>
   <i type="int" name="LMAXMP2">    -1</i>
   <i name="SCISSOR">      0.00000000</i>
   <i type="int" name="NOMEGA">     0</i>
   <i type="int" name="NOMEGAR">     0</i>
   <i type="int" name="NBANDSGW">    -1</i>
   <i type="int" name="NBANDSO">    -1</i>
   <i type="int" name="NBANDSV">    -1</i>
   <i type="int" name="NELMGW">     1</i>
   <i type="int" name="NELMHF">     1</i>
   <i type="int" name="DIM">     3</i>
   <i type="int" name="IESPILON">     4</i>
   <i type="int" name="ANTIRES">     0</i>
   <i name="OMEGAMAX">    -30.00000000</i>
   <i name="OMEGAMIN">    -30.00000000</i>
   <i name="OMEGATL">   -200.00000000</i>
   <i type="int" name="OMEGAGRID">     0</i>
   <i name="CSHIFT">     -0.10000000</i>
   <i type="logical" name="LSELFENERGY"> F  </i>
   <i type="logical" name="LSPECTRAL"> F  </i>
   <i type="logical" name="LSPECTRALGW"> F  </i>
   <i type="logical" name="LSINGLES"> F  </i>
   <i type="logical" name="LFERMIGW"> F  </i>
   <i type="logical" name="ODDONLYGW"> F  </i>
   <i type="logical" name="EVENONLYGW"> F  </i>
   <i type="int" name="NKREDLFX">     1</i>
   <i type="int" name="NKREDLFY">     1</i>
   <i type="int" name="NKREDLFZ">     1</i>
   <i type="int" name="MAXMEM">  2800</i>
   <i type="int" name="TELESCOPE">     0</i>
   <i type="int" name="NTAUPAR">    -1</i>
   <i type="int" name="NOMEGAPAR">    -1</i>
   <i name="DAMP_NEWTON">      0.80000001</i>
   <i name="LAMBDA">      1.00000000</i>
  </separator>
  <separator name="External order field" >
   <i name="OFIELD_KAPPA">      0.00000000</i>
   <v name="OFIELD_K">      0.00000000      0.00000000      0.00000000</v>
   <i name="OFIELD_Q6_NEAR">      0.00000000</i>
   <i name="OFIELD_Q6_FAR">      0.00000000</i>
   <i name="OFIELD_A">      0.00000000</i>
  </separator>
  <separator name="optional k-points parameters" >
   <i type="int" name="KPOINTS_OPT_MODE">     1</i>
   <i type="logical" name="LKPOINTS_OPT"> F  </i>
  </separator>
  <separator name="solvation model" >
   <i type="logical" name="LSOL"> F  </i>
  </separator>
 </parameters>
 <atominfo>
  <atoms>      57 </atoms>
  <types>       3 </types>
  <array name="atoms" >
   <dimension dim="1">ion</dimension>
   <field type="string">element</field>
   <field type="int">atomtype</field>
   <set>
    <rc><c>C </c><c>   1</c></rc>
    <rc><c>C </c><c>   1</c></rc>
    <rc><c>C </c><c>   1</c></rc>
    <rc><c>C </c><c>   1</c></rc>
    <rc><c>C </c><c>   1</c></rc>
    <rc><c>C </c><c>   1</c></rc>
    <rc><c>C </c><c>   1</c></rc>
    <rc><c>C </c><c>   1</c></rc>
    <rc><c>C </c><c>   1</c></rc>
    <rc><c>C </c><c>   1</c></rc>
    <rc><c>C </c><c>   1</c></rc>
    <rc><c>C </c><c>   1</c></rc>
    <rc><c>C </c><c>   1</c></rc>
    <rc><c>C </c><c>   1</c></rc>
    <rc><c>C </c><c>   1</c></rc>
    <rc><c>C </c><c>   1</c></rc>
    <rc><c>C </c><c>   1</c></rc>
    <rc><c>C </c><c>   1</c></rc>
    <rc><c>C </c><c>   1</c></rc>
    <rc><c>C </c><c>   1</c></rc>
    <rc><c>C </c><c>   1</c></rc>
    <rc><c>C </c><c>   1</c></rc>
    <rc><c>C </c><c>   1</c></rc>
    <rc><c>C </c><c>   1</c></rc>
    <rc><c>N </c><c>   2</c></rc>
    <rc><c>N </c><c>   2</c></rc>
    <rc><c>N </c><c>   2</c></rc>
    <rc><c>N </c><c>   2</c></rc>
    <rc><c>N </c><c>   2</c></rc>
    <rc><c>N </c><c>   2</c></rc>
    <rc><c>N </c><c>   2</c></rc>
    <rc><c>N </c><c>   2</c></rc>
    <rc><c>N </c><c>   2</c></rc>
    <rc><c>N </c><c>   2</c></rc>
    <rc><c>N </c><c>   2</c></rc>
    <rc><c>N </c><c>   2</c></rc>
    <rc><c>N </c><c>   2</c></rc>
    <rc><c>N </c><c>   2</c></rc>
    <rc><c>N </c><c>   2</c></rc>
    <rc><c>N </c><c>   2</c></rc>
    <rc><c>N </c><c>   2</c></rc>
    <rc><c>N </c><c>   2</c></rc>
    <rc><c>N </c><c>   2</c></rc>
    <rc><c>N </c><c>   2</c></rc>
    <rc><c>N </c><c>   2</c></rc>
    <rc><c>N </c><c>   2</c></rc>
    <rc><c>N </c><c>   2</c></rc>
    <rc><c>N </c><c>   2</c></rc>
    <rc><c>N </c><c>   2</c></rc>
    <rc><c>N </c><c>   2</c></rc>
    <rc><c>N </c><c>   2</c></rc>
    <rc><c>N </c><c>   2</c></rc>
    <rc><c>N </c><c>   2</c></rc>
    <rc><c>N </c><c>   2</c></rc>
    <rc><c>N </c><c>   2</c></rc>
    <rc><c>N </c><c>   2</c></rc>
    <rc><c>Ni</c><c>   3</c></rc>
   </set>
  </array>
  <array name="atomtypes" >
   <dimension dim="1">type</dimension>
   <field type="int">atomspertype</field>
   <field type="string">element</field>
   <field>mass</field>
   <field>valence</field>
   <field type="string">pseudopotential</field>
   <set>
    <rc><c>  24</c><c>C </c><c>     12.01100000</c><c>      4.00000000</c><c>  PAW_PBE C 08Apr2002                   </c></rc>
    <rc><c>  32</c><c>N </c><c>     14.00100000</c><c>      5.00000000</c><c>  PAW_PBE N 08Apr2002                   </c></rc>
    <rc><c>   1</c><c>Ni</c><c>     58.69000000</c><c>     10.00000000</c><c>  PAW_PBE Ni 02Aug2007                  </c></rc>
   </set>
  </array>
 </atominfo>
 <structure name="initialpos" >
  <crystal>
   <varray name="basis" >
    <v>      14.20606433       0.00000000       0.00000000 </v>
    <v>       0.00000000      12.30194432       0.00000000 </v>
    <v>       0.00000000       0.00000000      15.00000000 </v>
   </varray>
   <i name="volume">   2621.43318603 </i>
   <varray name="rec_basis" >
    <v>       0.07039247       0.00000000       0.00000000 </v>
    <v>       0.00000000       0.08128796       0.00000000 </v>
    <v>       0.00000000       0.00000000       0.06666667 </v>
   </varray>
  </crystal>
  <varray name="positions" >
   <v>       0.06552924       0.40428224       0.13332883 </v>
   <v>       0.98073506       0.23448653       0.13331251 </v>
   <v>       0.22596849       0.39800742       0.13332693 </v>
   <v>       0.81567713       0.57598150       0.13353271 </v>
   <v>       0.15032739       0.23448907       0.13330756 </v>
   <v>       0.90510567       0.39801215       0.13332888 </v>
   <v>       0.56563600       0.40060460       0.13329290 </v>
   <v>       0.48003275       0.23339915       0.13319118 </v>
   <v>       0.72699959       0.39816605       0.13349143 </v>
   <v>       0.31530345       0.57604443       0.13352705 </v>
   <v>       0.65113845       0.23332886       0.13318734 </v>
   <v>       0.40417946       0.39830929       0.13352891 </v>
   <v>       0.81593183       0.90524123       0.13322179 </v>
   <v>       0.73312683       0.73613388       0.13336762 </v>
   <v>       0.97653404       0.89849251       0.13330997 </v>
   <v>       0.90130094       0.73428418       0.13317397 </v>
   <v>       0.65436077       0.89869394       0.13351908 </v>
   <v>       0.31496386       0.90544683       0.13320054 </v>
   <v>       0.22958188       0.73436464       0.13316012 </v>
   <v>       0.47652118       0.89889576       0.13350049 </v>
   <v>       0.39765408       0.73641312       0.13329011 </v>
   <v>       0.15435104       0.89855068       0.13332563 </v>
   <v>       0.06547629       0.07689847       0.13331367 </v>
   <v>       0.56552517       0.07636274       0.13331407 </v>
   <v>       0.98386097       0.45673230       0.13331657 </v>
   <v>       0.90051323       0.29005212       0.13328011 </v>
   <v>       0.14721891       0.45673085       0.13330434 </v>
   <v>       0.14879978       0.12682943       0.13328696 </v>
   <v>       0.98217053       0.12681964       0.13329527 </v>
   <v>       0.23059373       0.29004466       0.13328360 </v>
   <v>       0.06553126       0.29123103       0.13334958 </v>
   <v>       0.81521451       0.45792350       0.13337048 </v>
   <v>       0.48537906       0.45596222       0.13372761 </v>
   <v>       0.40076577       0.29045513       0.13359709 </v>
   <v>       0.64589040       0.45583435       0.13368861 </v>
   <v>       0.64915874       0.12611856       0.13341956 </v>
   <v>       0.48192703       0.12618043       0.13340833 </v>
   <v>       0.73044688       0.29029081       0.13357859 </v>
   <v>       0.56559013       0.28963346       0.13259239 </v>
   <v>       0.31590167       0.45800614       0.13338786 </v>
   <v>       0.73355117       0.95613998       0.13361729 </v>
   <v>       0.65156945       0.78886389       0.13372214 </v>
   <v>       0.89721800       0.95709144       0.13344107 </v>
   <v>       0.89834841       0.62653391       0.13351279 </v>
   <v>       0.73194305       0.62829732       0.13384847 </v>
   <v>       0.98071775       0.78992791       0.13338564 </v>
   <v>       0.81644402       0.79170529       0.13265331 </v>
   <v>       0.56546383       0.95729815       0.13335126 </v>
   <v>       0.23365512       0.95719332       0.13346882 </v>
   <v>       0.15016184       0.78998079       0.13343866 </v>
   <v>       0.39733392       0.95635363       0.13363927 </v>
   <v>       0.39900206       0.62855329       0.13381154 </v>
   <v>       0.23263864       0.62660872       0.13355684 </v>
   <v>       0.47919533       0.78908611       0.13366660 </v>
   <v>       0.31441659       0.79189183       0.13253209 </v>
   <v>       0.06544380       0.95787743       0.13331123 </v>
   <v>       0.56413024       0.62436563       0.13731276 </v>
  </varray>
 </structure>
 <calculation>
  <scstep>
   <time name="dav">    1.70    1.70</time>
   <time name="total">    1.75    1.75</time>
   <dipole>
    <v name="dipole">      0.00000000       0.00000000       0.00014757 </v>
    <i name="Tr[quadrupol]">  -8015.75012554 </i>
    <i name="Echarged">      0.00000000 </i>
    <i name="Edipol_quadrupol">      0.00000000 </i>
    <i name="Eion">      0.00000000 </i>
   </dipole>
   <energy>
    <i name="alphaZ">    125.16077288 </i>
    <i name="ewald">  27889.07788115 </i>
    <i name="hartreedc"> -38297.07657533 </i>
    <i name="XCdc">    986.28277094 </i>
    <i name="pawpsdc">  10125.32191863 </i>
    <i name="pawaedc"> -10243.94913705 </i>
    <i name="eentropy">     -0.10029292 </i>
    <i name="bandstr">  -1219.05086520 </i>
    <i name="atom">  13071.91728729 </i>
    <i name="e_fr_energy">   2437.58376041 </i>
    <i name="e_wo_entrp">   2437.68405333 </i>
    <i name="e_0_energy">   2437.63390687 </i>
   </energy>
  </scstep>
  <scstep>
   <time name="dav">    1.93    1.93</time>
   <time name="total">    1.93    1.94</time>
   <dipole>
    <v name="dipole">      0.00000000       0.00000000       0.00014757 </v>
    <i name="Tr[quadrupol]">  -8015.75012554 </i>
    <i name="Echarged">      0.00000000 </i>
    <i name="Edipol_quadrupol">      0.00000000 </i>
    <i name="Eion">      0.00000000 </i>
   </dipole>
   <energy>
    <i name="e_fr_energy">     26.60231244 </i>
    <i name="e_wo_entrp">     26.60235303 </i>
    <i name="e_0_energy">     26.60233274 </i>
   </energy>
  </scstep>
  <scstep>
   <time name="dav">    1.69    1.69</time>
   <time name="total">    1.69    1.69</time>
   <dipole>
    <v name="dipole">      0.00000000       0.00000000       0.00014757 </v>
    <i name="Tr[quadrupol]">  -8015.75012554 </i>
    <i name="Echarged">      0.00000000 </i>
    <i name="Edipol_quadrupol">      0.00000000 </i>
    <i name="Eion">      0.00000000 </i>
   </dipole>
   <energy>
    <i name="e_fr_energy">   -496.28016992 </i>
    <i name="e_wo_entrp">   -496.17838927 </i>
    <i name="e_0_energy">   -496.22927960 </i>
   </energy>
  </scstep>
  <scstep>
   <time name="dav">    1.67    1.67</time>
   <time name="total">    1.67    1.67</time>
   <dipole>
    <v name="dipole">      0.00000000       0.00000000       0.00014757 </v>
    <i name="Tr[quadrupol]">  -8015.75012554 </i>
    <i name="Echarged">      0.00000000 </i>
    <i name="Edipol_quadrupol">      0.00000000 </i>
    <i name="Eion">      0.00000000 </i>
   </dipole>
   <energy>
    <i name="e_fr_energy">   -519.03281867 </i>
    <i name="e_wo_entrp">   -518.91667550 </i>
    <i name="e_0_energy">   -518.97474709 </i>
   </energy>
  </scstep>
  <scstep>
   <time name="dav">    1.95    1.95</time>
   <time name="total">    1.99    1.99</time>
   <dipole>
    <v name="dipole">      0.00000000       0.00000000       0.00014757 </v>
    <i name="Tr[quadrupol]">  -8015.75012554 </i>
    <i name="Echarged">      0.00000000 </i>
    <i name="Edipol_quadrupol">      0.00000000 </i>
    <i name="Eion">      0.00000000 </i>
   </dipole>
   <energy>
    <i name="e_fr_energy">   -520.19281381 </i>
    <i name="e_wo_entrp">   -520.07349449 </i>
    <i name="e_0_energy">   -520.13315415 </i>
   </energy>
  </scstep>
  <scstep>
   <time name="dav">    1.97    1.97</time>
   <time name="total">    2.05    2.05</time>
   <dipole>
    <v name="dipole">      0.00000000       0.00000000      -0.00999130 </v>
    <i name="Tr[quadrupol]">  -8016.90123627 </i>
    <i name="Echarged">      0.00000000 </i>
    <i name="Edipol_quadrupol">      0.00000000 </i>
    <i name="Eion">      0.00000000 </i>
   </dipole>
   <energy>
    <i name="e_fr_energy">   -729.33168039 </i>
    <i name="e_wo_entrp">   -729.22524876 </i>
    <i name="e_0_energy">   -729.27846457 </i>
   </energy>
  </scstep>
  <scstep>
   <time name="dav">    1.90    1.90</time>
   <time name="total">    1.98    1.98</time>
   <dipole>
    <v name="dipole">      0.00000000       0.00000000       0.01919912 </v>
    <i name="Tr[quadrupol]">  -8017.10871525 </i>
    <i name="Echarged">      0.00000000 </i>
    <i name="Edipol_quadrupol">      0.00000000 </i>
    <i name="Eion">      0.00000000 </i>
   </dipole>
   <energy>
    <i name="e_fr_energy">   -729.55783161 </i>
    <i name="e_wo_entrp">   -729.43082722 </i>
    <i name="e_0_energy">   -729.49432942 </i>
   </energy>
  </scstep>
  <scstep>
   <time name="dav">    1.66    1.66</time>
   <time name="total">    1.75    1.75</time>
   <dipole>
    <v name="dipole">      0.00000000       0.00000000       0.02640096 </v>
    <i name="Tr[quadrupol]">  -8017.10868165 </i>
    <i name="Echarged">      0.00000000 </i>
    <i name="Edipol_quadrupol">      0.00000000 </i>
    <i name="Eion">      0.00000000 </i>
   </dipole>
   <energy>
    <i name="e_fr_energy">   -683.97453465 </i>
    <i name="e_wo_entrp">   -683.86014859 </i>
    <i name="e_0_energy">   -683.91734162 </i>
   </energy>
  </scstep>
  <scstep>
   <time name="dav">    1.68    1.68</time>
   <time name="total">    1.76    1.76</time>
   <dipole>
    <v name="dipole">      0.00000000       0.00000000       0.01784840 </v>
    <i name="Tr[quadrupol]">  -8016.97436052 </i>
    <i name="Echarged">      0.00000000 </i>
    <i name="Edipol_quadrupol">      0.00000000 </i>
    <i name="Eion">      0.00000000 </i>
   </dipole>
   <energy>
    <i name="e_fr_energy">   -661.04784420 </i>
    <i name="e_wo_entrp">   -661.02488468 </i>
    <i name="e_0_energy">   -661.03636444 </i>
   </energy>
  </scstep>
  <scstep>
   <time name="dav">    1.66    1.66</time>
   <time name="total">    1.74    1.74</time>
   <dipole>
    <v name="dipole">      0.00000000       0.00000000      -0.01915313 </v>
    <i name="Tr[quadrupol]">  -8016.19581960 </i>
    <i name="Echarged">      0.00000000 </i>
    <i name="Edipol_quadrupol">      0.00000000 </i>
    <i name="Eion">      0.00000000 </i>
   </dipole>
   <energy>
    <i name="e_fr_energy">   -594.53921925 </i>
    <i name="e_wo_entrp">   -594.44807063 </i>
    <i name="e_0_energy">   -594.49364494 </i>
   </energy>
  </scstep>
  <scstep>
   <time name="dav">    1.69    1.69</time>
   <time name="total">    1.77    1.77</time>
   <dipole>
    <v name="dipole">      0.00000000       0.00000000      -0.01047507 </v>
    <i name="Tr[quadrupol]">  -8016.79630496 </i>
    <i name="Echarged">      0.00000000 </i>
    <i name="Edipol_quadrupol">      0.00000000 </i>
    <i name="Eion">      0.00000000 </i>
   </dipole>
   <energy>
    <i name="e_fr_energy">   -525.42059336 </i>
    <i name="e_wo_entrp">   -525.40414202 </i>
    <i name="e_0_energy">   -525.41236769 </i>
   </energy>
  </scstep>
  <scstep>
   <time name="dav">    1.83    1.83</time>
   <time name="total">    1.91    1.92</time>
   <dipole>
    <v name="dipole">      0.00000000       0.00000000      -0.01071989 </v>
    <i name="Tr[quadrupol]">  -8016.74439354 </i>
    <i name="Echarged">      0.00000000 </i>
    <i name="Edipol_quadrupol">      0.00000000 </i>
    <i name="Eion">      0.00000000 </i>
   </dipole>
   <energy>
    <i name="e_fr_energy">   -515.70926539 </i>
    <i name="e_wo_entrp">   -515.62188940 </i>
    <i name="e_0_energy">   -515.66557739 </i>
   </energy>
  </scstep>
  <scstep>
   <time name="dav">    1.85    1.85</time>
   <time name="total">    1.93    1.93</time>
   <dipole>
    <v name="dipole">      0.00000000       0.00000000       0.01042106 </v>
    <i name="Tr[quadrupol]">  -8017.53166395 </i>
    <i name="Echarged">      0.00000000 </i>
    <i name="Edipol_quadrupol">      0.00000000 </i>
    <i name="Eion">      0.00000000 </i>
   </dipole>
   <energy>
    <i name="e_fr_energy">   -498.23493537 </i>
    <i name="e_wo_entrp">   -498.23101451 </i>
    <i name="e_0_energy">   -498.23297494 </i>
   </energy>
  </scstep>
  <scstep>
   <time name="dav">    1.88    1.88</time>
   <time name="total">    1.97    1.97</time>
   <dipole>
    <v name="dipole">      0.00000000       0.00000000       0.01006983 </v>
    <i name="Tr[quadrupol]">  -8018.79501895 </i>
    <i name="Echarged">      0.00000000 </i>
    <i name="Edipol_quadrupol">      0.00000000 </i>
    <i name="Eion">      0.00000000 </i>
   </dipole>
   <energy>
    <i name="e_fr_energy">   -482.00043626 </i>
    <i name="e_wo_entrp">   -482.00043623 </i>
    <i name="e_0_energy">   -482.00043624 </i>
   </energy>
  </scstep>
  <scstep>
   <time name="dav">    1.98    1.98</time>
   <time name="total">    2.06    2.06</time>
   <dipole>
    <v name="dipole">      0.00000000       0.00000000      -0.02182351 </v>
    <i name="Tr[quadrupol]">  -8020.89059486 </i>
    <i name="Echarged">      0.00000000 </i>
    <i name="Edipol_quadrupol">      0.00000000 </i>
    <i name="Eion">      0.00000000 </i>
   </dipole>
   <energy>
    <i name="e_fr_energy">   -528.31188386 </i>
    <i name="e_wo_entrp">   -528.23324031 </i>
    <i name="e_0_energy">   -528.27256208 </i>
   </energy>
  </scstep>
  <scstep>
   <time name="dav">    1.80    1.80</time>
   <time name="total">    1.87    1.87</time>
   <dipole>
    <v name="dipole">      0.00000000       0.00000000      -0.00786595 </v>
    <i name="Tr[quadrupol]">  -8020.42160557 </i>
    <i name="Echarged">      0.00000000 </i>
    <i name="Edipol_quadrupol">      0.00000000 </i>
    <i name="Eion">      0.00000000 </i>
   </dipole>
   <energy>
    <i name="e_fr_energy">   -474.98997363 </i>
    <i name="e_wo_entrp">   -474.89534879 </i>
    <i name="e_0_energy">   -474.94266121 </i>
   </energy>
  </scstep>
  <scstep>
   <time name="dav">    1.83    1.83</time>
   <time name="total">    1.92    1.92</time>
   <dipole>
    <v name="dipole">      0.00000000       0.00000000       0.00379365 </v>
    <i name="Tr[quadrupol]">  -8020.36339729 </i>
    <i name="Echarged">      0.00000000 </i>
    <i name="Edipol_quadrupol">      0.00000000 </i>
    <i name="Eion">      0.00000000 </i>
   </dipole>
   <energy>
    <i name="e_fr_energy">   -478.06391222 </i>
    <i name="e_wo_entrp">   -478.06391222 </i>
    <i name="e_0_energy">   -478.06391222 </i>
   </energy>
  </scstep>
  <scstep>
   <time name="dav">    1.85    1.85</time>
   <time name="total">    1.93    1.93</time>
   <dipole>
    <v name="dipole">      0.00000000       0.00000000      -0.00332898 </v>
    <i name="Tr[quadrupol]">  -8020.94560307 </i>
    <i name="Echarged">      0.00000000 </i>
    <i name="Edipol_quadrupol">      0.00000000 </i>
    <i name="Eion">      0.00000000 </i>
   </dipole>
   <energy>
    <i name="e_fr_energy">   -477.43452853 </i>
    <i name="e_wo_entrp">   -477.43452853 </i>
    <i name="e_0_energy">   -477.43452853 </i>
   </energy>
  </scstep>
  <scstep>
   <time name="dav">    1.91    1.91</time>
   <time name="total">    1.99    1.99</time>
   <dipole>
    <v name="dipole">      0.00000000       0.00000000      -0.00344316 </v>
    <i name="Tr[quadrupol]">  -8021.56075911 </i>
    <i name="Echarged">      0.00000000 </i>
    <i name="Edipol_quadrupol">      0.00000000 </i>
    <i name="Eion">      0.00000000 </i>
   </dipole>
   <energy>
    <i name="e_fr_energy">   -478.05900381 </i>
    <i name="e_wo_entrp">   -478.05900380 </i>
    <i name="e_0_energy">   -478.05900381 </i>
   </energy>
  </scstep>
  <scstep>
   <time name="dav">    1.82    1.82</time>
   <time name="total">    1.90    1.90</time>
   <dipole>
    <v name="dipole">      0.00000000       0.00000000      -0.00247953 </v>
    <i name="Tr[quadrupol]">  -8022.17586084 </i>
    <i name="Echarged">      0.00000000 </i>
    <i name="Edipol_quadrupol">      0.00000000 </i>
    <i name="Eion">      0.00000000 </i>
   </dipole>
   <energy>
    <i name="e_fr_energy">   -477.69352020 </i>
    <i name="e_wo_entrp">   -477.69352014 </i>
    <i name="e_0_energy">   -477.69352017 </i>
   </energy>
  </scstep>
  <scstep>
   <time name="dav">    1.87    1.87</time>
   <time name="total">    1.95    1.95</time>
   <dipole>
    <v name="dipole">      0.00000000       0.00000000      -0.00205577 </v>
    <i name="Tr[quadrupol]">  -8022.50812993 </i>
    <i name="Echarged">      0.00000000 </i>
    <i name="Edipol_quadrupol">      0.00000000 </i>
    <i name="Eion">      0.00000000 </i>
   </dipole>
   <energy>
    <i name="e_fr_energy">   -477.27313010 </i>
    <i name="e_wo_entrp">   -477.27312991 </i>
    <i name="e_0_energy">   -477.27313000 </i>
   </energy>
  </scstep>
  <scstep>
   <time name="dav">    1.91    1.91</time>
   <time name="total">    1.99    1.99</time>
   <dipole>
    <v name="dipole">      0.00000000       0.00000000      -0.00162410 </v>
    <i name="Tr[quadrupol]">  -8022.69562135 </i>
    <i name="Echarged">      0.00000000 </i>
    <i name="Edipol_quadrupol">      0.00000000 </i>
    <i name="Eion">      0.00000000 </i>
   </dipole>
   <energy>
    <i name="e_fr_energy">   -477.05763002 </i>
    <i name="e_wo_entrp">   -477.05762953 </i>
    <i name="e_0_energy">   -477.05762977 </i>
   </energy>
  </scstep>
  <scstep>
   <time name="dav">    2.04    2.04</time>
   <time name="total">    2.12    2.12</time>
   <dipole>
    <v name="dipole">      0.00000000       0.00000000      -0.00119589 </v>
    <i name="Tr[quadrupol]">  -8022.83057919 </i>
    <i name="Echarged">      0.00000000 </i>
    <i name="Edipol_quadrupol">      0.00000000 </i>
    <i name="Eion">      0.00000000 </i>
   </dipole>
   <energy>
    <i name="e_fr_energy">   -476.93070626 </i>
    <i name="e_wo_entrp">   -476.93070517 </i>
    <i name="e_0_energy">   -476.93070572 </i>
   </energy>
  </scstep>
  <scstep>
   <time name="dav">    1.62    1.62</time>
   <time name="total">    1.70    1.70</time>
   <dipole>
    <v name="dipole">      0.00000000       0.00000000      -0.00122381 </v>
    <i name="Tr[quadrupol]">  -8022.82023750 </i>
    <i name="Echarged">      0.00000000 </i>
    <i name="Edipol_quadrupol">      0.00000000 </i>
    <i name="Eion">      0.00000000 </i>
   </dipole>
   <energy>
    <i name="e_fr_energy">   -476.93931911 </i>
    <i name="e_wo_entrp">   -476.93931810 </i>
    <i name="e_0_energy">   -476.93931860 </i>
   </energy>
  </scstep>
  <scstep>
   <time name="dav">    1.49    1.49</time>
   <time name="total">    1.58    1.58</time>
   <dipole>
    <v name="dipole">      0.00000000       0.00000000      -0.00122085 </v>
    <i name="Tr[quadrupol]">  -8022.82062077 </i>
    <i name="Echarged">      0.00000000 </i>
    <i name="Edipol_quadrupol">      0.00000000 </i>
    <i name="Eion">      0.00000000 </i>
   </dipole>
   <energy>
    <i name="e_fr_energy">   -476.93929117 </i>
    <i name="e_wo_entrp">   -476.93929015 </i>
    <i name="e_0_energy">   -476.93929066 </i>
   </energy>
  </scstep>
  <scstep>
   <time name="dav">    1.21    1.21</time>
   <time name="total">    1.32    1.32</time>
   <dipole>
    <v name="dipole">      0.00000000       0.00000000      -0.00121101 </v>
    <i name="Tr[quadrupol]">  -8022.82368628 </i>
    <i name="Echarged">      0.00000000 </i>
    <i name="Edipol_quadrupol">      0.00000000 </i>
    <i name="Eion">      0.00000000 </i>
   </dipole>
   <energy>
    <i name="e_fr_energy">   -476.93513860 </i>
    <i name="e_wo_entrp">   -476.93513757 </i>
    <i name="e_0_energy">   -476.93513808 </i>
   </energy>
  </scstep>
  <scstep>
   <time name="dav">    1.72    1.72</time>
   <time name="total">    1.81    1.81</time>
   <dipole>
    <v name="dipole">      0.00000000       0.00000000      -0.00165947 </v>
    <i name="Tr[quadrupol]">  -8022.71637594 </i>
    <i name="Echarged">      0.00000000 </i>
    <i name="Edipol_quadrupol">      0.00000000 </i>
    <i name="Eion">      0.00000000 </i>
   </dipole>
   <energy>
    <i name="e_fr_energy">   -476.94020801 </i>
    <i name="e_wo_entrp">   -476.94020776 </i>
    <i name="e_0_energy">   -476.94020789 </i>
   </energy>
  </scstep>
  <scstep>
   <time name="dav">    1.73    1.73</time>
   <time name="total">    1.81    1.81</time>
   <dipole>
    <v name="dipole">      0.00000000       0.00000000      -0.00198838 </v>
    <i name="Tr[quadrupol]">  -8022.64243165 </i>
    <i name="Echarged">      0.00000000 </i>
    <i name="Edipol_quadrupol">      0.00000000 </i>
    <i name="Eion">      0.00000000 </i>
   </dipole>
   <energy>
    <i name="e_fr_energy">   -476.97939088 </i>
    <i name="e_wo_entrp">   -476.97939086 </i>
    <i name="e_0_energy">   -476.97939087 </i>
   </energy>
  </scstep>
  <scstep>
   <time name="dav">    1.71    1.71</time>
   <time name="total">    1.79    1.79</time>
   <dipole>
    <v name="dipole">      0.00000000       0.00000000      -0.00248757 </v>
    <i name="Tr[quadrupol]">  -8022.53579149 </i>
    <i name="Echarged">      0.00000000 </i>
    <i name="Edipol_quadrupol">      0.00000000 </i>
    <i name="Eion">      0.00000000 </i>
   </dipole>
   <energy>
    <i name="e_fr_energy">   -477.03377315 </i>
    <i name="e_wo_entrp">   -477.03377315 </i>
    <i name="e_0_energy">   -477.03377315 </i>
   </energy>
  </scstep>
  <scstep>
   <time name="dav">    1.88    1.88</time>
   <time name="total">    1.96    1.96</time>
   <dipole>
    <v name="dipole">      0.00000000       0.00000000      -0.00224335 </v>
    <i name="Tr[quadrupol]">  -8022.66410481 </i>
    <i name="Echarged">      0.00000000 </i>
    <i name="Edipol_quadrupol">      0.00000000 </i>
    <i name="Eion">      0.00000000 </i>
   </dipole>
   <energy>
    <i name="e_fr_energy">   -476.60085811 </i>
    <i name="e_wo_entrp">   -476.60085811 </i>
    <i name="e_0_energy">   -476.60085811 </i>
   </energy>
  </scstep>
  <scstep>
   <time name="dav">    1.96    1.96</time>
   <time name="total">    2.04    2.04</time>
   <dipole>
    <v name="dipole">      0.00000000       0.00000000      -0.00162698 </v>
    <i name="Tr[quadrupol]">  -8022.86769001 </i>
    <i name="Echarged">      0.00000000 </i>
    <i name="Edipol_quadrupol">      0.00000000 </i>
    <i name="Eion">      0.00000000 </i>
   </dipole>
   <energy>
    <i name="e_fr_energy">   -476.18836970 </i>
    <i name="e_wo_entrp">   -476.18836968 </i>
    <i name="e_0_energy">   -476.18836969 </i>
   </energy>
  </scstep>
  <scstep>
   <time name="dav">    1.97    1.97</time>
   <time name="total">    2.06    2.06</time>
   <dipole>
    <v name="dipole">      0.00000000       0.00000000      -0.00097778 </v>
    <i name="Tr[quadrupol]">  -8023.01741699 </i>
    <i name="Echarged">      0.00000000 </i>
    <i name="Edipol_quadrupol">      0.00000000 </i>
    <i name="Eion">      0.00000000 </i>
   </dipole>
   <energy>
    <i name="e_fr_energy">   -475.90019882 </i>
    <i name="e_wo_entrp">   -475.90019681 </i>
    <i name="e_0_energy">   -475.90019781 </i>
   </energy>
  </scstep>
  <scstep>
   <time name="dav">    1.95    1.95</time>
   <time name="total">    2.03    2.03</time>
   <dipole>
    <v name="dipole">      0.00000000       0.00000000       0.00109875 </v>
    <i name="Tr[quadrupol]">  -8023.52376286 </i>
    <i name="Echarged">      0.00000000 </i>
    <i name="Edipol_quadrupol">      0.00000000 </i>
    <i name="Eion">      0.00000000 </i>
   </dipole>
   <energy>
    <i name="e_fr_energy">   -475.18503847 </i>
    <i name="e_wo_entrp">   -475.14746919 </i>
    <i name="e_0_energy">   -475.16625383 </i>
   </energy>
  </scstep>
  <scstep>
   <time name="dav">    1.92    1.92</time>
   <time name="total">    2.00    2.00</time>
   <dipole>
    <v name="dipole">      0.00000000       0.00000000       0.00294628 </v>
    <i name="Tr[quadrupol]">  -8024.00715547 </i>
    <i name="Echarged">      0.00000000 </i>
    <i name="Edipol_quadrupol">      0.00000000 </i>
    <i name="Eion">      0.00000000 </i>
   </dipole>
   <energy>
    <i name="e_fr_energy">   -475.16890527 </i>
    <i name="e_wo_entrp">   -475.01215286 </i>
    <i name="e_0_energy">   -475.09052906 </i>
   </energy>
  </scstep>
  <scstep>
   <time name="dav">    1.66    1.66</time>
   <time name="total">    1.74    1.74</time>
   <dipole>
    <v name="dipole">      0.00000000       0.00000000      -0.01009788 </v>
    <i name="Tr[quadrupol]">  -8024.21118168 </i>
    <i name="Echarged">      0.00000000 </i>
    <i name="Edipol_quadrupol">      0.00000000 </i>
    <i name="Eion">      0.00000000 </i>
   </dipole>
   <energy>
    <i name="e_fr_energy">   -475.35343396 </i>
    <i name="e_wo_entrp">   -475.23995557 </i>
    <i name="e_0_energy">   -475.29669476 </i>
   </energy>
  </scstep>
  <scstep>
   <time name="dav">    1.76    1.76</time>
   <time name="total">    1.84    1.84</time>
   <dipole>
    <v name="dipole">      0.00000000       0.00000000      -0.01130938 </v>
    <i name="Tr[quadrupol]">  -8024.24125475 </i>
    <i name="Echarged">      0.00000000 </i>
    <i name="Edipol_quadrupol">      0.00000000 </i>
    <i name="Eion">      0.00000000 </i>
   </dipole>
   <energy>
    <i name="e_fr_energy">   -475.21711137 </i>
    <i name="e_wo_entrp">   -475.08952596 </i>
    <i name="e_0_energy">   -475.15331867 </i>
   </energy>
  </scstep>
  <scstep>
   <time name="dav">    1.88    1.88</time>
   <time name="total">    1.97    1.97</time>
   <dipole>
    <v name="dipole">      0.00000000       0.00000000      -0.01130748 </v>
    <i name="Tr[quadrupol]">  -8024.25824604 </i>
    <i name="Echarged">      0.00000000 </i>
    <i name="Edipol_quadrupol">      0.00000000 </i>
    <i name="Eion">      0.00000000 </i>
   </dipole>
   <energy>
    <i name="e_fr_energy">   -475.25177668 </i>
    <i name="e_wo_entrp">   -475.13258173 </i>
    <i name="e_0_energy">   -475.19217921 </i>
   </energy>
  </scstep>
  <scstep>
   <time name="dav">    1.97    1.97</time>
   <time name="total">    2.05    2.05</time>
   <dipole>
    <v name="dipole">      0.00000000       0.00000000      -0.01225792 </v>
    <i name="Tr[quadrupol]">  -8024.19124514 </i>
    <i name="Echarged">      0.00000000 </i>
    <i name="Edipol_quadrupol">      0.00000000 </i>
    <i name="Eion">      0.00000000 </i>
   </dipole>
   <energy>
    <i name="e_fr_energy">   -475.02341003 </i>
    <i name="e_wo_entrp">   -474.86382131 </i>
    <i name="e_0_energy">   -474.94361567 </i>
   </energy>
  </scstep>
  <scstep>
   <time name="dav">    1.80    1.80</time>
   <time name="total">    1.89    1.89</time>
   <dipole>
    <v name="dipole">      0.00000000       0.00000000      -0.01176501 </v>
    <i name="Tr[quadrupol]">  -8024.19405475 </i>
    <i name="Echarged">      0.00000000 </i>
    <i name="Edipol_quadrupol">      0.00000000 </i>
    <i name="Eion">      0.00000000 </i>
   </dipole>
   <energy>
    <i name="e_fr_energy">   -475.02998122 </i>
    <i name="e_wo_entrp">   -474.86839972 </i>
    <i name="e_0_energy">   -474.94919047 </i>
   </energy>
  </scstep>
  <scstep>
   <time name="dav">    1.91    1.91</time>
   <time name="total">    1.99    1.99</time>
   <dipole>
    <v name="dipole">      0.00000000       0.00000000      -0.01118063 </v>
    <i name="Tr[quadrupol]">  -8024.24039116 </i>
    <i name="Echarged">      0.00000000 </i>
    <i name="Edipol_quadrupol">      0.00000000 </i>
    <i name="Eion">      0.00000000 </i>
   </dipole>
   <energy>
    <i name="e_fr_energy">   -475.05619404 </i>
    <i name="e_wo_entrp">   -474.91625570 </i>
    <i name="e_0_energy">   -474.98622487 </i>
   </energy>
  </scstep>
  <scstep>
   <time name="dav">    1.88    1.88</time>
   <time name="total">    1.98    1.98</time>
   <dipole>
    <v name="dipole">      0.00000000       0.00000000      -0.01009726 </v>
    <i name="Tr[quadrupol]">  -8024.84616994 </i>
    <i name="Echarged">      0.00000000 </i>
    <i name="Edipol_quadrupol">      0.00000000 </i>
    <i name="Eion">      0.00000000 </i>
   </dipole>
   <energy>
    <i name="e_fr_energy">   -476.36592252 </i>
    <i name="e_wo_entrp">   -476.29977870 </i>
    <i name="e_0_energy">   -476.33285061 </i>
   </energy>
  </scstep>
  <scstep>
   <time name="dav">    1.75    1.75</time>
   <time name="total">    1.83    1.83</time>
   <dipole>
    <v name="dipole">      0.00000000       0.00000000      -0.01145517 </v>
    <i name="Tr[quadrupol]">  -8024.94411672 </i>
    <i name="Echarged">      0.00000000 </i>
    <i name="Edipol_quadrupol">      0.00000000 </i>
    <i name="Eion">      0.00000000 </i>
   </dipole>
   <energy>
    <i name="e_fr_energy">   -476.27069149 </i>
    <i name="e_wo_entrp">   -476.20094190 </i>
    <i name="e_0_energy">   -476.23581670 </i>
   </energy>
  </scstep>
  <scstep>
   <time name="dav">    1.71    1.71</time>
   <time name="total">    1.79    1.79</time>
   <dipole>
    <v name="dipole">      0.00000000       0.00000000      -0.01170377 </v>
    <i name="Tr[quadrupol]">  -8024.94972963 </i>
    <i name="Echarged">      0.00000000 </i>
    <i name="Edipol_quadrupol">      0.00000000 </i>
    <i name="Eion">      0.00000000 </i>
   </dipole>
   <energy>
    <i name="e_fr_energy">   -476.22298549 </i>
    <i name="e_wo_entrp">   -476.15406226 </i>
    <i name="e_0_energy">   -476.18852388 </i>
   </energy>
  </scstep>
  <scstep>
   <time name="dav">    1.81    1.81</time>
   <time name="total">    1.89    1.90</time>
   <dipole>
    <v name="dipole">      0.00000000       0.00000000      -0.01221701 </v>
    <i name="Tr[quadrupol]">  -8024.96547921 </i>
    <i name="Echarged">      0.00000000 </i>
    <i name="Edipol_quadrupol">      0.00000000 </i>
    <i name="Eion">      0.00000000 </i>
   </dipole>
   <energy>
    <i name="e_fr_energy">   -476.17691880 </i>
    <i name="e_wo_entrp">   -476.10813949 </i>
    <i name="e_0_energy">   -476.14252914 </i>
   </energy>
  </scstep>
  <scstep>
   <time name="dav">    1.77    1.77</time>
   <time name="total">    1.85    1.85</time>
   <dipole>
    <v name="dipole">      0.00000000       0.00000000      -0.01245391 </v>
    <i name="Tr[quadrupol]">  -8024.96318305 </i>
    <i name="Echarged">      0.00000000 </i>
    <i name="Edipol_quadrupol">      0.00000000 </i>
    <i name="Eion">      0.00000000 </i>
   </dipole>
   <energy>
    <i name="e_fr_energy">   -476.09801313 </i>
    <i name="e_wo_entrp">   -476.03024800 </i>
    <i name="e_0_energy">   -476.06413057 </i>
   </energy>
  </scstep>
  <scstep>
   <time name="dav">    1.80    1.80</time>
   <time name="total">    1.89    1.89</time>
   <dipole>
    <v name="dipole">      0.00000000       0.00000000      -0.01310115 </v>
    <i name="Tr[quadrupol]">  -8025.01401058 </i>
    <i name="Echarged">      0.00000000 </i>
    <i name="Edipol_quadrupol">      0.00000000 </i>
    <i name="Eion">      0.00000000 </i>
   </dipole>
   <energy>
    <i name="e_fr_energy">   -475.93411706 </i>
    <i name="e_wo_entrp">   -475.86656083 </i>
    <i name="e_0_energy">   -475.90033895 </i>
   </energy>
  </scstep>
  <scstep>
   <time name="dav">    1.82    1.82</time>
   <time name="total">    1.90    1.90</time>
   <dipole>
    <v name="dipole">      0.00000000       0.00000000      -0.01540449 </v>
    <i name="Tr[quadrupol]">  -8025.11633682 </i>
    <i name="Echarged">      0.00000000 </i>
    <i name="Edipol_quadrupol">      0.00000000 </i>
    <i name="Eion">      0.00000000 </i>
   </dipole>
   <energy>
    <i name="e_fr_energy">   -475.06632134 </i>
    <i name="e_wo_entrp">   -474.94531898 </i>
    <i name="e_0_energy">   -475.00582016 </i>
   </energy>
  </scstep>
  <scstep>
   <time name="dav">    1.91    1.91</time>
   <time name="total">    1.99    1.99</time>
   <dipole>
    <v name="dipole">      0.00000000       0.00000000      -0.01563836 </v>
    <i name="Tr[quadrupol]">  -8025.09522644 </i>
    <i name="Echarged">      0.00000000 </i>
    <i name="Edipol_quadrupol">      0.00000000 </i>
    <i name="Eion">      0.00000000 </i>
   </dipole>
   <energy>
    <i name="e_fr_energy">   -474.79120571 </i>
    <i name="e_wo_entrp">   -474.59810646 </i>
    <i name="e_0_energy">   -474.69465608 </i>
   </energy>
  </scstep>
  <scstep>
   <time name="dav">    1.60    1.60</time>
   <time name="total">    1.68    1.68</time>
   <dipole>
    <v name="dipole">      0.00000000       0.00000000      -0.01373817 </v>
    <i name="Tr[quadrupol]">  -8025.09833497 </i>
    <i name="Echarged">      0.00000000 </i>
    <i name="Edipol_quadrupol">      0.00000000 </i>
    <i name="Eion">      0.00000000 </i>
   </dipole>
   <energy>
    <i name="e_fr_energy">   -474.90622326 </i>
    <i name="e_wo_entrp">   -474.72850892 </i>
    <i name="e_0_energy">   -474.81736609 </i>
   </energy>
  </scstep>
  <scstep>
   <time name="dav">    1.75    1.75</time>
   <time name="total">    1.84    1.84</time>
   <dipole>
    <v name="dipole">      0.00000000       0.00000000      -0.01317948 </v>
    <i name="Tr[quadrupol]">  -8025.18554667 </i>
    <i name="Echarged">      0.00000000 </i>
    <i name="Edipol_quadrupol">      0.00000000 </i>
    <i name="Eion">      0.00000000 </i>
   </dipole>
   <energy>
    <i name="e_fr_energy">   -474.84053036 </i>
    <i name="e_wo_entrp">   -474.64673316 </i>
    <i name="e_0_energy">   -474.74363176 </i>
   </energy>
  </scstep>
  <scstep>
   <time name="dav">    1.80    1.80</time>
   <time name="total">    1.88    1.88</time>
   <dipole>
    <v name="dipole">      0.00000000       0.00000000      -0.01286722 </v>
    <i name="Tr[quadrupol]">  -8025.82852110 </i>
    <i name="Echarged">      0.00000000 </i>
    <i name="Edipol_quadrupol">      0.00000000 </i>
    <i name="Eion">      0.00000000 </i>
   </dipole>
   <energy>
    <i name="e_fr_energy">   -474.90668313 </i>
    <i name="e_wo_entrp">   -474.71119880 </i>
    <i name="e_0_energy">   -474.80894096 </i>
   </energy>
  </scstep>
  <scstep>
   <time name="dav">    1.79    1.79</time>
   <time name="total">    1.87    1.87</time>
   <dipole>
    <v name="dipole">      0.00000000       0.00000000      -0.01120168 </v>
    <i name="Tr[quadrupol]">  -8025.91881842 </i>
    <i name="Echarged">      0.00000000 </i>
    <i name="Edipol_quadrupol">      0.00000000 </i>
    <i name="Eion">      0.00000000 </i>
   </dipole>
   <energy>
    <i name="e_fr_energy">   -474.78176158 </i>
    <i name="e_wo_entrp">   -474.57809628 </i>
    <i name="e_0_energy">   -474.67992893 </i>
   </energy>
  </scstep>
  <scstep>
   <time name="dav">    1.82    1.82</time>
   <time name="total">    1.90    1.90</time>
   <dipole>
    <v name="dipole">      0.00000000       0.00000000      -0.01074984 </v>
    <i name="Tr[quadrupol]">  -8025.89366175 </i>
    <i name="Echarged">      0.00000000 </i>
    <i name="Edipol_quadrupol">      0.00000000 </i>
    <i name="Eion">      0.00000000 </i>
   </dipole>
   <energy>
    <i name="e_fr_energy">   -474.82060879 </i>
    <i name="e_wo_entrp">   -474.64937116 </i>
    <i name="e_0_energy">   -474.73498998 </i>
   </energy>
  </scstep>
  <scstep>
   <time name="dav">    1.76    1.76</time>
   <time name="total">    1.84    1.84</time>
   <dipole>
    <v name="dipole">      0.00000000       0.00000000       0.07313148 </v>
    <i name="Tr[quadrupol]">  -8026.28021546 </i>
    <i name="Echarged">      0.00000000 </i>
    <i name="Edipol_quadrupol">      0.00000000 </i>
    <i name="Eion">      0.00000000 </i>
   </dipole>
   <energy>
    <i name="e_fr_energy">   -475.08814983 </i>
    <i name="e_wo_entrp">   -474.98175890 </i>
    <i name="e_0_energy">   -475.03495436 </i>
   </energy>
  </scstep>
  <scstep>
   <time name="dav">    1.78    1.78</time>
   <time name="total">    1.87    1.87</time>
   <dipole>
    <v name="dipole">      0.00000000       0.00000000       0.10022550 </v>
    <i name="Tr[quadrupol]">  -8026.36086018 </i>
    <i name="Echarged">      0.00000000 </i>
    <i name="Edipol_quadrupol">      0.00000000 </i>
    <i name="Eion">      0.00000000 </i>
   </dipole>
   <energy>
    <i name="e_fr_energy">   -475.30417087 </i>
    <i name="e_wo_entrp">   -475.20499958 </i>
    <i name="e_0_energy">   -475.25458523 </i>
   </energy>
  </scstep>
  <scstep>
   <time name="dav">    1.74    1.74</time>
   <time name="total">    1.82    1.82</time>
   <dipole>
    <v name="dipole">      0.00000000       0.00000000       0.04003798 </v>
    <i name="Tr[quadrupol]">  -8026.16941871 </i>
    <i name="Echarged">      0.00000000 </i>
    <i name="Edipol_quadrupol">      0.00000000 </i>
    <i name="Eion">      0.00000000 </i>
   </dipole>
   <energy>
    <i name="e_fr_energy">   -475.18140026 </i>
    <i name="e_wo_entrp">   -475.05091098 </i>
    <i name="e_0_energy">   -475.11615562 </i>
   </energy>
  </scstep>
  <scstep>
   <time name="dav">    1.62    1.62</time>
   <time name="total">    1.70    1.70</time>
   <dipole>
    <v name="dipole">      0.00000000       0.00000000       0.08019238 </v>
    <i name="Tr[quadrupol]">  -8026.19719481 </i>
    <i name="Echarged">      0.00000000 </i>
    <i name="Edipol_quadrupol">      0.00000000 </i>
    <i name="Eion">      0.00000000 </i>
   </dipole>
   <energy>
    <i name="e_fr_energy">   -475.02074938 </i>
    <i name="e_wo_entrp">   -474.88633025 </i>
    <i name="e_0_energy">   -474.95353982 </i>
   </energy>
  </scstep>
  <scstep>
   <time name="dav">    1.66    1.66</time>
   <time name="total">    1.74    1.74</time>
   <dipole>
    <v name="dipole">      0.00000000       0.00000000       0.10943875 </v>
    <i name="Tr[quadrupol]">  -8026.29674345 </i>
    <i name="Echarged">      0.00000000 </i>
    <i name="Edipol_quadrupol">      0.00000000 </i>
    <i name="Eion">      0.00000000 </i>
   </dipole>
   <energy>
    <i name="e_fr_energy">   -474.89065807 </i>
    <i name="e_wo_entrp">   -474.78553335 </i>
    <i name="e_0_energy">   -474.83809571 </i>
   </energy>
  </scstep>
  <scstep>
   <time name="dav">    1.83    1.83</time>
   <time name="total">    1.92    1.92</time>
   <dipole>
    <v name="dipole">      0.00000000       0.00000000       0.10818030 </v>
    <i name="Tr[quadrupol]">  -8026.33124984 </i>
    <i name="Echarged">      0.00000000 </i>
    <i name="Edipol_quadrupol">      0.00000000 </i>
    <i name="Eion">      0.00000000 </i>
   </dipole>
   <energy>
    <i name="e_fr_energy">   -474.84576725 </i>
    <i name="e_wo_entrp">   -474.79085854 </i>
    <i name="e_0_energy">   -474.81831290 </i>
   </energy>
  </scstep>
  <scstep>
   <time name="dav">    1.84    1.84</time>
   <time name="total">    1.92    1.92</time>
   <dipole>
    <v name="dipole">      0.00000000       0.00000000       0.00804587 </v>
    <i name="Tr[quadrupol]">  -8026.28534470 </i>
    <i name="Echarged">      0.00000000 </i>
    <i name="Edipol_quadrupol">      0.00000000 </i>
    <i name="Eion">      0.00000000 </i>
   </dipole>
   <energy>
    <i name="e_fr_energy">   -474.75579969 </i>
    <i name="e_wo_entrp">   -474.68310651 </i>
    <i name="e_0_energy">   -474.71945310 </i>
   </energy>
  </scstep>
  <scstep>
   <time name="dav">    1.84    1.84</time>
   <time name="total">    1.93    1.93</time>
   <dipole>
    <v name="dipole">      0.00000000       0.00000000      -0.02520973 </v>
    <i name="Tr[quadrupol]">  -8026.43233692 </i>
    <i name="Echarged">      0.00000000 </i>
    <i name="Edipol_quadrupol">      0.00000000 </i>
    <i name="Eion">      0.00000000 </i>
   </dipole>
   <energy>
    <i name="e_fr_energy">   -474.84168381 </i>
    <i name="e_wo_entrp">   -474.81880723 </i>
    <i name="e_0_energy">   -474.83024552 </i>
   </energy>
  </scstep>
  <scstep>
   <time name="dav">    1.86    1.86</time>
   <time name="total">    1.94    1.94</time>
   <dipole>
    <v name="dipole">      0.00000000       0.00000000      -0.03511248 </v>
    <i name="Tr[quadrupol]">  -8026.50753808 </i>
    <i name="Echarged">      0.00000000 </i>
    <i name="Edipol_quadrupol">      0.00000000 </i>
    <i name="Eion">      0.00000000 </i>
   </dipole>
   <energy>
    <i name="e_fr_energy">   -474.73101503 </i>
    <i name="e_wo_entrp">   -474.64475436 </i>
    <i name="e_0_energy">   -474.68788469 </i>
   </energy>
  </scstep>
  <scstep>
   <time name="dav">    1.96    1.96</time>
   <time name="total">    2.04    2.04</time>
   <dipole>
    <v name="dipole">      0.00000000       0.00000000      -0.03972932 </v>
    <i name="Tr[quadrupol]">  -8026.64412054 </i>
    <i name="Echarged">      0.00000000 </i>
    <i name="Edipol_quadrupol">      0.00000000 </i>
    <i name="Eion">      0.00000000 </i>
   </dipole>
   <energy>
    <i name="e_fr_energy">   -474.72201770 </i>
    <i name="e_wo_entrp">   -474.61172036 </i>
    <i name="e_0_energy">   -474.66686903 </i>
   </energy>
  </scstep>
  <scstep>
   <time name="dav">    1.84    1.84</time>
   <time name="total">    1.92    1.93</time>
   <dipole>
    <v name="dipole">      0.00000000       0.00000000      -0.04061768 </v>
    <i name="Tr[quadrupol]">  -8026.72089247 </i>
    <i name="Echarged">      0.00000000 </i>
    <i name="Edipol_quadrupol">      0.00000000 </i>
    <i name="Eion">      0.00000000 </i>
   </dipole>
   <energy>
    <i name="e_fr_energy">   -474.71794211 </i>
    <i name="e_wo_entrp">   -474.57945239 </i>
    <i name="e_0_energy">   -474.64869725 </i>
   </energy>
  </scstep>
  <scstep>
   <time name="dav">    1.74    1.74</time>
   <time name="total">    1.82    1.82</time>
   <dipole>
    <v name="dipole">      0.00000000       0.00000000       0.01935017 </v>
    <i name="Tr[quadrupol]">  -8026.72720931 </i>
    <i name="Echarged">      0.00000000 </i>
    <i name="Edipol_quadrupol">      0.00000000 </i>
    <i name="Eion">      0.00000000 </i>
   </dipole>
   <energy>
    <i name="e_fr_energy">   -474.72645723 </i>
    <i name="e_wo_entrp">   -474.58451066 </i>
    <i name="e_0_energy">   -474.65548394 </i>
   </energy>
  </scstep>
  <scstep>
   <time name="dav">    1.82    1.82</time>
   <time name="total">    1.90    1.90</time>
   <dipole>
    <v name="dipole">      0.00000000       0.00000000       0.03696495 </v>
    <i name="Tr[quadrupol]">  -8026.82037419 </i>
    <i name="Echarged">      0.00000000 </i>
    <i name="Edipol_quadrupol">      0.00000000 </i>
    <i name="Eion">      0.00000000 </i>
   </dipole>
   <energy>
    <i name="e_fr_energy">   -474.79083498 </i>
    <i name="e_wo_entrp">   -474.73014911 </i>
    <i name="e_0_energy">   -474.76049205 </i>
   </energy>
  </scstep>
  <scstep>
   <time name="dav">    1.83    1.83</time>
   <time name="total">    1.91    1.92</time>
   <dipole>
    <v name="dipole">      0.00000000       0.00000000       0.00577219 </v>
    <i name="Tr[quadrupol]">  -8026.89721238 </i>
    <i name="Echarged">      0.00000000 </i>
    <i name="Edipol_quadrupol">      0.00000000 </i>
    <i name="Eion">      0.00000000 </i>
   </dipole>
   <energy>
    <i name="e_fr_energy">   -474.72220547 </i>
    <i name="e_wo_entrp">   -474.56921587 </i>
    <i name="e_0_energy">   -474.64571067 </i>
   </energy>
  </scstep>
  <scstep>
   <time name="dav">    1.79    1.79</time>
   <time name="total">    1.87    1.87</time>
   <dipole>
    <v name="dipole">      0.00000000       0.00000000       0.02387664 </v>
    <i name="Tr[quadrupol]">  -8026.97145998 </i>
    <i name="Echarged">      0.00000000 </i>
    <i name="Edipol_quadrupol">      0.00000000 </i>
    <i name="Eion">      0.00000000 </i>
   </dipole>
   <energy>
    <i name="e_fr_energy">   -474.75579253 </i>
    <i name="e_wo_entrp">   -474.61713823 </i>
    <i name="e_0_energy">   -474.68646538 </i>
   </energy>
  </scstep>
  <scstep>
   <time name="dav">    1.75    1.75</time>
   <time name="total">    1.84    1.84</time>
   <dipole>
    <v name="dipole">      0.00000000       0.00000000       0.02714221 </v>
    <i name="Tr[quadrupol]">  -8026.99764066 </i>
    <i name="Echarged">      0.00000000 </i>
    <i name="Edipol_quadrupol">      0.00000000 </i>
    <i name="Eion">      0.00000000 </i>
   </dipole>
   <energy>
    <i name="e_fr_energy">   -474.82427587 </i>
    <i name="e_wo_entrp">   -474.68602027 </i>
    <i name="e_0_energy">   -474.75514807 </i>
   </energy>
  </scstep>
  <scstep>
   <time name="dav">    1.63    1.63</time>
   <time name="total">    1.71    1.71</time>
   <dipole>
    <v name="dipole">      0.00000000       0.00000000       0.02750759 </v>
    <i name="Tr[quadrupol]">  -8027.03073802 </i>
    <i name="Echarged">      0.00000000 </i>
    <i name="Edipol_quadrupol">      0.00000000 </i>
    <i name="Eion">      0.00000000 </i>
   </dipole>
   <energy>
    <i name="e_fr_energy">   -474.91439701 </i>
    <i name="e_wo_entrp">   -474.77855324 </i>
    <i name="e_0_energy">   -474.84647513 </i>
   </energy>
  </scstep>
  <scstep>
   <time name="dav">    1.60    1.60</time>
   <time name="total">    1.68    1.68</time>
   <dipole>
    <v name="dipole">      0.00000000       0.00000000       0.02206817 </v>
    <i name="Tr[quadrupol]">  -8026.99807421 </i>
    <i name="Echarged">      0.00000000 </i>
    <i name="Edipol_quadrupol">      0.00000000 </i>
    <i name="Eion">      0.00000000 </i>
   </dipole>
   <energy>
    <i name="e_fr_energy">   -474.96829033 </i>
    <i name="e_wo_entrp">   -474.83171999 </i>
    <i name="e_0_energy">   -474.90000516 </i>
   </energy>
  </scstep>
  <scstep>
   <time name="dav">    1.58    1.58</time>
   <time name="total">    1.66    1.66</time>
   <dipole>
    <v name="dipole">      0.00000000       0.00000000       0.01896275 </v>
    <i name="Tr[quadrupol]">  -8026.96966223 </i>
    <i name="Echarged">      0.00000000 </i>
    <i name="Edipol_quadrupol">      0.00000000 </i>
    <i name="Eion">      0.00000000 </i>
   </dipole>
   <energy>
    <i name="e_fr_energy">   -474.93650509 </i>
    <i name="e_wo_entrp">   -474.80510076 </i>
    <i name="e_0_energy">   -474.87080293 </i>
   </energy>
  </scstep>
  <scstep>
   <time name="dav">    1.59    1.59</time>
   <time name="total">    1.67    1.67</time>
   <dipole>
    <v name="dipole">      0.00000000       0.00000000       0.01990076 </v>
    <i name="Tr[quadrupol]">  -8027.03212149 </i>
    <i name="Echarged">      0.00000000 </i>
    <i name="Edipol_quadrupol">      0.00000000 </i>
    <i name="Eion">      0.00000000 </i>
   </dipole>
   <energy>
    <i name="e_fr_energy">   -474.87116501 </i>
    <i name="e_wo_entrp">   -474.74655173 </i>
    <i name="e_0_energy">   -474.80885837 </i>
   </energy>
  </scstep>
  <scstep>
   <time name="dav">    1.54    1.54</time>
   <time name="total">    1.62    1.62</time>
   <dipole>
    <v name="dipole">      0.00000000       0.00000000       0.02049393 </v>
    <i name="Tr[quadrupol]">  -8027.03591908 </i>
    <i name="Echarged">      0.00000000 </i>
    <i name="Edipol_quadrupol">      0.00000000 </i>
    <i name="Eion">      0.00000000 </i>
   </dipole>
   <energy>
    <i name="e_fr_energy">   -474.83465968 </i>
    <i name="e_wo_entrp">   -474.72143429 </i>
    <i name="e_0_energy">   -474.77804699 </i>
   </energy>
  </scstep>
  <scstep>
   <time name="dav">    1.54    1.54</time>
   <time name="total">    1.62    1.63</time>
   <dipole>
    <v name="dipole">      0.00000000       0.00000000       0.01937210 </v>
    <i name="Tr[quadrupol]">  -8027.06394145 </i>
    <i name="Echarged">      0.00000000 </i>
    <i name="Edipol_quadrupol">      0.00000000 </i>
    <i name="Eion">      0.00000000 </i>
   </dipole>
   <energy>
    <i name="e_fr_energy">   -474.80604180 </i>
    <i name="e_wo_entrp">   -474.69321789 </i>
    <i name="e_0_energy">   -474.74962984 </i>
   </energy>
  </scstep>
  <scstep>
   <time name="dav">    1.63    1.63</time>
   <time name="total">    1.71    1.71</time>
   <dipole>
    <v name="dipole">      0.00000000       0.00000000       0.01556034 </v>
    <i name="Tr[quadrupol]">  -8027.05424453 </i>
    <i name="Echarged">      0.00000000 </i>
    <i name="Edipol_quadrupol">      0.00000000 </i>
    <i name="Eion">      0.00000000 </i>
   </dipole>
   <energy>
    <i name="e_fr_energy">   -474.79538959 </i>
    <i name="e_wo_entrp">   -474.68309740 </i>
    <i name="e_0_energy">   -474.73924349 </i>
   </energy>
  </scstep>
  <scstep>
   <time name="dav">    1.61    1.61</time>
   <time name="total">    1.69    1.70</time>
   <dipole>
    <v name="dipole">      0.00000000       0.00000000       0.01236236 </v>
    <i name="Tr[quadrupol]">  -8027.05086538 </i>
    <i name="Echarged">      0.00000000 </i>
    <i name="Edipol_quadrupol">      0.00000000 </i>
    <i name="Eion">      0.00000000 </i>
   </dipole>
   <energy>
    <i name="e_fr_energy">   -474.79621871 </i>
    <i name="e_wo_entrp">   -474.67620488 </i>
    <i name="e_0_energy">   -474.73621180 </i>
   </energy>
  </scstep>
  <scstep>
   <time name="dav">    1.53    1.53</time>
   <time name="total">    1.61    1.61</time>
   <dipole>
    <v name="dipole">      0.00000000       0.00000000       0.01575418 </v>
    <i name="Tr[quadrupol]">  -8027.05167338 </i>
    <i name="Echarged">      0.00000000 </i>
    <i name="Edipol_quadrupol">      0.00000000 </i>
    <i name="Eion">      0.00000000 </i>
   </dipole>
   <energy>
    <i name="e_fr_energy">   -474.80748765 </i>
    <i name="e_wo_entrp">   -474.68263973 </i>
    <i name="e_0_energy">   -474.74506369 </i>
   </energy>
  </scstep>
  <scstep>
   <time name="dav">    1.55    1.55</time>
   <time name="total">    1.63    1.63</time>
   <dipole>
    <v name="dipole">      0.00000000       0.00000000       0.01578366 </v>
    <i name="Tr[quadrupol]">  -8027.06550345 </i>
    <i name="Echarged">      0.00000000 </i>
    <i name="Edipol_quadrupol">      0.00000000 </i>
    <i name="Eion">      0.00000000 </i>
   </dipole>
   <energy>
    <i name="e_fr_energy">   -474.83317117 </i>
    <i name="e_wo_entrp">   -474.70267836 </i>
    <i name="e_0_energy">   -474.76792476 </i>
   </energy>
  </scstep>
  <scstep>
   <time name="dav">    1.53    1.53</time>
   <time name="total">    1.61    1.61</time>
   <dipole>
    <v name="dipole">      0.00000000       0.00000000       0.01547819 </v>
    <i name="Tr[quadrupol]">  -8027.06687428 </i>
    <i name="Echarged">      0.00000000 </i>
    <i name="Edipol_quadrupol">      0.00000000 </i>
    <i name="Eion">      0.00000000 </i>
   </dipole>
   <energy>
    <i name="e_fr_energy">   -474.85397247 </i>
    <i name="e_wo_entrp">   -474.72257690 </i>
    <i name="e_0_energy">   -474.78827468 </i>
   </energy>
  </scstep>
  <scstep>
   <time name="dav">    1.54    1.54</time>
   <time name="total">    1.62    1.62</time>
   <dipole>
    <v name="dipole">      0.00000000       0.00000000       0.01464565 </v>
    <i name="Tr[quadrupol]">  -8027.06688363 </i>
    <i name="Echarged">      0.00000000 </i>
    <i name="Edipol_quadrupol">      0.00000000 </i>
    <i name="Eion">      0.00000000 </i>
   </dipole>
   <energy>
    <i name="e_fr_energy">   -474.86880425 </i>
    <i name="e_wo_entrp">   -474.73643052 </i>
    <i name="e_0_energy">   -474.80261738 </i>
   </energy>
  </scstep>
  <scstep>
   <time name="dav">    1.53    1.53</time>
   <time name="total">    1.62    1.62</time>
   <dipole>
    <v name="dipole">      0.00000000       0.00000000       0.01200949 </v>
    <i name="Tr[quadrupol]">  -8027.06063941 </i>
    <i name="Echarged">      0.00000000 </i>
    <i name="Edipol_quadrupol">      0.00000000 </i>
    <i name="Eion">      0.00000000 </i>
   </dipole>
   <energy>
    <i name="e_fr_energy">   -474.86694683 </i>
    <i name="e_wo_entrp">   -474.73757695 </i>
    <i name="e_0_energy">   -474.80226189 </i>
   </energy>
  </scstep>
  <scstep>
   <time name="dav">    1.54    1.54</time>
   <time name="total">    1.62    1.62</time>
   <dipole>
    <v name="dipole">      0.00000000       0.00000000       0.01220392 </v>
    <i name="Tr[quadrupol]">  -8027.07504596 </i>
    <i name="Echarged">      0.00000000 </i>
    <i name="Edipol_quadrupol">      0.00000000 </i>
    <i name="Eion">      0.00000000 </i>
   </dipole>
   <energy>
    <i name="e_fr_energy">   -474.85815604 </i>
    <i name="e_wo_entrp">   -474.73048449 </i>
    <i name="e_0_energy">   -474.79432027 </i>
   </energy>
  </scstep>
  <scstep>
   <time name="dav">    1.49    1.49</time>
   <time name="total">    1.58    1.58</time>
   <dipole>
    <v name="dipole">      0.00000000       0.00000000       0.01117287 </v>
    <i name="Tr[quadrupol]">  -8027.07480182 </i>
    <i name="Echarged">      0.00000000 </i>
    <i name="Edipol_quadrupol">      0.00000000 </i>
    <i name="Eion">      0.00000000 </i>
   </dipole>
   <energy>
    <i name="e_fr_energy">   -474.84256029 </i>
    <i name="e_wo_entrp">   -474.71858568 </i>
    <i name="e_0_energy">   -474.78057298 </i>
   </energy>
  </scstep>
  <scstep>
   <time name="dav">    1.52    1.52</time>
   <time name="total">    1.60    1.60</time>
   <dipole>
    <v name="dipole">      0.00000000       0.00000000       0.01067428 </v>
    <i name="Tr[quadrupol]">  -8027.07738322 </i>
    <i name="Echarged">      0.00000000 </i>
    <i name="Edipol_quadrupol">      0.00000000 </i>
    <i name="Eion">      0.00000000 </i>
   </dipole>
   <energy>
    <i name="e_fr_energy">   -474.83453865 </i>
    <i name="e_wo_entrp">   -474.71040357 </i>
    <i name="e_0_energy">   -474.77247111 </i>
   </energy>
  </scstep>
  <scstep>
   <time name="dav">    1.54    1.54</time>
   <time name="total">    1.62    1.62</time>
   <dipole>
    <v name="dipole">      0.00000000       0.00000000       0.01001390 </v>
    <i name="Tr[quadrupol]">  -8027.08616803 </i>
    <i name="Echarged">      0.00000000 </i>
    <i name="Edipol_quadrupol">      0.00000000 </i>
    <i name="Eion">      0.00000000 </i>
   </dipole>
   <energy>
    <i name="e_fr_energy">   -474.82692711 </i>
    <i name="e_wo_entrp">   -474.70196430 </i>
    <i name="e_0_energy">   -474.76444570 </i>
   </energy>
  </scstep>
  <scstep>
   <time name="dav">    1.52    1.52</time>
   <time name="total">    1.60    1.60</time>
   <dipole>
    <v name="dipole">      0.00000000       0.00000000       0.00945291 </v>
    <i name="Tr[quadrupol]">  -8027.08869839 </i>
    <i name="Echarged">      0.00000000 </i>
    <i name="Edipol_quadrupol">      0.00000000 </i>
    <i name="Eion">      0.00000000 </i>
   </dipole>
   <energy>
    <i name="e_fr_energy">   -474.83600691 </i>
    <i name="e_wo_entrp">   -474.70824647 </i>
[...]
    <i name="Tr[quadrupol]">  -8016.50344035 </i>
    <i name="Echarged">      0.00000000 </i>
    <i name="Edipol_quadrupol">      0.00000000 </i>
    <i name="Eion">      0.00000000 </i>
   </dipole>
   <energy>
    <i name="e_fr_energy">   -474.85274988 </i>
    <i name="e_wo_entrp">   -474.72351124 </i>
    <i name="e_0_energy">   -474.78813056 </i>
   </energy>
  </scstep>
  <scstep>
   <time name="dav">    1.51    1.51</time>
   <time name="total">    1.59    1.59</time>
   <dipole>
    <v name="dipole">      0.00000000       0.00000000       0.00722511 </v>
    <i name="Tr[quadrupol]">  -8016.50242263 </i>
    <i name="Echarged">      0.00000000 </i>
    <i name="Edipol_quadrupol">      0.00000000 </i>
    <i name="Eion">      0.00000000 </i>
   </dipole>
   <energy>
    <i name="e_fr_energy">   -474.85566295 </i>
    <i name="e_wo_entrp">   -474.72789744 </i>
    <i name="e_0_energy">   -474.79178019 </i>
   </energy>
  </scstep>
  <scstep>
   <time name="dav">    1.50    1.50</time>
   <time name="total">    1.58    1.58</time>
   <dipole>
    <v name="dipole">      0.00000000       0.00000000       0.00725043 </v>
    <i name="Tr[quadrupol]">  -8016.50343985 </i>
    <i name="Echarged">      0.00000000 </i>
    <i name="Edipol_quadrupol">      0.00000000 </i>
    <i name="Eion">      0.00000000 </i>
   </dipole>
   <energy>
    <i name="e_fr_energy">   -474.85275607 </i>
    <i name="e_wo_entrp">   -474.72351375 </i>
    <i name="e_0_energy">   -474.78813491 </i>
   </energy>
  </scstep>
  <scstep>
   <time name="dav">    1.51    1.51</time>
   <time name="total">    1.59    1.59</time>
   <dipole>
    <v name="dipole">      0.00000000       0.00000000       0.00722496 </v>
    <i name="Tr[quadrupol]">  -8016.50241927 </i>
    <i name="Echarged">      0.00000000 </i>
    <i name="Edipol_quadrupol">      0.00000000 </i>
    <i name="Eion">      0.00000000 </i>
   </dipole>
   <energy>
    <i name="e_fr_energy">   -474.85567875 </i>
    <i name="e_wo_entrp">   -474.72791237 </i>
    <i name="e_0_energy">   -474.79179556 </i>
   </energy>
  </scstep>
  <scstep>
   <time name="dav">    1.51    1.51</time>
   <time name="total">    1.60    1.60</time>
   <dipole>
    <v name="dipole">      0.00000000       0.00000000       0.00725035 </v>
    <i name="Tr[quadrupol]">  -8016.50343858 </i>
    <i name="Echarged">      0.00000000 </i>
    <i name="Edipol_quadrupol">      0.00000000 </i>
    <i name="Eion">      0.00000000 </i>
   </dipole>
   <energy>
    <i name="e_fr_energy">   -474.85276303 </i>
    <i name="e_wo_entrp">   -474.72352173 </i>
    <i name="e_0_energy">   -474.78814238 </i>
   </energy>
  </scstep>
  <scstep>
   <time name="dav">    1.50    1.50</time>
   <time name="total">    1.58    1.58</time>
   <dipole>
    <v name="dipole">      0.00000000       0.00000000       0.00722493 </v>
    <i name="Tr[quadrupol]">  -8016.50241961 </i>
    <i name="Echarged">      0.00000000 </i>
    <i name="Edipol_quadrupol">      0.00000000 </i>
    <i name="Eion">      0.00000000 </i>
   </dipole>
   <energy>
    <i name="e_fr_energy">   -474.85567294 </i>
    <i name="e_wo_entrp">   -474.72790900 </i>
    <i name="e_0_energy">   -474.79179097 </i>
   </energy>
  </scstep>
  <scstep>
   <time name="dav">    1.51    1.51</time>
   <time name="total">    1.59    1.59</time>
   <dipole>
    <v name="dipole">      0.00000000       0.00000000       0.00725043 </v>
    <i name="Tr[quadrupol]">  -8016.50344028 </i>
    <i name="Echarged">      0.00000000 </i>
    <i name="Edipol_quadrupol">      0.00000000 </i>
    <i name="Eion">      0.00000000 </i>
   </dipole>
   <energy>
    <i name="e_fr_energy">   -474.85275404 </i>
    <i name="e_wo_entrp">   -474.72351284 </i>
    <i name="e_0_energy">   -474.78813344 </i>
   </energy>
  </scstep>
  <scstep>
   <time name="dav">    1.50    1.50</time>
   <time name="total">    1.58    1.58</time>
   <dipole>
    <v name="dipole">      0.00000000       0.00000000       0.00722485 </v>
    <i name="Tr[quadrupol]">  -8016.50241998 </i>
    <i name="Echarged">      0.00000000 </i>
    <i name="Edipol_quadrupol">      0.00000000 </i>
    <i name="Eion">      0.00000000 </i>
   </dipole>
   <energy>
    <i name="e_fr_energy">   -474.85566989 </i>
    <i name="e_wo_entrp">   -474.72790390 </i>
    <i name="e_0_energy">   -474.79178690 </i>
   </energy>
  </scstep>
  <scstep>
   <time name="dav">    1.51    1.51</time>
   <time name="total">    1.59    1.59</time>
   <dipole>
    <v name="dipole">      0.00000000       0.00000000       0.00725036 </v>
    <i name="Tr[quadrupol]">  -8016.50343910 </i>
    <i name="Echarged">      0.00000000 </i>
    <i name="Edipol_quadrupol">      0.00000000 </i>
    <i name="Eion">      0.00000000 </i>
   </dipole>
   <energy>
    <i name="e_fr_energy">   -474.85276331 </i>
    <i name="e_wo_entrp">   -474.72352109 </i>
    <i name="e_0_energy">   -474.78814220 </i>
   </energy>
  </scstep>
  <scstep>
   <time name="dav">    1.50    1.50</time>
   <time name="total">    1.58    1.58</time>
   <dipole>
    <v name="dipole">      0.00000000       0.00000000       0.00722478 </v>
    <i name="Tr[quadrupol]">  -8016.50241873 </i>
    <i name="Echarged">      0.00000000 </i>
    <i name="Edipol_quadrupol">      0.00000000 </i>
    <i name="Eion">      0.00000000 </i>
   </dipole>
   <energy>
    <i name="e_fr_energy">   -474.85567374 </i>
    <i name="e_wo_entrp">   -474.72790943 </i>
    <i name="e_0_energy">   -474.79179159 </i>
   </energy>
  </scstep>
  <scstep>
   <time name="dav">    1.50    1.50</time>
   <time name="total">    1.59    1.59</time>
   <dipole>
    <v name="dipole">      0.00000000       0.00000000       0.00725037 </v>
    <i name="Tr[quadrupol]">  -8016.50344016 </i>
    <i name="Echarged">      0.00000000 </i>
    <i name="Edipol_quadrupol">      0.00000000 </i>
    <i name="Eion">      0.00000000 </i>
   </dipole>
   <energy>
    <i name="e_fr_energy">   -474.85275848 </i>
    <i name="e_wo_entrp">   -474.72351672 </i>
    <i name="e_0_energy">   -474.78813760 </i>
   </energy>
  </scstep>
  <scstep>
   <time name="dav">    1.51    1.51</time>
   <time name="total">    1.59    1.59</time>
   <dipole>
    <v name="dipole">      0.00000000       0.00000000       0.00722480 </v>
    <i name="Tr[quadrupol]">  -8016.50241745 </i>
    <i name="Echarged">      0.00000000 </i>
    <i name="Edipol_quadrupol">      0.00000000 </i>
    <i name="Eion">      0.00000000 </i>
   </dipole>
   <energy>
    <i name="e_fr_energy">   -474.85566869 </i>
    <i name="e_wo_entrp">   -474.72789450 </i>
    <i name="e_0_energy">   -474.79178160 </i>
   </energy>
  </scstep>
  <scstep>
   <time name="dav">    1.50    1.50</time>
   <time name="total">    1.58    1.58</time>
   <dipole>
    <v name="dipole">      0.00000000       0.00000000       0.00725011 </v>
    <i name="Tr[quadrupol]">  -8016.50343341 </i>
    <i name="Echarged">      0.00000000 </i>
    <i name="Edipol_quadrupol">      0.00000000 </i>
    <i name="Eion">      0.00000000 </i>
   </dipole>
   <energy>
    <i name="e_fr_energy">   -474.85280137 </i>
    <i name="e_wo_entrp">   -474.72356787 </i>
    <i name="e_0_energy">   -474.78818462 </i>
   </energy>
  </scstep>
  <scstep>
   <time name="dav">    1.51    1.51</time>
   <time name="total">    1.59    1.59</time>
   <dipole>
    <v name="dipole">      0.00000000       0.00000000       0.00722491 </v>
    <i name="Tr[quadrupol]">  -8016.50242283 </i>
    <i name="Echarged">      0.00000000 </i>
    <i name="Edipol_quadrupol">      0.00000000 </i>
    <i name="Eion">      0.00000000 </i>
   </dipole>
   <energy>
    <i name="e_fr_energy">   -474.85563312 </i>
    <i name="e_wo_entrp">   -474.72786070 </i>
    <i name="e_0_energy">   -474.79174691 </i>
   </energy>
  </scstep>
  <scstep>
   <time name="dav">    1.50    1.50</time>
   <time name="total">    1.58    1.58</time>
   <dipole>
    <v name="dipole">      0.00000000       0.00000000       0.00725021 </v>
    <i name="Tr[quadrupol]">  -8016.50343622 </i>
    <i name="Echarged">      0.00000000 </i>
    <i name="Edipol_quadrupol">      0.00000000 </i>
    <i name="Eion">      0.00000000 </i>
   </dipole>
   <energy>
    <i name="e_fr_energy">   -474.85279045 </i>
    <i name="e_wo_entrp">   -474.72355323 </i>
    <i name="e_0_energy">   -474.78817184 </i>
   </energy>
  </scstep>
  <scstep>
   <time name="dav">    1.51    1.51</time>
   <time name="total">    1.59    1.59</time>
   <dipole>
    <v name="dipole">      0.00000000       0.00000000       0.00722482 </v>
    <i name="Tr[quadrupol]">  -8016.50242000 </i>
    <i name="Echarged">      0.00000000 </i>
    <i name="Edipol_quadrupol">      0.00000000 </i>
    <i name="Eion">      0.00000000 </i>
   </dipole>
   <energy>
    <i name="e_fr_energy">   -474.85564826 </i>
    <i name="e_wo_entrp">   -474.72787862 </i>
    <i name="e_0_energy">   -474.79176344 </i>
   </energy>
  </scstep>
  <scstep>
   <time name="dav">    1.51    1.51</time>
   <time name="total">    1.60    1.60</time>
   <dipole>
    <v name="dipole">      0.00000000       0.00000000       0.00725023 </v>
    <i name="Tr[quadrupol]">  -8016.50343724 </i>
    <i name="Echarged">      0.00000000 </i>
    <i name="Edipol_quadrupol">      0.00000000 </i>
    <i name="Eion">      0.00000000 </i>
   </dipole>
   <energy>
    <i name="e_fr_energy">   -474.85278340 </i>
    <i name="e_wo_entrp">   -474.72353558 </i>
    <i name="e_0_energy">   -474.78815949 </i>
   </energy>
  </scstep>
  <scstep>
   <time name="dav">    1.50    1.50</time>
   <time name="total">    1.58    1.58</time>
   <dipole>
    <v name="dipole">      0.00000000       0.00000000       0.00722450 </v>
    <i name="Tr[quadrupol]">  -8016.50241084 </i>
    <i name="Echarged">      0.00000000 </i>
    <i name="Edipol_quadrupol">      0.00000000 </i>
    <i name="Eion">      0.00000000 </i>
   </dipole>
   <energy>
    <i name="e_fr_energy">   -474.85569917 </i>
    <i name="e_wo_entrp">   -474.72803325 </i>
    <i name="e_0_energy">   -474.79186621 </i>
   </energy>
  </scstep>
  <scstep>
   <time name="dav">    1.51    1.51</time>
   <time name="total">    1.59    1.59</time>
   <dipole>
    <v name="dipole">      0.00000000       0.00000000       0.00725269 </v>
    <i name="Tr[quadrupol]">  -8016.50352117 </i>
    <i name="Echarged">      0.00000000 </i>
    <i name="Edipol_quadrupol">      0.00000000 </i>
    <i name="Eion">      0.00000000 </i>
   </dipole>
   <energy>
    <i name="e_fr_energy">   -474.85242383 </i>
    <i name="e_wo_entrp">   -474.72254963 </i>
    <i name="e_0_energy">   -474.78748673 </i>
   </energy>
  </scstep>
  <scstep>
   <time name="dav">    1.52    1.52</time>
   <time name="total">    1.55    1.56</time>
   <dipole>
    <v name="dipole">      0.00000000       0.00000000       0.00707808 </v>
    <i name="Tr[quadrupol]">  -8016.50066004 </i>
    <i name="Echarged">      0.00000000 </i>
    <i name="Edipol_quadrupol">      0.00000000 </i>
    <i name="Eion">      0.00000000 </i>
   </dipole>
   <energy>
    <i name="alphaZ">    125.49515901 </i>
    <i name="ewald">  27950.61722095 </i>
    <i name="hartreedc"> -39178.72375986 </i>
    <i name="XCdc">   1019.83401574 </i>
    <i name="pawpsdc">  28648.34959671 </i>
    <i name="pawaedc"> -28777.82994286 </i>
    <i name="eentropy">     -0.12730436 </i>
    <i name="bandstr">  -3334.39083706 </i>
    <i name="atom">  13071.91728729 </i>
    <i name="e_fr_energy">   -474.85856444 </i>
    <i name="e_wo_entrp">   -474.73126009 </i>
    <i name="e_0_energy">   -474.79491226 </i>
   </energy>
  </scstep>
  <structure>
   <crystal>
    <varray name="basis" >
     <v>      14.20039846       0.00000000       0.00000000 </v>
     <v>       0.00000000      12.28610945       0.00000000 </v>
     <v>       0.00000000       0.00000000      15.00000000 </v>
    </varray>
    <i name="volume">   2617.01474574 </i>
    <varray name="rec_basis" >
     <v>       0.07042056       0.00000000       0.00000000 </v>
     <v>       0.00000000       0.08139273       0.00000000 </v>
     <v>       0.00000000       0.00000000       0.06666667 </v>
    </varray>
   </crystal>
   <varray name="positions" >
    <v>       0.06553537       0.40430050       0.13332744 </v>
    <v>       0.98074316       0.23450301       0.13331118 </v>
    <v>       0.22599189       0.39803876       0.13332844 </v>
    <v>       0.81572200       0.57602752       0.13353806 </v>
    <v>       0.15032308       0.23449788       0.13330531 </v>
    <v>       0.90509252       0.39804203       0.13332991 </v>
    <v>       0.56564105       0.40052440       0.13329336 </v>
    <v>       0.48001894       0.23337141       0.13318828 </v>
    <v>       0.72717203       0.39819948       0.13350055 </v>
    <v>       0.31526460       0.57610091       0.13353204 </v>
    <v>       0.65114605       0.23330244       0.13318454 </v>
    <v>       0.40402101       0.39834969       0.13353740 </v>
    <v>       0.81599033       0.90528349       0.13322324 </v>
    <v>       0.73328972       0.73599939       0.13336856 </v>
    <v>       0.97653524       0.89852557       0.13331144 </v>
    <v>       0.90134783       0.73425782       0.13316945 </v>
    <v>       0.65421482       0.89888823       0.13352666 </v>
    <v>       0.31489859       0.90548640       0.13320103 </v>
    <v>       0.22953606       0.73433476       0.13315655 </v>
    <v>       0.47665534       0.89909345       0.13350834 </v>
    <v>       0.39747982       0.73629451       0.13328696 </v>
    <v>       0.15434811       0.89857667       0.13332772 </v>
    <v>       0.06547739       0.07686841       0.13331205 </v>
    <v>       0.56552446       0.07636988       0.13331816 </v>
    <v>       0.98386968       0.45672471       0.13331465 </v>
    <v>       0.90053714       0.29005242       0.13327521 </v>
    <v>       0.14720937       0.45671599       0.13330171 </v>
    <v>       0.14878944       0.12684988       0.13328211 </v>
    <v>       0.98217669       0.12684432       0.13329128 </v>
    <v>       0.23057076       0.29003653       0.13327859 </v>
    <v>       0.06553040       0.29122485       0.13335573 </v>
    <v>       0.81519641       0.45792374       0.13337823 </v>
    <v>       0.48553225       0.45643333       0.13374150 </v>
    <v>       0.40080830       0.29053313       0.13360119 </v>
    <v>       0.64570501       0.45629854       0.13369997 </v>
    <v>       0.64916293       0.12615060       0.13342262 </v>
    <v>       0.48191796       0.12622191       0.13341235 </v>
    <v>       0.73041262       0.29037047       0.13358406 </v>
    <v>       0.56558300       0.28973495       0.13257641 </v>
    <v>       0.31592868       0.45801030       0.13339558 </v>
    <v>       0.73347535       0.95604743       0.13363056 </v>
    <v>       0.65134128       0.78831006       0.13372310 </v>
    <v>       0.89715419       0.95707837       0.13344487 </v>
    <v>       0.89829419       0.62653170       0.13351708 </v>
    <v>       0.73200888       0.62829031       0.13385920 </v>
    <v>       0.98068460       0.78990980       0.13338803 </v>
    <v>       0.81629076       0.79163369       0.13263668 </v>
    <v>       0.56546219       0.95725572       0.13335484 </v>
    <v>       0.23370552       0.95717465       0.13347302 </v>
    <v>       0.15019132       0.78995365       0.13344306 </v>
    <v>       0.39740230       0.95626713       0.13365340 </v>
    <v>       0.39892480       0.62852863       0.13381868 </v>
    <v>       0.23269479       0.62660815       0.13356179 </v>
    <v>       0.47940756       0.78853264       0.13366295 </v>
    <v>       0.31457114       0.79180269       0.13251206 </v>
    <v>       0.06544153       0.95788007       0.13331235 </v>
    <v>       0.56420598       0.62433560       0.13722048 </v>
   </varray>
  </structure>
  <varray name="forces" >
   <v>       0.00302803       0.00899678      -0.00051786 </v>
   <v>       0.01904695       0.02257818      -0.00143618 </v>
   <v>       0.01964198       0.02843747       0.00110476 </v>
   <v>       0.02081105      -0.15083191       0.00712078 </v>
   <v>      -0.01466673       0.02706680      -0.00152617 </v>
   <v>      -0.01495937       0.03546001       0.00089591 </v>
   <v>      -0.18441734       0.12657170       0.00024887 </v>
   <v>      -0.03909907       0.08948718      -0.00345093 </v>
   <v>       0.00564064       0.20247012       0.00810032 </v>
   <v>      -0.00015966      -0.10474839       0.00825726 </v>
   <v>      -0.00818841       0.03906133      -0.00133482 </v>
   <v>       0.21444073       0.12675109       0.00365034 </v>
   <v>      -0.13031487       0.00125666      -0.00148857 </v>
   <v>      -0.18610056       0.21027450       0.00005301 </v>
   <v>       0.00927309       0.03310817       0.00125273 </v>
   <v>      -0.01957956       0.03639938      -0.00247797 </v>
   <v>       0.04153281      -0.30350187       0.00251192 </v>
   <v>       0.06947924      -0.03471038      -0.00117557 </v>
   <v>       0.03820613       0.03653544      -0.00444217 </v>
   <v>       0.10179995      -0.17954633       0.00836745 </v>
   <v>       0.10303890       0.03780099      -0.00050170 </v>
   <v>      -0.02115868       0.03282020       0.00236919 </v>
   <v>      -0.00239116      -0.01615586      -0.00177645 </v>
   <v>       0.00319135       0.00321346       0.00260855 </v>
   <v>      -0.00997095       0.06425884      -0.00142492 </v>
   <v>      -0.03787935      -0.02368397      -0.00390802 </v>
   <v>       0.01470594       0.06089189      -0.00345066 </v>
   <v>       0.00782412      -0.06221892      -0.00544480 </v>
   <v>      -0.00694482      -0.05933240      -0.00370958 </v>
   <v>       0.02774321      -0.02713130      -0.00424923 </v>
   <v>       0.00121202       0.00156039       0.00532922 </v>
   <v>       0.04167776      -0.00049722       0.00465979 </v>
   <v>      -0.20283255      -0.20512349       0.00782387 </v>
   <v>      -0.02411821      -0.01105161       0.00445099 </v>
   <v>      -0.08161525       0.29882391      -0.00216828 </v>
   <v>       0.00414663      -0.04986693       0.00032385 </v>
   <v>      -0.00943092      -0.05923323       0.00359354 </v>
   <v>       0.00991687       0.02461450       0.01212210 </v>
   <v>       0.01978340       0.01399911      -0.01450915 </v>
   <v>      -0.03111706       0.00101931       0.00745230 </v>
   <v>      -0.03070949       0.01814511       0.00919706 </v>
   <v>       0.12104966       0.20818895       0.00361664 </v>
   <v>       0.01070261       0.05742550       0.00645791 </v>
   <v>       0.01408239      -0.05343758       0.01118344 </v>
   <v>      -0.23605042      -0.13623445       0.00107822 </v>
   <v>       0.03274985      -0.02045826      -0.00113217 </v>
   <v>       0.04814297      -0.03250886      -0.01574415 </v>
   <v>       0.00079558       0.04367832       0.00676756 </v>
   <v>      -0.01026661       0.05438836       0.00730696 </v>
   <v>      -0.02822234      -0.03059153       0.00545508 </v>
   <v>       0.05336977      -0.00898376       0.00725434 </v>
   <v>       0.19101129      -0.21190906       0.01715354 </v>
   <v>      -0.01343201      -0.05740252       0.00108663 </v>
   <v>       0.21816116      -0.22065224       0.00880747 </v>
   <v>      -0.10277589       0.02216561      -0.01932523 </v>
   <v>      -0.00162704      -0.00046061       0.00040070 </v>
   <v>      -0.01817774       0.09282343      -0.08286770 </v>
  </varray>
  <varray name="stress" >
   <v>       0.34133486       0.89911957       0.00769669 </v>
   <v>       0.89911957       1.15275630      -0.00044056 </v>
   <v>       0.00769667      -0.00044053     -11.24055110 </v>
  </varray>
  <energy>
   <i name="e_fr_energy">   -474.85856444 </i>
   <i name="e_wo_entrp">   -474.73126009 </i>
   <i name="e_0_energy">   -474.79491226 </i>
  </energy>
  <time name="totalsc">  320.92  321.02</time>
 </calculation>
 <calculation>
