slab_Cel1-OPT                           
           1
    14.206064    0.000000    0.000000
     0.000000   12.301944    0.000000
     0.000000    0.000000   15.000000
   C    N    Ni
    24    32     1
Direct configuration=     1
   0.06552924  0.40428224  0.13332883
   0.98073506  0.23448653  0.13331251
   0.22596849  0.39800742  0.13332693
   0.81567713  0.57598150  0.13353271
   0.15032739  0.23448907  0.13330756
   0.90510567  0.39801215  0.13332888
   0.56563600  0.40060460  0.13329290
   0.48003275  0.23339915  0.13319118
   0.72699959  0.39816605  0.13349143
   0.31530345  0.57604443  0.13352705
   0.65113845  0.23332886  0.13318734
   0.40417946  0.39830929  0.13352891
   0.81593183  0.90524123  0.13322179
   0.73312683  0.73613388  0.13336762
   0.97653404  0.89849251  0.13330997
   0.90130094  0.73428418  0.13317397
   0.65436077  0.89869394  0.13351908
   0.31496386  0.90544683  0.13320054
   0.22958188  0.73436464  0.13316012
   0.47652118  0.89889576  0.13350049
   0.39765408  0.73641312  0.13329011
   0.15435104  0.89855068  0.13332563
   0.06547629  0.07689847  0.13331367
   0.56552517  0.07636274  0.13331407
   0.98386097  0.45673230  0.13331657
   0.90051323  0.29005212  0.13328011
   0.14721891  0.45673085  0.13330434
   0.14879978  0.12682943  0.13328696
   0.98217053  0.12681964  0.13329527
   0.23059373  0.29004466  0.13328360
   0.06553126  0.29123103  0.13334958
   0.81521451  0.45792350  0.13337048
   0.48537906  0.45596222  0.13372761
   0.40076577  0.29045513  0.13359709
   0.64589040  0.45583435  0.13368861
   0.64915874  0.12611856  0.13341956
   0.48192703  0.12618043  0.13340833
   0.73044688  0.29029081  0.13357859
   0.56559013  0.28963346  0.13259239
   0.31590167  0.45800614  0.13338786
   0.73355117  0.95613998  0.13361729
   0.65156945  0.78886389  0.13372214
   0.89721800  0.95709144  0.13344107
   0.89834841  0.62653391  0.13351279
   0.73194305  0.62829732  0.13384847
   0.98071775  0.78992791  0.13338564
   0.81644402  0.79170529  0.13265331
   0.56546383  0.95729815  0.13335126
   0.23365512  0.95719332  0.13346882
   0.15016184  0.78998079  0.13343866
   0.39733392  0.95635363  0.13363927
   0.39900206  0.62855329  0.13381154
   0.23263864  0.62660872  0.13355684
   0.47919533  0.78908611  0.13366660
   0.31441659  0.79189183  0.13253209
   0.06544380  0.95787743  0.13331123
   0.56413024  0.62436563  0.13731276
slab_Cel1-OPT                           
           1
    14.202691    0.000000    0.000000
     0.000000   12.292516    0.000000
     0.000000    0.000000   15.000000
   C    N    Ni
    24    32     1
Direct configuration=     2
   0.06553289  0.40429311  0.13332800
   0.98073989  0.23449634  0.13331172
   0.22598242  0.39802608  0.13332783
   0.81570385  0.57600890  0.13353589
   0.15032482  0.23449431  0.13330622
   0.90509784  0.39802995  0.13332950
   0.56563901  0.40055685  0.13329317
   0.48002453  0.23338264  0.13318945
   0.72710226  0.39818596  0.13349686
   0.31528032  0.57607806  0.13353002
   0.65114298  0.23331313  0.13318568
   0.40408512  0.39833334  0.13353396
   0.81596666  0.90526639  0.13322265
   0.73322382  0.73605381  0.13336818
   0.97653476  0.89851219  0.13331084
   0.90132886  0.73426848  0.13317128
   0.65427387  0.89880962  0.13352359
   0.31492500  0.90547039  0.13320083
   0.22955460  0.73434685  0.13315799
   0.47660106  0.89901347  0.13350516
   0.39755033  0.73634250  0.13328824
   0.15434929  0.89856616  0.13332688
   0.06547695  0.07688057  0.13331270
   0.56552475  0.07636699  0.13331651
   0.98386616  0.45672778  0.13331543
   0.90052747  0.29005230  0.13327720
   0.14721323  0.45672200  0.13330278
   0.14879363  0.12684161  0.13328407
   0.98217420  0.12683434  0.13329289
   0.23058006  0.29003982  0.13328062
   0.06553075  0.29122735  0.13335325
   0.81520373  0.45792364  0.13337509
   0.48547027  0.45624272  0.13373588
   0.40079109  0.29050157  0.13359953
   0.64578002  0.45611073  0.13369538
   0.64916124  0.12613764  0.13342138
   0.48192163  0.12620513  0.13341072
   0.73042648  0.29033824  0.13358185
   0.56558589  0.28969389  0.13258288
   0.31591775  0.45800862  0.13339245
   0.73350603  0.95608488  0.13362519
   0.65143360  0.78853414  0.13372271
   0.89718001  0.95708366  0.13344333
   0.89831613  0.62653260  0.13351534
   0.73198224  0.62829314  0.13385486
   0.98069801  0.78991713  0.13338706
   0.81635277  0.79166266  0.13264341
   0.56546285  0.95727289  0.13335339
   0.23368513  0.95718220  0.13347132
   0.15017939  0.78996463  0.13344128
   0.39737464  0.95630213  0.13364768
   0.39895606  0.62853861  0.13381579
   0.23267207  0.62660838  0.13355979
   0.47932169  0.78875657  0.13366443
   0.31450861  0.79183876  0.13252017
   0.06544245  0.95787900  0.13331189
   0.56417534  0.62434775  0.13725782
slab_Cel1-OPT                           
           1
    14.200843    0.000000    0.000000
     0.000000   12.287351    0.000000
     0.000000    0.000000   15.000000
   C    N    Ni
    24    32     1
Direct configuration=     3
   0.06553489  0.40429907  0.13332755
   0.98074253  0.23450172  0.13331129
   0.22599006  0.39803631  0.13332832
   0.81571849  0.57602392  0.13353764
   0.15032342  0.23449719  0.13330548
   0.90509355  0.39803970  0.13332983
   0.56564066  0.40053067  0.13329332
   0.48002002  0.23337358  0.13318851
   0.72715853  0.39819687  0.13349984
   0.31526764  0.57609650  0.13353165
   0.65114546  0.23330451  0.13318476
   0.40403341  0.39834653  0.13353673
   0.81598574  0.90528019  0.13322312
   0.73327697  0.73600990  0.13336849
   0.97653515  0.89852298  0.13331132
   0.90134416  0.73425988  0.13316981
   0.65422624  0.89887305  0.13352606
   0.31490370  0.90548331  0.13320099
   0.22953965  0.73433709  0.13315683
   0.47664483  0.89907800  0.13350773
   0.39749347  0.73630378  0.13328721
   0.15434834  0.89857464  0.13332756
   0.06547730  0.07687076  0.13331217
   0.56552451  0.07636933  0.13331784
   0.98386900  0.45672531  0.13331480
   0.90053527  0.29005239  0.13327560
   0.14721012  0.45671715  0.13330192
   0.14879025  0.12684828  0.13328249
   0.98217621  0.12684239  0.13329159
   0.23057256  0.29003716  0.13327898
   0.06553046  0.29122533  0.13335525
   0.81519783  0.45792372  0.13337762
   0.48552025  0.45639653  0.13374041
   0.40080497  0.29052704  0.13360087
   0.64571953  0.45626228  0.13369908
   0.64916261  0.12614810  0.13342238
   0.48191867  0.12621867  0.13341203
   0.73041530  0.29036425  0.13358363
   0.56558356  0.28972702  0.13257767
   0.31592656  0.45800997  0.13339497
   0.73348129  0.95605466  0.13362952
   0.65135915  0.78835333  0.13372302
   0.89715919  0.95707939  0.13344457
   0.89829844  0.62653188  0.13351674
   0.73200373  0.62829086  0.13385836
   0.98068720  0.78991122  0.13338784
   0.81630276  0.79163928  0.13263799
   0.56546231  0.95725904  0.13335456
   0.23370157  0.95717611  0.13347269
   0.15018901  0.78995577  0.13344272
   0.39739695  0.95627389  0.13365230
   0.39893085  0.62853056  0.13381812
   0.23269039  0.62660819  0.13356140
   0.47939094  0.78857588  0.13366324
   0.31455904  0.79180966  0.13251363
   0.06544171  0.95787986  0.13331226
   0.56420005  0.62433794  0.13722771
slab_Cel1-OPT                           
           1
    14.197146    0.000000    0.000000
     0.000000   12.277020    0.000000
     0.000000    0.000000   15.000000
   C    N    Ni
    24    32     1
Direct configuration=     4
   0.06553890  0.40431100  0.13332664
   0.98074782  0.23451248  0.13331042
   0.22600533  0.39805678  0.13332931
   0.81574777  0.57605398  0.13354113
   0.15032060  0.23450294  0.13330402
   0.90508497  0.39805922  0.13333050
   0.56564395  0.40047829  0.13329362
   0.48001101  0.23335546  0.13318661
   0.72727108  0.39821870  0.13350579
   0.31524228  0.57613339  0.13353491
   0.65115042  0.23328725  0.13318294
   0.40392999  0.39837292  0.13354227
   0.81602392  0.90530780  0.13322407
   0.73338328  0.73592205  0.13336910
   0.97653593  0.89854458  0.13331228
   0.90137476  0.73424266  0.13316686
   0.65413099  0.89899997  0.13353101
   0.31486110  0.90550916  0.13320131
   0.22950975  0.73431757  0.13315449
   0.47673240  0.89920713  0.13351285
   0.39737974  0.73622630  0.13328516
   0.15434643  0.89859162  0.13332892
   0.06547802  0.07685112  0.13331112
   0.56552405  0.07637399  0.13332052
   0.98387469  0.45672035  0.13331355
   0.90055087  0.29005259  0.13327240
   0.14720390  0.45670744  0.13330020
   0.14878351  0.12686164  0.13327933
   0.98218023  0.12685851  0.13328899
   0.23055757  0.29003185  0.13327572
   0.06552990  0.29122130  0.13335927
   0.81518601  0.45792387  0.13338268
   0.48562023  0.45670426  0.13374947
   0.40083272  0.29057798  0.13360354
   0.64559854  0.45656550  0.13370649
   0.64916534  0.12616903  0.13342437
   0.48191274  0.12624576  0.13341465
   0.73039294  0.29041629  0.13358720
   0.56557890  0.28979332  0.13256725
   0.31594419  0.45801269  0.13340001
   0.73343181  0.95599421  0.13363819
   0.65121023  0.78799156  0.13372364
   0.89711754  0.95707085  0.13344705
   0.89826305  0.62653043  0.13351953
   0.73204669  0.62828628  0.13386536
   0.98066557  0.78989939  0.13338941
   0.81620273  0.79159251  0.13262714
   0.56546124  0.95723132  0.13335689
   0.23373447  0.95716391  0.13347542
   0.15020825  0.78993803  0.13344559
   0.39744158  0.95621739  0.13366152
   0.39888043  0.62851445  0.13382278
   0.23272703  0.62660781  0.13356463
   0.47952945  0.78821436  0.13366086
   0.31465991  0.79175143  0.13250056
   0.06544022  0.95788159  0.13331299
   0.56424949  0.62431832  0.13716750
slab_Cel1-OPT                           
           1
    14.198830    0.000000    0.000000
     0.000000   12.281727    0.000000
     0.000000    0.000000   15.000000
   C    N    Ni
    24    32     1
Direct configuration=     5
   0.06553707  0.40430556  0.13332706
   0.98074541  0.23450758  0.13331082
   0.22599837  0.39804745  0.13332886
   0.81573443  0.57604027  0.13353954
   0.15032188  0.23450032  0.13330469
   0.90508888  0.39805032  0.13333020
   0.56564245  0.40050217  0.13329348
   0.48001511  0.23336372  0.13318747
   0.72721979  0.39820875  0.13350308
   0.31525384  0.57611657  0.13353343
   0.65114816  0.23329512  0.13318377
   0.40397713  0.39836089  0.13353974
   0.81600652  0.90529521  0.13322364
   0.73333483  0.73596211  0.13336882
   0.97653557  0.89853473  0.13331184
   0.90136081  0.73425051  0.13316820
   0.65417440  0.89894210  0.13352876
   0.31488052  0.90549737  0.13320117
   0.22952338  0.73432647  0.13315556
   0.47669249  0.89914825  0.13351051
   0.39743157  0.73626163  0.13328609
   0.15434730  0.89858388  0.13332830
   0.06547769  0.07686008  0.13331160
   0.56552426  0.07637186  0.13331930
   0.98387210  0.45672261  0.13331412
   0.90054376  0.29005250  0.13327386
   0.14720673  0.45671187  0.13330099
   0.14878658  0.12685555  0.13328077
   0.98217840  0.12685116  0.13329017
   0.23056440  0.29003427  0.13327721
   0.06553016  0.29122314  0.13335744
   0.81519140  0.45792380  0.13338037
   0.48557467  0.45656394  0.13374534
   0.40082007  0.29055475  0.13360232
   0.64565368  0.45642723  0.13370311
   0.64916409  0.12615949  0.13342346
   0.48191544  0.12623340  0.13341346
   0.73040313  0.29039256  0.13358558
   0.56558102  0.28976309  0.13257199
   0.31593616  0.45801145  0.13339771
   0.73345436  0.95602178  0.13363424
   0.65127809  0.78815652  0.13372336
   0.89713652  0.95707474  0.13344592
   0.89827918  0.62653109  0.13351826
   0.73202711  0.62828837  0.13386217
   0.98067542  0.78990478  0.13338869
   0.81624831  0.79161384  0.13263208
   0.56546173  0.95724396  0.13335583
   0.23371948  0.95716947  0.13347418
   0.15019948  0.78994612  0.13344428
   0.39742124  0.95624315  0.13365732
   0.39890341  0.62852179  0.13382066
   0.23271033  0.62660799  0.13356316
   0.47946633  0.78837921  0.13366194
   0.31461394  0.79177798  0.13250651
   0.06544090  0.95788080  0.13331265
   0.56422696  0.62432727  0.13719493
slab_Cel1-OPT                           
           1
    14.200010    0.000000    0.000000
     0.000000   12.285023    0.000000
     0.000000    0.000000   15.000000
   C    N    Ni
    24    32     1
Direct configuration=     6
   0.06553579  0.40430175  0.13332735
   0.98074372  0.23450414  0.13331109
   0.22599350  0.39804091  0.13332855
   0.81572508  0.57603068  0.13353842
   0.15032278  0.23449848  0.13330515
   0.90509162  0.39804409  0.13332998
   0.56564140  0.40051889  0.13329339
   0.48001799  0.23336951  0.13318808
   0.72718387  0.39820178  0.13350118
   0.31526193  0.57610479  0.13353239
   0.65114657  0.23330063  0.13318435
   0.40401013  0.39835246  0.13353798
   0.81599434  0.90528640  0.13322334
   0.73330091  0.73599015  0.13336863
   0.97653532  0.89852784  0.13331154
   0.90135105  0.73425601  0.13316914
   0.65420479  0.89890158  0.13352718
   0.31489411  0.90548912  0.13320106
   0.22953292  0.73433270  0.13315630
   0.47666455  0.89910703  0.13350888
   0.39746786  0.73628636  0.13328675
   0.15434791  0.89857846  0.13332787
   0.06547746  0.07686634  0.13331194
   0.56552441  0.07637037  0.13331845
   0.98387028  0.45672419  0.13331452
   0.90053878  0.29005244  0.13327488
   0.14720872  0.45671497  0.13330153
   0.14878873  0.12685129  0.13328178
   0.98217712  0.12684602  0.13329101
   0.23056919  0.29003597  0.13327825
   0.06553034  0.29122443  0.13335616
   0.81519517  0.45792375  0.13337876
   0.48554277  0.45646571  0.13374245
   0.40081122  0.29053849  0.13360147
   0.64569229  0.45633044  0.13370075
   0.64916322  0.12615281  0.13342283
   0.48191733  0.12622476  0.13341262
   0.73041027  0.29037595  0.13358444
   0.56558251  0.28974193  0.13257532
   0.31593053  0.45801058  0.13339611
   0.73347015  0.95604107  0.13363148
   0.65132561  0.78827200  0.13372316
   0.89714981  0.95707747  0.13344513
   0.89829047  0.62653155  0.13351737
   0.73201340  0.62828983  0.13385993
   0.98068233  0.78990856  0.13338820
   0.81628023  0.79162877  0.13263554
   0.56546207  0.95725281  0.13335508
   0.23370898  0.95717337  0.13347330
   0.15019334  0.78995178  0.13344336
   0.39740700  0.95626119  0.13365437
   0.39891950  0.62852693  0.13381917
   0.23269864  0.62660811  0.13356213
   0.47942213  0.78849461  0.13366270
   0.31458175  0.79179657  0.13251068
   0.06544137  0.95788025  0.13331242
   0.56421118  0.62433353  0.13721414
slab_Cel1-OPT                           
           1
    14.200398    0.000000    0.000000
     0.000000   12.286109    0.000000
     0.000000    0.000000   15.000000
   C    N    Ni
    24    32     1
Direct configuration=     7
   0.06553537  0.40430050  0.13332744
   0.98074316  0.23450301  0.13331118
   0.22599189  0.39803876  0.13332844
   0.81572200  0.57602752  0.13353806
   0.15032308  0.23449788  0.13330531
   0.90509252  0.39804203  0.13332991
   0.56564105  0.40052440  0.13329336
   0.48001894  0.23337141  0.13318828
   0.72717203  0.39819948  0.13350055
   0.31526460  0.57610091  0.13353204
   0.65114605  0.23330244  0.13318454
   0.40402101  0.39834969  0.13353740
   0.81599033  0.90528349  0.13322324
   0.73328972  0.73599939  0.13336856
   0.97653524  0.89852557  0.13331144
   0.90134783  0.73425782  0.13316945
   0.65421482  0.89888823  0.13352666
   0.31489859  0.90548640  0.13320103
   0.22953606  0.73433476  0.13315655
   0.47665534  0.89909345  0.13350834
   0.39747982  0.73629451  0.13328696
   0.15434811  0.89857667  0.13332772
   0.06547739  0.07686841  0.13331205
   0.56552446  0.07636988  0.13331816
   0.98386968  0.45672471  0.13331465
   0.90053714  0.29005242  0.13327521
   0.14720937  0.45671599  0.13330171
   0.14878944  0.12684988  0.13328211
   0.98217669  0.12684432  0.13329128
   0.23057076  0.29003653  0.13327859
   0.06553040  0.29122485  0.13335573
   0.81519641  0.45792374  0.13337823
   0.48553225  0.45643333  0.13374150
   0.40080830  0.29053313  0.13360119
   0.64570501  0.45629854  0.13369997
   0.64916293  0.12615060  0.13342262
   0.48191796  0.12622191  0.13341235
   0.73041262  0.29037047  0.13358406
   0.56558300  0.28973495  0.13257641
   0.31592868  0.45801030  0.13339558
   0.73347535  0.95604743  0.13363056
   0.65134128  0.78831006  0.13372310
   0.89715419  0.95707837  0.13344487
   0.89829419  0.62653170  0.13351708
   0.73200888  0.62829031  0.13385920
   0.98068460  0.78990980  0.13338803
   0.81629076  0.79163369  0.13263668
   0.56546219  0.95725572  0.13335484
   0.23370552  0.95717465  0.13347302
   0.15019132  0.78995365  0.13344306
   0.39740230  0.95626713  0.13365340
   0.39892480  0.62852863  0.13381868
   0.23269479  0.62660815  0.13356179
   0.47940756  0.78853264  0.13366295
   0.31457114  0.79180269  0.13251206
   0.06544153  0.95788007  0.13331235
   0.56420598  0.62433560  0.13722048
