  57  57   0   0
  0.4599006E+02  0.1420606E-08  0.1230194E-08  0.1500000E-08  0.1000000E-15
  1.000000000000000E-004
  CAR 
 slab_Cel1-OPT                           
      4.03223964    -27.50597012  301     -1.90147276      1.00000000
    -27.506  0.0000E+00  0.0000E+00
    -27.401  0.0000E+00  0.0000E+00
    -27.296  0.0000E+00  0.0000E+00
    -27.191  0.0000E+00  0.0000E+00
    -27.085  0.0000E+00  0.0000E+00
    -26.980  0.0000E+00  0.0000E+00
    -26.875  0.0000E+00  0.0000E+00
    -26.770  0.0000E+00  0.0000E+00
    -26.665  0.0000E+00  0.0000E+00
    -26.560  0.1460E-13  0.1534E-14
    -26.455  0.1852E-09  0.1947E-10
    -26.350  0.2910E-06  0.3061E-07
    -26.244  0.6242E-04  0.6593E-05
    -26.139  0.2194E-02  0.2372E-03
    -26.034  0.1598E-01  0.1918E-02
    -25.929  0.2856E-01  0.4920E-02
    -25.824  0.1850E-01  0.6865E-02
    -25.719  0.9294E-02  0.7842E-02
    -25.614  0.1463E-02  0.7996E-02
    -25.509  0.3581E-04  0.8000E-02
    -25.403  0.1146E-06  0.8000E-02
    -25.298  0.4462E-10  0.8000E-02
    -25.193  0.2206E-14  0.8000E-02
    -25.088  0.4808E-11  0.8000E-02
    -24.983  0.1659E-07  0.8000E-02
    -24.878  0.7422E-05  0.8001E-02
    -24.773  0.5002E-03  0.8053E-02
    -24.668  0.6233E-02  0.8709E-02
    -24.562  0.1764E-01  0.1056E-01
    -24.457  0.1675E-01  0.1232E-01
    -24.352  0.1120E-01  0.1350E-01
    -24.247  0.1035E-01  0.1459E-01
    -24.142  0.7283E-02  0.1535E-01
    -24.037  0.1340E-02  0.1550E-01
    -23.932  0.8464E-04  0.1550E-01
    -23.827  0.2211E-02  0.1574E-01
    -23.721  0.1943E-01  0.1778E-01
    -23.616  0.3744E-01  0.2172E-01
    -23.511  0.2211E-01  0.2404E-01
    -23.406  0.4211E-02  0.2448E-01
    -23.301  0.1710E-03  0.2450E-01
    -23.196  0.4796E-04  0.2450E-01
    -23.091  0.1213E-02  0.2463E-01
    -22.985  0.6376E-02  0.2530E-01
    -22.880  0.9097E-02  0.2626E-01
    -22.775  0.7494E-02  0.2705E-01
    -22.670  0.1182E-01  0.2829E-01
    -22.565  0.1328E-01  0.2969E-01
    -22.460  0.1058E-01  0.3080E-01
    -22.355  0.8074E-02  0.3165E-01
    -22.250  0.3105E-02  0.3197E-01
    -22.144  0.2523E-03  0.3200E-01
    -22.039  0.8527E-05  0.3200E-01
    -21.934  0.4488E-03  0.3205E-01
    -21.829  0.7194E-02  0.3280E-01
    -21.724  0.2913E-01  0.3587E-01
    -21.619  0.3708E-01  0.3976E-01
    -21.514  0.2502E-01  0.4239E-01
    -21.409  0.2279E-01  0.4479E-01
    -21.303  0.2321E-01  0.4723E-01
    -21.198  0.6932E-02  0.4796E-01
    -21.093  0.4018E-03  0.4800E-01
    -20.988  0.9871E-03  0.4811E-01
    -20.883  0.9457E-02  0.4910E-01
    -20.778  0.2644E-01  0.5188E-01
    -20.673  0.2907E-01  0.5494E-01
    -20.568  0.9443E-02  0.5593E-01
    -20.462  0.6784E-03  0.5600E-01
    -20.357  0.1594E-04  0.5600E-01
    -20.252  0.5809E-03  0.5606E-01
    -20.147  0.7623E-02  0.5686E-01
    -20.042  0.2107E-01  0.5908E-01
    -19.937  0.1978E-01  0.6116E-01
    -19.832  0.1460E-01  0.6269E-01
    -19.727  0.8814E-02  0.6362E-01
    -19.621  0.3192E-02  0.6395E-01
    -19.516  0.4257E-03  0.6400E-01
    -19.411  0.1033E-04  0.6400E-01
    -19.306  0.3372E-07  0.6400E-01
    -19.201  0.1333E-10  0.6400E-01
    -19.096  0.6125E-15  0.6400E-01
    -18.991  0.0000E+00  0.6400E-01
    -18.886  0.0000E+00  0.6400E-01
    -18.780  0.0000E+00  0.6400E-01
    -18.675  0.0000E+00  0.6400E-01
    -18.570  0.0000E+00  0.6400E-01
    -18.465  0.0000E+00  0.6400E-01
    -18.360  0.0000E+00  0.6400E-01
    -18.255  0.0000E+00  0.6400E-01
    -18.150  0.0000E+00  0.6400E-01
    -18.045  0.0000E+00  0.6400E-01
    -17.939  0.0000E+00  0.6400E-01
    -17.834  0.1961E-14  0.6400E-01
    -17.729  0.3803E-10  0.6400E-01
    -17.624  0.8870E-07  0.6400E-01
    -17.519  0.2654E-04  0.6400E-01
    -17.414  0.1154E-02  0.6412E-01
    -17.309  0.8968E-02  0.6507E-01
    -17.203  0.1611E-01  0.6676E-01
    -17.098  0.1287E-01  0.6811E-01
    -16.993  0.1825E-01  0.7003E-01
    -16.888  0.1850E-01  0.7198E-01
    -16.783  0.2217E-01  0.7431E-01
    -16.678  0.2160E-01  0.7658E-01
    -16.573  0.1482E-01  0.7814E-01
    -16.468  0.7330E-02  0.7891E-01
    -16.362  0.1578E-02  0.7907E-01
    -16.257  0.4209E-02  0.7951E-01
    -16.152  0.4013E-02  0.7994E-01
    -16.047  0.5969E-03  0.8000E-01
    -15.942  0.1256E-04  0.8000E-01
    -15.837  0.2263E-04  0.8000E-01
    -15.732  0.1063E-02  0.8011E-01
    -15.627  0.8968E-02  0.8106E-01
    -15.521  0.2282E-01  0.8346E-01
    -15.416  0.2608E-01  0.8620E-01
    -15.311  0.1381E-01  0.8765E-01
    -15.206  0.3106E-02  0.8798E-01
    -15.101  0.2345E-03  0.8800E-01
    -14.996  0.6806E-03  0.8807E-01
    -14.891  0.4184E-02  0.8851E-01
    -14.786  0.4022E-02  0.8894E-01
    -14.680  0.6025E-03  0.8900E-01
    -14.575  0.1699E-03  0.8902E-01
    -14.470  0.1930E-02  0.8922E-01
    -14.365  0.5148E-02  0.8976E-01
    -14.260  0.6971E-02  0.9049E-01
    -14.155  0.1004E-01  0.9155E-01
    -14.050  0.1678E-01  0.9331E-01
    -13.945  0.2194E-01  0.9562E-01
    -13.839  0.2023E-01  0.9775E-01
    -13.734  0.2386E-01  0.1003E+00
    -13.629  0.1942E-01  0.1023E+00
    -13.524  0.1511E-01  0.1039E+00
    -13.419  0.1814E-01  0.1058E+00
    -13.314  0.2296E-01  0.1082E+00
    -13.209  0.2863E-01  0.1112E+00
    -13.104  0.2310E-01  0.1136E+00
    -12.998  0.8751E-02  0.1146E+00
    -12.893  0.4247E-02  0.1150E+00
    -12.788  0.7256E-02  0.1158E+00
    -12.683  0.9298E-02  0.1168E+00
    -12.578  0.6670E-02  0.1175E+00
    -12.473  0.5446E-02  0.1180E+00
    -12.368  0.3950E-02  0.1184E+00
    -12.263  0.5551E-03  0.1185E+00
    -12.157  0.2380E-04  0.1185E+00
    -12.052  0.8995E-03  0.1186E+00
    -11.947  0.9758E-02  0.1196E+00
    -11.842  0.2040E-01  0.1218E+00
    -11.737  0.1987E-01  0.1239E+00
    -11.632  0.2868E-01  0.1269E+00
    -11.527  0.3110E-01  0.1301E+00
    -11.421  0.2906E-01  0.1332E+00
    -11.316  0.2490E-01  0.1358E+00
    -11.211  0.1206E-01  0.1371E+00
    -11.106  0.8278E-02  0.1380E+00
    -11.001  0.6001E-02  0.1386E+00
    -10.896  0.6026E-02  0.1392E+00
    -10.791  0.7416E-02  0.1400E+00
    -10.686  0.9403E-02  0.1410E+00
    -10.580  0.1082E-01  0.1421E+00
    -10.475  0.1242E-01  0.1434E+00
    -10.370  0.1962E-01  0.1455E+00
    -10.265  0.2636E-01  0.1483E+00
    -10.160  0.2551E-01  0.1509E+00
    -10.055  0.2765E-01  0.1538E+00
     -9.950  0.2352E-01  0.1563E+00
     -9.845  0.1892E-01  0.1583E+00
     -9.739  0.9949E-02  0.1594E+00
     -9.634  0.1338E-02  0.1595E+00
     -9.529  0.3084E-04  0.1595E+00
     -9.424  0.1678E-03  0.1595E+00
     -9.319  0.2831E-02  0.1598E+00
     -9.214  0.1423E-01  0.1613E+00
     -9.109  0.2915E-01  0.1644E+00
     -9.004  0.2678E-01  0.1672E+00
     -8.898  0.1106E-01  0.1684E+00
     -8.793  0.1371E-02  0.1685E+00
     -8.688  0.1767E-03  0.1685E+00
     -8.583  0.2814E-02  0.1688E+00
     -8.478  0.1220E-01  0.1701E+00
     -8.373  0.1706E-01  0.1719E+00
     -8.268  0.1484E-01  0.1734E+00
     -8.163  0.2656E-01  0.1762E+00
     -8.057  0.2985E-01  0.1794E+00
     -7.952  0.1422E-01  0.1809E+00
     -7.847  0.7870E-02  0.1817E+00
     -7.742  0.2732E-02  0.1820E+00
     -7.637  0.1981E-02  0.1822E+00
     -7.532  0.8742E-02  0.1831E+00
     -7.427  0.8688E-02  0.1840E+00
     -7.322  0.1124E-01  0.1852E+00
     -7.216  0.2869E-01  0.1882E+00
     -7.111  0.3430E-01  0.1918E+00
     -7.006  0.2085E-01  0.1940E+00
     -6.901  0.2876E-01  0.1970E+00
     -6.796  0.4305E-01  0.2016E+00
     -6.691  0.3282E-01  0.2050E+00
     -6.586  0.1050E-01  0.2061E+00
     -6.480  0.1405E-01  0.2076E+00
     -6.375  0.2076E-01  0.2098E+00
     -6.270  0.1307E-01  0.2112E+00
     -6.165  0.1035E-01  0.2122E+00
     -6.060  0.1838E-01  0.2142E+00
     -5.955  0.1202E-01  0.2154E+00
     -5.850  0.4041E-02  0.2159E+00
     -5.745  0.1388E-02  0.2160E+00
     -5.639  0.2490E-02  0.2163E+00
     -5.534  0.8994E-02  0.2172E+00
     -5.429  0.1606E-01  0.2189E+00
     -5.324  0.1742E-01  0.2207E+00
     -5.219  0.2129E-01  0.2230E+00
     -5.114  0.2753E-01  0.2259E+00
     -5.009  0.1915E-01  0.2279E+00
     -4.904  0.8988E-02  0.2288E+00
     -4.798  0.8120E-02  0.2297E+00
     -4.693  0.9183E-02  0.2307E+00
     -4.588  0.1500E-01  0.2322E+00
     -4.483  0.2602E-01  0.2350E+00
     -4.378  0.2411E-01  0.2375E+00
     -4.273  0.1717E-01  0.2393E+00
     -4.168  0.2279E-01  0.2417E+00
     -4.063  0.2571E-01  0.2444E+00
     -3.957  0.2099E-01  0.2466E+00
     -3.852  0.9279E-02  0.2476E+00
     -3.747  0.3356E-02  0.2479E+00
     -3.642  0.2135E-02  0.2482E+00
     -3.537  0.1076E-01  0.2493E+00
     -3.432  0.1754E-01  0.2511E+00
     -3.327  0.1317E-01  0.2525E+00
     -3.222  0.2818E-01  0.2555E+00
     -3.116  0.3968E-01  0.2597E+00
     -3.011  0.1953E-01  0.2617E+00
     -2.906  0.2692E-02  0.2620E+00
     -2.801  0.8999E-04  0.2620E+00
     -2.696  0.5574E-06  0.2620E+00
     -2.591  0.5121E-09  0.2620E+00
     -2.486  0.7384E-07  0.2620E+00
     -2.381  0.3146E-04  0.2620E+00
     -2.275  0.1762E-02  0.2622E+00
     -2.170  0.1421E-01  0.2637E+00
     -2.065  0.1833E-01  0.2656E+00
     -1.960  0.6880E-02  0.2663E+00
     -1.855  0.1355E-01  0.2678E+00
     -1.750  0.1479E-01  0.2693E+00
     -1.645  0.1075E-01  0.2704E+00
     -1.540  0.8716E-02  0.2714E+00
     -1.434  0.8273E-02  0.2722E+00
     -1.329  0.9070E-02  0.2732E+00
     -1.224  0.8858E-02  0.2741E+00
     -1.119  0.1125E-01  0.2753E+00
     -1.014  0.1328E-01  0.2767E+00
     -0.909  0.2418E-01  0.2792E+00
     -0.804  0.1953E-01  0.2813E+00
     -0.698  0.6229E-02  0.2819E+00
     -0.593  0.6709E-03  0.2820E+00
     -0.488  0.1619E-02  0.2822E+00
     -0.383  0.4482E-02  0.2827E+00
     -0.278  0.9255E-02  0.2836E+00
     -0.173  0.2096E-01  0.2858E+00
     -0.068  0.1982E-01  0.2879E+00
      0.037  0.1165E-01  0.2891E+00
      0.143  0.6960E-02  0.2899E+00
      0.248  0.1192E-02  0.2900E+00
      0.353  0.5763E-03  0.2901E+00
      0.458  0.4767E-02  0.2906E+00
      0.563  0.9211E-02  0.2915E+00
      0.668  0.4119E-02  0.2920E+00
      0.773  0.4485E-03  0.2920E+00
      0.878  0.1648E-02  0.2922E+00
      0.984  0.6600E-02  0.2929E+00
      1.089  0.1080E-01  0.2940E+00
      1.194  0.1496E-01  0.2956E+00
      1.299  0.1683E-01  0.2974E+00
      1.404  0.1530E-01  0.2990E+00
      1.509  0.1459E-01  0.3005E+00
      1.614  0.1024E-01  0.3016E+00
      1.719  0.9484E-02  0.3026E+00
      1.825  0.1530E-01  0.3042E+00
      1.930  0.3007E-01  0.3073E+00
      2.035  0.4516E-01  0.3121E+00
      2.140  0.3567E-01  0.3158E+00
      2.245  0.2604E-01  0.3186E+00
      2.350  0.2904E-01  0.3216E+00
      2.455  0.3059E-01  0.3248E+00
      2.560  0.1975E-01  0.3269E+00
      2.666  0.8664E-02  0.3278E+00
      2.771  0.1567E-02  0.3280E+00
      2.876  0.5502E-04  0.3280E+00
      2.981  0.2811E-06  0.3280E+00
      3.086  0.1850E-09  0.3280E+00
      3.191  0.1473E-13  0.3280E+00
      3.296  0.0000E+00  0.3280E+00
      3.401  0.0000E+00  0.3280E+00
      3.507  0.0000E+00  0.3280E+00
      3.612  0.0000E+00  0.3280E+00
      3.717  0.0000E+00  0.3280E+00
      3.822  0.0000E+00  0.3280E+00
      3.927  0.0000E+00  0.3280E+00
      4.032  0.0000E+00  0.3280E+00
