 vasp.6.3.2 27Jun22 (build May 04 2024 18:40:40) complex                        
  
 executed on             LinuxIFC date 2024.09.02  23:40:58
 running on   48 total cores
 distrk:  each k-point on   48 cores,    1 groups
 distr:  one band on NCORE=  12 cores,    4 groups


--------------------------------------------------------------------------------------------------------


 INCAR:
   SYSTEM = slab_Cel1-OPT
   ISTART = 0
   ICHARG = 2
   LWAVE = .F.
   LAECHG = .F.
   LCHARG = .F.
   LELF = .False.
   ENCUT = 400
   PREC = N
   NELM = 200
   ALGO = N
   ISMEAR = 0
   SIGMA = 0.1
   EDIFF = 1E-5
   IBRION = 2
   POTIM = 0.1
   EDIFFG = -0.05
   ISIF = 3
   NSW = 1000
   LDIPOL = .True.
   IDIPOL = 3
   LREAL = AUTO
   NCORE = 12

 POTCAR:    PAW_PBE C 08Apr2002                   
 POTCAR:    PAW_PBE N 08Apr2002                   
 POTCAR:    PAW_PBE Cu 22Jun2005                  
 POTCAR:    PAW_PBE C 08Apr2002                   
   SHA256 =  253f7b50bb8d59471dbedb8285d89021f4a42ed1a2c5d38a03a736e69125dd95 C/POTCAR              
   COPYR  = (c) Copyright 08Apr2002 Georg Kresse                                                    
   COPYR  = This file is part of the software VASP. Any use, copying, and all other rights are regul
   COPYR  = If you do not have a valid VASP license, you may not use, copy or distribute this file. 
   VRHFIN =C: s2p2                                                                                  
   LEXCH  = PE                                                                                      
   EATOM  =   147.1560 eV,   10.8157 Ry                                                             
                                                                                                    
   TITEL  = PAW_PBE C 08Apr2002                                                                     
   LULTRA =        F    use ultrasoft PP ?                                                          
   IUNSCR =        1    unscreen: 0-lin 1-nonlin 2-no                                               
   RPACOR =    1.200    partial core radius                                                         
   POMASS =   12.011; ZVAL   =    4.000    mass and valenz                                          
   RCORE  =    1.500    outmost cutoff radius                                                       
   RWIGS  =    1.630; RWIGS  =    0.863    wigner-seitz radius (au A)                               
   ENMAX  =  400.000; ENMIN  =  300.000 eV                                                          
   ICORE  =        2    local potential                                                             
   LCOR   =        T    correct aug charges                                                         
   LPAW   =        T    paw PP                                                                      
   EAUG   =  644.873                                                                                
   DEXC   =    0.000                                                                                
   RMAX   =    1.529    core radius for proj-oper                                                   
   RAUG   =    1.300    factor for augmentation sphere                                              
   RDEP   =    1.501    radius for radial grids                                                     
   RDEPT  =    1.300    core radius for aug-charge                                                  
                                                                                                    
   Atomic configuration                                                                             
    4 entries                                                                                       
     n  l   j            E        occ.                                                              
     1  0  0.50      -273.3789   2.0000                                                             
     2  0  0.50       -13.7508   2.0000                                                             
     2  1  0.50        -5.2854   2.0000                                                             
     3  2  1.50        -5.4423   0.0000                                                             
   Description                                                                                      
     l       E           TYP  RCUT    TYP  RCUT                                                     
     0    -13.7508458     23  1.200                                                                 
     0     -8.2022199     23  1.200                                                                 
     1     -5.2854383     23  1.500                                                                 
     1     34.0145650     23  1.500                                                                 
     2     -5.4423304      7  1.500                                                                 
  local pseudopotential read in
  partial core-charges read in
  partial kinetic energy density read in
  atomic valenz-charges read in
  non local Contribution for L=           0  read in
    real space projection operators read in
  non local Contribution for L=           0  read in
    real space projection operators read in
  non local Contribution for L=           1  read in
    real space projection operators read in
  non local Contribution for L=           1  read in
    real space projection operators read in
    PAW grid and wavefunctions read in
 
   number of l-projection  operators is LMAX  =           4
   number of lm-projection operators is LMMAX =           8
 
 POTCAR:    PAW_PBE N 08Apr2002                   
   SHA256 =  e053789ff3a61a86a1b75d8a110fcc91f86041011e7b0817c7c99e4e8a6349d7 N/POTCAR              
   COPYR  = (c) Copyright 08Apr2002 Georg Kresse                                                    
   COPYR  = This file is part of the software VASP. Any use, copying, and all other rights are regul
   COPYR  = If you do not have a valid VASP license, you may not use, copy or distribute this file. 
   VRHFIN =N: s2p3                                                                                  
   LEXCH  = PE                                                                                      
   EATOM  =   264.5486 eV,   19.4438 Ry                                                             
                                                                                                    
   TITEL  = PAW_PBE N 08Apr2002                                                                     
   LULTRA =        F    use ultrasoft PP ?                                                          
   IUNSCR =        1    unscreen: 0-lin 1-nonlin 2-no                                               
   RPACOR =    1.200    partial core radius                                                         
   POMASS =   14.001; ZVAL   =    5.000    mass and valenz                                          
   RCORE  =    1.500    outmost cutoff radius                                                       
   RWIGS  =    1.400; RWIGS  =    0.741    wigner-seitz radius (au A)                               
   ENMAX  =  400.000; ENMIN  =  300.000 eV                                                          
   ICORE  =        2    local potential                                                             
   LCOR   =        T    correct aug charges                                                         
   LPAW   =        T    paw PP                                                                      
   EAUG   =  627.112                                                                                
   DEXC   =    0.000                                                                                
   RMAX   =    1.529    core radius for proj-oper                                                   
   RAUG   =    1.300    factor for augmentation sphere                                              
   RDEP   =    1.514    radius for radial grids                                                     
   RDEPT  =    1.338    core radius for aug-charge                                                  
                                                                                                    
   Atomic configuration                                                                             
    4 entries                                                                                       
     n  l   j            E        occ.                                                              
     1  0  0.50      -384.7179   2.0000                                                             
     2  0  0.50       -18.5828   2.0000                                                             
     2  1  0.50        -7.0898   3.0000                                                             
     3  2  1.50        -6.8029   0.0000                                                             
   Description                                                                                      
     l       E           TYP  RCUT    TYP  RCUT                                                     
     0    -18.5828119     23  1.200                                                                 
     0    -13.5018863     23  1.200                                                                 
     1     -7.0897853     23  1.500                                                                 
     1      9.5240782     23  1.500                                                                 
     2     -6.8029130      7  1.500                                                                 
  local pseudopotential read in
  partial core-charges read in
  partial kinetic energy density read in
  atomic valenz-charges read in
  non local Contribution for L=           0  read in
    real space projection operators read in
  non local Contribution for L=           0  read in
    real space projection operators read in
  non local Contribution for L=           1  read in
    real space projection operators read in
  non local Contribution for L=           1  read in
    real space projection operators read in
    PAW grid and wavefunctions read in
 
   number of l-projection  operators is LMAX  =           4
   number of lm-projection operators is LMMAX =           8
 
 POTCAR:    PAW_PBE Cu 22Jun2005                  
   SHA256 =  0e71e558f37a4e8407882b4609ceaae59938afaad9ced71dfe8490308a0ab630 Cu/POTCAR             
   COPYR  = (c) Copyright 22Jun2005 Georg Kresse                                                    
   COPYR  = This file is part of the software VASP. Any use, copying, and all other rights are regul
   COPYR  = If you do not have a valid VASP license, you may not use, copy or distribute this file. 
   VRHFIN =Cu: d10 p1                                                                               
   LEXCH  = PE                                                                                      
   EATOM  =  1390.9808 eV,  102.2342 Ry                                                             
                                                                                                    
   TITEL  = PAW_PBE Cu 22Jun2005                                                                    
   LULTRA =        F    use ultrasoft PP ?                                                          
   IUNSCR =        1    unscreen: 0-lin 1-nonlin 2-no                                               
   RPACOR =    2.000    partial core radius                                                         
   POMASS =   63.546; ZVAL   =   11.000    mass and valenz                                          
   RCORE  =    2.300    outmost cutoff radius                                                       
   RWIGS  =    2.200; RWIGS  =    1.164    wigner-seitz radius (au A)                               
   ENMAX  =  295.446; ENMIN  =  221.585 eV                                                          
   ICORE  =        3    local potential                                                             
   LCOR   =        T    correct aug charges                                                         
   LPAW   =        T    paw PP                                                                      
   EAUG   =  586.980                                                                                
   DEXC   =    0.000                                                                                
   RMAX   =    2.344    core radius for proj-oper                                                   
   RAUG   =    1.300    factor for augmentation sphere                                              
   RDEP   =    2.302    radius for radial grids                                                     
   RDEPT  =    1.771    core radius for aug-charge                                                  
                                                                                                    
   Atomic configuration                                                                             
    9 entries                                                                                       
     n  l   j            E        occ.                                                              
     1  0  0.50     -8850.2468   2.0000                                                             
     2  0  0.50     -1062.3498   2.0000                                                             
     2  1  1.50      -916.8226   6.0000                                                             
     3  0  0.50      -114.6929   2.0000                                                             
     3  1  1.50       -72.1325   6.0000                                                             
     3  2  2.50        -5.0394  10.0000                                                             
     4  0  0.50        -4.6097   1.0000                                                             
     4  1  0.50        -4.0817   0.0000                                                             
     4  3  2.50        -1.3606   0.0000                                                             
   Description                                                                                      
     l       E           TYP  RCUT    TYP  RCUT                                                     
     2     -5.0393973     23  2.200                                                                 
     2     10.8846608     23  2.200                                                                 
     0     -4.6097109     23  2.200                                                                 
     0      8.2520465     23  2.200                                                                 
     1     -2.7211652     23  2.200                                                                 
     1     21.7055443     23  2.200                                                                 
     3      2.7211652     23  2.300                                                                 
  local pseudopotential read in
  partial core-charges read in
  partial kinetic energy density read in
  atomic valenz-charges read in
  non local Contribution for L=           2  read in
    real space projection operators read in
  non local Contribution for L=           2  read in
    real space projection operators read in
  non local Contribution for L=           0  read in
    real space projection operators read in
  non local Contribution for L=           0  read in
    real space projection operators read in
  non local Contribution for L=           1  read in
    real space projection operators read in
  non local Contribution for L=           1  read in
    real space projection operators read in
    PAW grid and wavefunctions read in
 
   number of l-projection  operators is LMAX  =           6
   number of lm-projection operators is LMMAX =          18
 
 Optimization of the real space projectors (new method)

 maximal supplied QI-value         = 25.13
 optimisation between [QCUT,QGAM] = [ 10.05, 20.36] = [ 28.30,116.06] Ry 
 Optimized for a Real-space Cutoff    1.30 Angstroem

   l    n(q)    QCUT    max X(q) W(low)/X(q) W(high)/X(q)  e(spline) 
   0      8    10.053   115.676    0.49E-03    0.72E-03    0.18E-06
   0      8    10.053    87.132    0.49E-03    0.71E-03    0.18E-06
   1      7    10.053     4.429    0.32E-03    0.31E-03    0.18E-06
   1      7    10.053     2.733    0.23E-03    0.19E-03    0.20E-06
 Optimization of the real space projectors (new method)

 maximal supplied QI-value         = 25.13
 optimisation between [QCUT,QGAM] = [ 10.05, 20.36] = [ 28.30,116.06] Ry 
 Optimized for a Real-space Cutoff    1.65 Angstroem

   l    n(q)    QCUT    max X(q) W(low)/X(q) W(high)/X(q)  e(spline) 
   0     10    10.053    79.467    0.76E-04    0.72E-04    0.56E-06
   0     10    10.053    66.151    0.76E-04    0.72E-04    0.55E-06
   1     10    10.053     8.350    0.25E-03    0.92E-03    0.41E-05
   1     10    10.053     5.531    0.27E-03    0.10E-02    0.45E-05
 Optimization of the real space projectors (new method)

 maximal supplied QI-value         = 16.25
 optimisation between [QCUT,QGAM] = [ 10.24, 20.48] = [ 29.35,117.42] Ry 
 Optimized for a Real-space Cutoff    1.55 Angstroem

   l    n(q)    QCUT    max X(q) W(low)/X(q) W(high)/X(q)  e(spline) 
   2      9    10.239     4.610    0.85E-04    0.29E-03    0.14E-06
   2      9    10.239     8.522    0.15E-03    0.50E-03    0.27E-06
   0     10    10.239    51.609    0.45E-04    0.99E-04    0.10E-06
   0     10    10.239    27.747    0.40E-04    0.93E-04    0.97E-07
   1      9    10.239    20.408    0.15E-03    0.78E-05    0.15E-06
   1      9    10.239    13.425    0.13E-03    0.71E-05    0.14E-06
  PAW_PBE C 08Apr2002                   :
 energy of atom  1       EATOM= -147.1560
 kinetic energy error for atom=    0.0288 (will be added to EATOM!!)
  PAW_PBE N 08Apr2002                   :
 energy of atom  2       EATOM= -264.5486
 kinetic energy error for atom=    0.0736 (will be added to EATOM!!)
  PAW_PBE Cu 22Jun2005                  :
 energy of atom  3       EATOM=-1390.9808
 kinetic energy error for atom=    0.0232 (will be added to EATOM!!)
 
 
 POSCAR: C  N  Cu
  positions in cartesian coordinates
  No initial velocities read in
 exchange correlation table for  LEXCH =        8
   RHO(1)=    0.500       N(1)  =     2000
   RHO(2)=  100.500       N(2)  =     4000

 VTST: version 4.2, (08/11/21)

 CHAIN: initializing optimizer
 
 OPT: Using VASP Conjugate-Gradient optimizer
 CHAIN: Read ICHAIN            0
 
 POSCAR: C  N  Cu
  positions in cartesian coordinates
  No initial velocities read in
 


--------------------------------------------------------------------------------------------------------


 ion  position               nearest neighbor table
   1  0.066  0.404  0.133-  25 1.33  27 1.33  31 1.39
   2  0.981  0.234  0.133-  29 1.32  26 1.33  31 1.39
   3  0.226  0.398  0.133-  30 1.33  27 1.33  40 1.48
   4  0.816  0.576  0.134-  44 1.33  45 1.35  32 1.45
   5  0.150  0.234  0.133-  28 1.32  30 1.33  31 1.39
   6  0.905  0.398  0.133-  26 1.33  25 1.33  32 1.47
   7  0.566  0.401  0.133-  35 1.33  33 1.33  39 1.37
   8  0.480  0.233  0.133-  37 1.32  34 1.33  39 1.40
   9  0.727  0.398  0.133-  38 1.33  35 1.35  32 1.45
  10  0.315  0.576  0.134-  53 1.33  52 1.35  40 1.45
  11  0.651  0.233  0.133-  36 1.32  38 1.33  39 1.40
  12  0.404  0.398  0.134-  34 1.33  33 1.35  40 1.45
  13  0.816  0.905  0.133-  43 1.32  41 1.33  47 1.40
  14  0.733  0.736  0.133-  45 1.33  42 1.33  47 1.37
  15  0.977  0.898  0.133-  46 1.34  43 1.34  56 1.46
  16  0.901  0.734  0.133-  46 1.32  44 1.33  47 1.40
  17  0.654  0.899  0.134-  41 1.33  42 1.35  48 1.45
  18  0.315  0.905  0.133-  49 1.32  51 1.33  55 1.40
  19  0.230  0.734  0.133-  50 1.32  53 1.33  55 1.40
  20  0.477  0.899  0.134-  51 1.33  54 1.35  48 1.45
  21  0.398  0.736  0.133-  52 1.33  54 1.33  55 1.37
  22  0.154  0.899  0.133-  50 1.34  49 1.34  56 1.46
  23  0.065  0.077  0.133-  29 1.33  28 1.33  56 1.46
  24  0.566  0.076  0.133-  37 1.34  36 1.34  48 1.46
  25  0.984  0.457  0.133-   1 1.33   6 1.33
  26  0.901  0.290  0.133-   2 1.33   6 1.33
  27  0.147  0.457  0.133-   1 1.33   3 1.33
  28  0.149  0.127  0.133-   5 1.32  23 1.33
  29  0.982  0.127  0.133-   2 1.32  23 1.33
  30  0.231  0.290  0.133-   5 1.33   3 1.33
  31  0.066  0.291  0.133-   1 1.39   5 1.39   2 1.39
  32  0.815  0.458  0.133-   4 1.45   9 1.45   6 1.47
  33  0.485  0.456  0.134-   7 1.33  12 1.35
  34  0.401  0.290  0.134-   8 1.33  12 1.33
  35  0.646  0.456  0.134-   7 1.33   9 1.35
  36  0.649  0.126  0.133-  11 1.32  24 1.34
  37  0.482  0.126  0.133-   8 1.32  24 1.34
  38  0.730  0.290  0.134-  11 1.33   9 1.33
  39  0.566  0.290  0.133-   7 1.37   8 1.40  11 1.40
  40  0.316  0.458  0.133-  10 1.45  12 1.45   3 1.48
  41  0.734  0.956  0.134-  13 1.33  17 1.33
  42  0.652  0.789  0.134-  14 1.33  17 1.35
  43  0.897  0.957  0.133-  13 1.32  15 1.34
  44  0.898  0.627  0.134-  16 1.33   4 1.33
  45  0.732  0.628  0.134-  14 1.33   4 1.35
  46  0.981  0.790  0.133-  16 1.32  15 1.34
  47  0.816  0.792  0.133-  14 1.37  13 1.40  16 1.40
  48  0.565  0.957  0.133-  20 1.45  17 1.45  24 1.46
  49  0.234  0.957  0.133-  18 1.32  22 1.34
  50  0.150  0.790  0.133-  19 1.32  22 1.34
  51  0.397  0.956  0.134-  18 1.33  20 1.33
  52  0.399  0.629  0.134-  21 1.33  10 1.35
  53  0.233  0.627  0.134-  19 1.33  10 1.33
  54  0.479  0.789  0.134-  21 1.33  20 1.35
  55  0.314  0.792  0.133-  21 1.37  18 1.40  19 1.40
  56  0.065  0.958  0.133-  22 1.46  15 1.46  23 1.46
  57  0.564  0.624  0.137-
 
  LATTYP: Found a simple orthorhombic cell.
 ALAT       =    12.3019443187
 B/A-ratio  =     1.1547820380
 C/A-ratio  =     1.2193194516
  
  Lattice vectors:
  
 A1 = (   0.0000000000, -12.3019443187,   0.0000000000)
 A2 = (  14.2060643322,   0.0000000000,   0.0000000000)
 A3 = (   0.0000000000,   0.0000000000,  15.0000000000)


Analysis of symmetry for initial positions (statically):
=====================================================================
 Subroutine PRICEL returns:
 Original cell was already a primitive cell.
 

 Routine SETGRP: Setting up the symmetry group for a 
 simple orthorhombic supercell.


 Subroutine GETGRP returns: Found  1 space group operations
 (whereof  1 operations were pure point group operations)
 out of a pool of  8 trial point group operations.


The static configuration has the point symmetry C_1 .


Analysis of symmetry for dynamics (positions and initial velocities):
=====================================================================
 Subroutine PRICEL returns:
 Original cell was already a primitive cell.
 

 Routine SETGRP: Setting up the symmetry group for a 
 simple orthorhombic supercell.


 Subroutine GETGRP returns: Found  1 space group operations
 (whereof  1 operations were pure point group operations)
 out of a pool of  8 trial point group operations.


The dynamic configuration has the point symmetry C_1 .


 Subroutine INISYM returns: Found  1 space group operations
 (whereof  1 operations are pure point group operations),
 and found     1 'primitive' translations


----------------------------------------------------------------------------------------

                                     Primitive cell                                     

  volume of cell :    2621.4332

  direct lattice vectors                    reciprocal lattice vectors
    14.206064332  0.000000000  0.000000000     0.070392473  0.000000000  0.000000000
     0.000000000 12.301944319  0.000000000     0.000000000  0.081287963  0.000000000
     0.000000000  0.000000000 15.000000000     0.000000000  0.000000000  0.066666667

  length of vectors
    14.206064332 12.301944319 15.000000000     0.070392473  0.081287963  0.066666667

  position of ions in fractional coordinates (direct lattice)
     0.065529235  0.404282237  0.133328831
     0.980735063  0.234486534  0.133312505
     0.225968488  0.398007423  0.133326927
     0.815677134  0.575981502  0.133532706
     0.150327391  0.234489072  0.133307555
     0.905105668  0.398012154  0.133328883
     0.565636000  0.400604596  0.133292902
     0.480032749  0.233399150  0.133191182
     0.726999594  0.398166055  0.133491426
     0.315303449  0.576044428  0.133527046
     0.651138453  0.233328856  0.133187340
     0.404179461  0.398309286  0.133528911
     0.815931831  0.905241227  0.133221785
     0.733126834  0.736133884  0.133367616
     0.976534045  0.898492509  0.133309971
     0.901300943  0.734284177  0.133173972
     0.654360767  0.898693939  0.133519079
     0.314963862  0.905446831  0.133200544
     0.229581881  0.734364644  0.133160120
     0.476521177  0.898895762  0.133500490
     0.397654077  0.736413117  0.133290114
     0.154351035  0.898550683  0.133325631
     0.065476293  0.076898475  0.133313670
     0.565525173  0.076362738  0.133314068
     0.983860967  0.456732302  0.133316568
     0.900513234  0.290052123  0.133280115
     0.147218914  0.456730850  0.133304340
     0.148799782  0.126829434  0.133286961
     0.982170530  0.126819644  0.133295271
     0.230593732  0.290044664  0.133283595
     0.065531261  0.291231028  0.133349583
     0.815214505  0.457923502  0.133370479
     0.485379059  0.455962223  0.133727606
     0.400765775  0.290455134  0.133597090
     0.645890395  0.455834349  0.133688615
     0.649158742  0.126118557  0.133419558
     0.481927033  0.126180434  0.133408328
     0.730446883  0.290290815  0.133578592
     0.565590134  0.289633462  0.132592387
     0.315901674  0.458006144  0.133387856
     0.733551173  0.956139981  0.133617287
     0.651569445  0.788863889  0.133722144
     0.897217997  0.957091439  0.133441068
     0.898348406  0.626533913  0.133512795
     0.731943047  0.628297315  0.133848471
     0.980717750  0.789927915  0.133385637
     0.816444021  0.791705291  0.132653305
     0.565463827  0.957298147  0.133351265
     0.233655124  0.957193320  0.133468823
     0.150161843  0.789980794  0.133438657
     0.397333924  0.956353629  0.133639266
     0.399002064  0.628553289  0.133811538
     0.232638641  0.626608723  0.133556841
     0.479195328  0.789086106  0.133666598
     0.314416586  0.791891828  0.132532095
     0.065443803  0.957877428  0.133311231
     0.564130240  0.624365632  0.137312762

  ion indices of the primitive-cell ions
   primitive index   ion index
                 1           1
                 2           2
                 3           3
                 4           4
                 5           5
                 6           6
                 7           7
                 8           8
                 9           9
                10          10
                11          11
                12          12
                13          13
                14          14
                15          15
                16          16
                17          17
                18          18
                19          19
                20          20
                21          21
                22          22
                23          23
                24          24
                25          25
                26          26
                27          27
                28          28
                29          29
                30          30
                31          31
                32          32
                33          33
                34          34
                35          35
                36          36
                37          37
                38          38
                39          39
                40          40
                41          41
                42          42
                43          43
                44          44
                45          45
                46          46
                47          47
                48          48
                49          49
                50          50
                51          51
                52          52
                53          53
                54          54
                55          55
                56          56
                57          57

----------------------------------------------------------------------------------------

 
 
 KPOINTS: K-POINTS                                

Automatic generation of k-mesh.
 Grid dimensions read from file:
 generate k-points for:    2    2    1

 Generating k-lattice:

  Cartesian coordinates                     Fractional coordinates (reciprocal lattice)
     0.035196237  0.000000000  0.000000000     0.500000000  0.000000000  0.000000000
     0.000000000  0.040643982  0.000000000     0.000000000  0.500000000  0.000000000
     0.000000000  0.000000000  0.066666667     0.000000000  0.000000000  1.000000000

  Length of vectors
     0.035196237  0.040643982  0.066666667

  Shift w.r.t. Gamma in fractional coordinates (k-lattice)
     0.000000000  0.000000000  0.000000000

 
 Subroutine IBZKPT returns following result:
 ===========================================
 
 Found      4 irreducible k-points:
 
 Following reciprocal coordinates:
            Coordinates               Weight
  0.000000  0.000000  0.000000      1.000000
  0.500000  0.000000  0.000000      1.000000
  0.000000  0.500000  0.000000      1.000000
  0.500000  0.500000  0.000000      1.000000
 
 Following cartesian coordinates:
            Coordinates               Weight
  0.000000  0.000000  0.000000      1.000000
  0.035196  0.000000  0.000000      1.000000
  0.000000  0.040644  0.000000      1.000000
  0.035196  0.040644  0.000000      1.000000
 


--------------------------------------------------------------------------------------------------------




 Dimension of arrays:
   k-points           NKPTS =      4   k-points in BZ     NKDIM =      4   number of bands    NBANDS=    164
   number of dos      NEDOS =    301   number of ions     NIONS =     57
   non local maximal  LDIM  =      6   non local SUM 2l+1 LMDIM =     18
   total plane-waves  NPLWV = 336000
   max r-space proj   IRMAX =   2454   max aug-charges    IRDMAX=   3912
   dimension x,y,z NGX =    70 NGY =   60 NGZ =   80
   dimension x,y,z NGXF=   140 NGYF=  120 NGZF=  160
   support grid    NGXF=   140 NGYF=  120 NGZF=  160
   ions per type =              24  32   1
   NGX,Y,Z   is equivalent  to a cutoff of   8.19,  8.11,  8.87 a.u.
   NGXF,Y,Z  is equivalent  to a cutoff of  16.38, 16.22, 17.73 a.u.

 SYSTEM =  slab_Cel1-OPT                           
 POSCAR =  C  N  Cu                                

 Startparameter for this run:
   NWRITE =      2    write-flag & timer
   PREC   = n         normal or accurate (medium, high low for compatibility)
   ISTART =      0    job   : 0-new  1-cont  2-samecut
   ICHARG =      2    charge: 1-file 2-atom 10-const
   ISPIN  =      1    spin polarized calculation?
   LNONCOLLINEAR =      F non collinear calculations
   LSORBIT =      F    spin-orbit coupling
   INIWAV =      1    electr: 0-lowe 1-rand  2-diag
   LASPH  =      F    aspherical Exc in radial PAW
 Electronic Relaxation 1
   ENCUT  =  400.0 eV  29.40 Ry    5.42 a.u.  23.17 20.06 24.46*2*pi/ulx,y,z
   ENINI  =  400.0     initial cutoff
   ENAUG  =  644.9 eV  augmentation charge cutoff
   NELM   =    200;   NELMIN=  2; NELMDL= -5     # of ELM steps 
   EDIFF  = 0.1E-04   stopping-criterion for ELM
   LREAL  =      T    real-space projection
   NLSPLINE    = F    spline interpolate recip. space projectors
   LCOMPAT=      F    compatible to vasp.4.4
   GGA_COMPAT  = T    GGA compatible to vasp.4.4-vasp.4.6
   LMAXPAW     = -100 max onsite density
   LMAXMIX     =    2 max onsite mixed and CHGCAR
   VOSKOWN=      0    Vosko Wilk Nusair interpolation
   ROPT   =   -0.00050  -0.00050  -0.00050
 Ionic relaxation
   EDIFFG = -.5E-01   stopping-criterion for IOM
   NSW    =   1000    number of steps for IOM
   NBLOCK =      1;   KBLOCK =   1000    inner block; outer block 
   IBRION =      2    ionic relax: 0-MD 1-quasi-New 2-CG
   NFREE  =      1    steps in history (QN), initial steepest desc. (CG)
   ISIF   =      3    stress and relaxation
   IWAVPR =     11    prediction:  0-non 1-charg 2-wave 3-comb
   ISYM   =      2    0-nonsym 1-usesym 2-fastsym
   LCORR  =      T    Harris-Foulkes like correction to forces

   POTIM  = 0.1000    time-step for ionic-motion
   TEIN   =    0.0    initial temperature
   TEBEG  =    0.0;   TEEND  =   0.0 temperature during run
   SMASS  =  -3.00    Nose mass-parameter (am)
   estimated Nose-frequenzy (Omega)   =  0.10E-29 period in steps = 0.63E+47 mass=  -0.461E-26a.u.
   SCALEE = 1.0000    scale energy and forces
   NPACO  =    256;   APACO  = 10.0  distance and # of slots for P.C.
   PSTRESS=    0.0 pullay stress

  Mass of Ions in am
   POMASS =  12.01 14.00 63.55
  Ionic Valenz
   ZVAL   =   4.00  5.00 11.00
  Atomic Wigner-Seitz radii
   RWIGS  =  -1.00 -1.00 -1.00
  virtual crystal weights 
   VCA    =   1.00  1.00  1.00
   NELECT =     267.0000    total number of electrons
   NUPDOWN=      -1.0000    fix difference up-down

 DOS related values:
   EMIN   =  10.00;   EMAX   =-10.00  energy-range for DOS
   EFERMI =   0.00
   ISMEAR =     0;   SIGMA  =   0.10  broadening in eV -4-tet -1-fermi 0-gaus

 Electronic relaxation 2 (details)
   IALGO  =     38    algorithm
   LDIAG  =      T    sub-space diagonalisation (order eigenvalues)
   LSUBROT=      F    optimize rotation matrix (better conditioning)
   TURBO    =      0    0=normal 1=particle mesh
   IRESTART =      0    0=no restart 2=restart with 2 vectors
   NREBOOT  =      0    no. of reboots
   NMIN     =      0    reboot dimension
   EREF     =   0.00    reference energy to select bands
   IMIX   =      4    mixing-type and parameters
     AMIX     =   0.40;   BMIX     =  1.00
     AMIX_MAG =   1.60;   BMIX_MAG =  1.00
     AMIN     =   0.10
     WC   =   100.;   INIMIX=   1;  MIXPRE=   1;  MAXMIX= -45

 Intra band minimization:
   WEIMIN = 0.0010     energy-eigenvalue tresh-hold
   EBREAK =  0.15E-07  absolut break condition
   DEPER  =   0.30     relativ break condition  

   TIME   =   0.40     timestep for ELM

  volume/ion in A,a.u.               =      45.99       310.36
  Fermi-wavevector in a.u.,A,eV,Ry     =   0.764538  1.444767  7.952852  0.584518
  Thomas-Fermi vector in A             =   1.864461
 
 Write flags
   LWAVE        =      F    write WAVECAR
   LDOWNSAMPLE  =      F    k-point downsampling of WAVECAR
   LCHARG       =      F    write CHGCAR
   LVTOT        =      F    write LOCPOT, total local potential
   LVHAR        =      F    write LOCPOT, Hartree potential only
   LELF         =      F    write electronic localiz. function (ELF)
   LORBIT       =      0    0 simple, 1 ext, 2 COOP (PROOUT), +10 PAW based schemes


 Dipole corrections
   LMONO  =      F    monopole corrections only (constant potential shift)
   LDIPOL =      T    correct potential (dipole corrections)
   IDIPOL =      3    1-x, 2-y, 3-z, 4-all directions 
   EPSILON=  1.0000000 bulk dielectric constant

 Exchange correlation treatment:
   GGA     =    --    GGA type
   LEXCH   =     8    internal setting for exchange type
   LIBXC   =     F    Libxc                    
   VOSKOWN =     0    Vosko Wilk Nusair interpolation
   LHFCALC =     F    Hartree Fock is set to
   LHFONE  =     F    Hartree Fock one center treatment
   AEXX    =    0.0000 exact exchange contribution

 Linear response parameters
   LEPSILON=     F    determine dielectric tensor
   LRPA    =     F    only Hartree local field effects (RPA)
   LNABLA  =     F    use nabla operator in PAW spheres
   LVEL    =     F    velocity operator in full k-point grid
   CSHIFT  =0.1000    complex shift for real part using Kramers Kronig
   OMEGAMAX=  -1.0    maximum frequency
   DEG_THRESHOLD= 0.2000000E-02 threshold for treating states as degnerate
   RTIME   =   -0.100 relaxation time in fs
  (WPLASMAI=    0.000 imaginary part of plasma frequency in eV, 0.658/RTIME)
   DFIELD  = 0.0000000 0.0000000 0.0000000 field for delta impulse in time
 
  Optional k-point grid parameters
   LKPOINTS_OPT  =     F    use optional k-point grid
   KPOINTS_OPT_MODE=     1    mode for optional k-point grid
 
 Orbital magnetization related:
   ORBITALMAG=     F  switch on orbital magnetization
   LCHIMAG   =     F  perturbation theory with respect to B field
   DQ        =  0.001000  dq finite difference perturbation B field
   LLRAUG    =     F  two centre corrections for induced B field



--------------------------------------------------------------------------------------------------------


 conjugate gradient relaxation of ions
 charge density and potential will be updated during run
 non-spin polarized calculation
 Variant of blocked Davidson
 Davidson routine will perform the subspace rotation
 perform sub-space diagonalisation
    after iterative eigenvector-optimisation
 modified Broyden-mixing scheme, WC =      100.0
 initial mixing is a Kerker type mixing with AMIX =  0.4000 and BMIX =      1.0000
 Hartree-type preconditioning will be used
 using additional bands           30
 real space projection scheme for non local part
 use partial core corrections
 calculate Harris-corrections to forces 
   (improved forces if not selfconsistent)
 use gradient corrections 
 use of overlap-Matrix (Vanderbilt PP)
 Gauss-broadening in eV      SIGMA  =   0.10


--------------------------------------------------------------------------------------------------------


  energy-cutoff  :      400.00
  volume of cell :     2621.43
      direct lattice vectors                 reciprocal lattice vectors
    14.206064332  0.000000000  0.000000000     0.070392473  0.000000000  0.000000000
     0.000000000 12.301944319  0.000000000     0.000000000  0.081287963  0.000000000
     0.000000000  0.000000000 15.000000000     0.000000000  0.000000000  0.066666667

  length of vectors
    14.206064332 12.301944319 15.000000000     0.070392473  0.081287963  0.066666667


 
 k-points in units of 2pi/SCALE and weight: K-POINTS                                
   0.00000000  0.00000000  0.00000000       0.250
   0.03519624  0.00000000  0.00000000       0.250
   0.00000000  0.04064398  0.00000000       0.250
   0.03519624  0.04064398  0.00000000       0.250
 
 k-points in reciprocal lattice and weights: K-POINTS                                
   0.00000000  0.00000000  0.00000000       0.250
   0.50000000  0.00000000  0.00000000       0.250
   0.00000000  0.50000000  0.00000000       0.250
   0.50000000  0.50000000  0.00000000       0.250
 
 position of ions in fractional coordinates (direct lattice) 
   0.06552924  0.40428224  0.13332883
   0.98073506  0.23448653  0.13331251
   0.22596849  0.39800742  0.13332693
   0.81567713  0.57598150  0.13353271
   0.15032739  0.23448907  0.13330756
   0.90510567  0.39801215  0.13332888
   0.56563600  0.40060460  0.13329290
   0.48003275  0.23339915  0.13319118
   0.72699959  0.39816605  0.13349143
   0.31530345  0.57604443  0.13352705
   0.65113845  0.23332886  0.13318734
   0.40417946  0.39830929  0.13352891
   0.81593183  0.90524123  0.13322179
   0.73312683  0.73613388  0.13336762
   0.97653404  0.89849251  0.13330997
   0.90130094  0.73428418  0.13317397
   0.65436077  0.89869394  0.13351908
   0.31496386  0.90544683  0.13320054
   0.22958188  0.73436464  0.13316012
   0.47652118  0.89889576  0.13350049
   0.39765408  0.73641312  0.13329011
   0.15435104  0.89855068  0.13332563
   0.06547629  0.07689847  0.13331367
   0.56552517  0.07636274  0.13331407
   0.98386097  0.45673230  0.13331657
   0.90051323  0.29005212  0.13328011
   0.14721891  0.45673085  0.13330434
   0.14879978  0.12682943  0.13328696
   0.98217053  0.12681964  0.13329527
   0.23059373  0.29004466  0.13328360
   0.06553126  0.29123103  0.13334958
   0.81521451  0.45792350  0.13337048
   0.48537906  0.45596222  0.13372761
   0.40076577  0.29045513  0.13359709
   0.64589040  0.45583435  0.13368861
   0.64915874  0.12611856  0.13341956
   0.48192703  0.12618043  0.13340833
   0.73044688  0.29029081  0.13357859
   0.56559013  0.28963346  0.13259239
   0.31590167  0.45800614  0.13338786
   0.73355117  0.95613998  0.13361729
   0.65156945  0.78886389  0.13372214
   0.89721800  0.95709144  0.13344107
   0.89834841  0.62653391  0.13351279
   0.73194305  0.62829732  0.13384847
   0.98071775  0.78992791  0.13338564
   0.81644402  0.79170529  0.13265331
   0.56546383  0.95729815  0.13335126
   0.23365512  0.95719332  0.13346882
   0.15016184  0.78998079  0.13343866
   0.39733392  0.95635363  0.13363927
   0.39900206  0.62855329  0.13381154
   0.23263864  0.62660872  0.13355684
   0.47919533  0.78908611  0.13366660
   0.31441659  0.79189183  0.13253209
   0.06544380  0.95787743  0.13331123
   0.56413024  0.62436563  0.13731276
 
 position of ions in cartesian coordinates  (Angst):
   0.93091253  4.97345757  1.99993246
  13.93238540  2.88464028  1.99968758
   3.21012288  4.89626515  1.99990391
  11.58756184  7.08569236  2.00299060
   2.13556059  2.88467151  1.99961333
  12.85798934  4.89632336  1.99993325
   8.03546141  4.92821543  1.99939354
   6.81937611  2.87126335  1.99786773
  10.32780300  4.89821664  2.00237138
   4.47922107  7.08646647  2.00290568
   9.25011475  2.87039860  1.99781009
   5.74179943  4.89997866  2.00293366
  11.59118008 11.13622717  1.99832678
  10.41484697  9.05587805  2.00051424
  13.87270546 11.05320482  1.99964956
  12.80393918  9.03312305  1.99760958
   9.29589115 11.05568280  2.00278619
   4.47439688 11.13875650  1.99800817
   3.26145497  9.03411296  1.99740180
   6.76949050 11.05816561  2.00250735
   5.64909941  9.05931316  1.99935171
   2.19272074 11.05392047  1.99988447
   0.93016043  0.94600075  1.99970505
   8.03388699  0.93941015  1.99971102
  13.97679220  5.61869535  1.99974852
  12.79274893  3.56820507  1.99920172
   2.09140136  5.61867749  1.99956510
   2.11385928  1.56024864  1.99930442
  13.95277773  1.56012820  1.99942906
   3.27582939  3.56811331  1.99925393
   0.93094132  3.58270789  2.00024375
  11.58098971  5.63334942  2.00055718
   6.89532614  5.60922188  2.00591409
   5.69330438  3.57316288  2.00395636
   9.17556051  5.60764878  2.00532922
   9.22199085  1.55150347  2.00129337
   6.84628644  1.55226467  2.00112492
  10.37677540  3.57114144  2.00367887
   8.03480983  3.56305472  1.98888580
   4.48771951  5.63436608  2.00081784
  10.42087515 11.76238081  2.00425930
   9.25623745  9.70455963  2.00583217
  12.74593658 11.77408559  2.00161602
  12.76199524  7.70758531  2.00269192
  10.39803001  7.72927859  2.00772706
  13.93213945  9.71764922  2.00078455
  11.59845628  9.73951441  1.98979958
   8.03301551 11.77662850  2.00026897
   3.31931973 11.77533893  2.00203234
   2.13320880  9.71829974  2.00157985
   5.64455129 11.76500909  2.00458900
   5.66824898  7.73242756  2.00717307
   3.30487950  7.70850563  2.00335261
   6.80747966  9.70729334  2.00499897
   4.46662225  9.74180917  1.98798142
   0.92969887 11.78375478  1.99966847
   8.01407048  7.68091124  2.05969143
 


--------------------------------------------------------------------------------------------------------


 k-point   1 :   0.0000 0.0000 0.0000  plane waves:   47567
 k-point   2 :   0.5000 0.0000 0.0000  plane waves:   47614
 k-point   3 :   0.0000 0.5000 0.0000  plane waves:   47620
 k-point   4 :   0.5000 0.5000 0.0000  plane waves:   47640

 maximum and minimum number of plane-waves per node :      3998     3933

 maximum number of plane-waves:     47640
 maximum index in each direction: 
   IXMAX=   23   IYMAX=   20   IZMAX=   24
   IXMIN=  -23   IYMIN=  -20   IZMIN=  -24


 real space projection operators:
  total allocation   :       6671.30 KBytes
  max/ min on nodes  :        586.14        478.27


 parallel 3D FFT for wavefunctions:
    minimum data exchange during FFTs selected (reduces bandwidth)
 parallel 3D FFT for charge:
    minimum data exchange during FFTs selected (reduces bandwidth)


 total amount of memory used by VASP MPI-rank0    51480. kBytes
=======================================================================

   base      :      30000. kBytes
   nonlr-proj:       3047. kBytes
   fftplans  :       2857. kBytes
   grid      :       4878. kBytes
   one-center:         77. kBytes
   wavefun   :      10621. kBytes
 
     INWAV:  cpu time      0.0000: real time      0.0000
 Broyden mixing: mesh for mixing (old mesh)
   NGX = 47   NGY = 41   NGZ = 49
  (NGX  =140   NGY  =120   NGZ  =160)
  gives a total of  94423 points

 initial charge density was supplied:
 charge density of overlapping atoms calculated
 number of electron     267.0000000 magnetization 
 keeping initial charge density in first step


--------------------------------------------------------------------------------------------------------


 Maximum index for non-local projection operator          236
 Maximum index for augmentation-charges          147 (set IRDMAX)


--------------------------------------------------------------------------------------------------------


 First call to EWALD:  gamma=   0.129
 Maximum number of real-space cells 3x 3x 3
 Maximum number of reciprocal cells 3x 3x 3

    FEWALD:  cpu time      0.0021: real time      0.0021


--------------------------------------- Iteration      1(   1)  ---------------------------------------


    POTLOK:  cpu time      0.0370: real time      0.0387
    SETDIJ:  cpu time      0.0034: real time      0.0064
     EDDAV:  cpu time      1.7014: real time      1.7041
       DOS:  cpu time      0.0008: real time      0.0008
    --------------------------------------------
      LOOP:  cpu time      1.7427: real time      1.7501

 eigenvalue-minimisations  :  1520
 total energy-change (2. order) : 0.2564928E+04  (-0.9200141E+04)
 number of electron     267.0000000 magnetization 
 augmentation part      267.0000000 magnetization 

 DIPCOR: dipole corrections for dipol
 direction  3 min pos   110,
 dipolmoment           0.000000      0.000000      0.000443 electrons x Angstroem
 Tr[quadrupol]     -8076.016864

 energy correction for charged system         0.000000 eV
 dipol+quadrupol energy correction           -0.000000 eV
 added-field ion interaction          0.006150 eV  (added to PSCEN)


 Free energy of the ion-electron system (eV)
  ---------------------------------------------------
  alpha Z        PSCENC =       127.21392941
  Ewald energy   TEWEN  =     28039.58296201
  -Hartree energ DENC   =    -38730.73596715
  -exchange      EXHF   =         0.00000000
  -V(xc)+E(xc)   XCENC  =      1000.69242210
  PAW double counting   =     10390.58318458   -10548.20222217
  entropy T*S    EENTRO =        -0.10067108
  eigenvalues    EBANDS =     -1099.31685952
  atomic energy  EATOM  =     13385.21109036
  Solvation  Ediel_sol  =         0.00000000
  ---------------------------------------------------
  free energy    TOTEN  =      2564.92786853 eV

  energy without entropy =     2565.02853961  energy(sigma->0) =     2564.97820407


--------------------------------------------------------------------------------------------------------




--------------------------------------- Iteration      1(   2)  ---------------------------------------


     EDDAV:  cpu time      1.9547: real time      1.9568
       DOS:  cpu time      0.0007: real time      0.0006
    --------------------------------------------
      LOOP:  cpu time      1.9554: real time      1.9574

 eigenvalue-minimisations  :  1912
 total energy-change (2. order) :-0.2490066E+04  (-0.2360662E+04)
 number of electron     267.0000000 magnetization 
 augmentation part      267.0000000 magnetization 

 DIPCOR: dipole corrections for dipol
 direction  3 min pos   110,
 dipolmoment           0.000000      0.000000      0.000443 electrons x Angstroem
 Tr[quadrupol]     -8076.016864

 energy correction for charged system         0.000000 eV
 dipol+quadrupol energy correction           -0.000000 eV
 added-field ion interaction          0.006150 eV  (added to PSCEN)


 Free energy of the ion-electron system (eV)
  ---------------------------------------------------
  alpha Z        PSCENC =       127.21392941
  Ewald energy   TEWEN  =     28039.58296201
  -Hartree energ DENC   =    -38730.73596715
  -exchange      EXHF   =         0.00000000
  -V(xc)+E(xc)   XCENC  =      1000.69242210
  PAW double counting   =     10390.58318458   -10548.20222217
  entropy T*S    EENTRO =        -0.03024349
  eigenvalues    EBANDS =     -3589.45293195
  atomic energy  EATOM  =     13385.21109036
  Solvation  Ediel_sol  =         0.00000000
  ---------------------------------------------------
  free energy    TOTEN  =        74.86222369 eV

  energy without entropy =       74.89246718  energy(sigma->0) =       74.87734544


--------------------------------------------------------------------------------------------------------




--------------------------------------- Iteration      1(   3)  ---------------------------------------


     EDDAV:  cpu time      1.7027: real time      1.7029
       DOS:  cpu time      0.0008: real time      0.0008
    --------------------------------------------
      LOOP:  cpu time      1.7034: real time      1.7036

 eigenvalue-minimisations  :  1608
 total energy-change (2. order) :-0.5534092E+03  (-0.5446776E+03)
 number of electron     267.0000000 magnetization 
 augmentation part      267.0000000 magnetization 

 DIPCOR: dipole corrections for dipol
 direction  3 min pos   110,
 dipolmoment           0.000000      0.000000      0.000443 electrons x Angstroem
 Tr[quadrupol]     -8076.016864

 energy correction for charged system         0.000000 eV
 dipol+quadrupol energy correction           -0.000000 eV
 added-field ion interaction          0.006150 eV  (added to PSCEN)


 Free energy of the ion-electron system (eV)
  ---------------------------------------------------
  alpha Z        PSCENC =       127.21392941
  Ewald energy   TEWEN  =     28039.58296201
  -Hartree energ DENC   =    -38730.73596715
  -exchange      EXHF   =         0.00000000
  -V(xc)+E(xc)   XCENC  =      1000.69242210
  PAW double counting   =     10390.58318458   -10548.20222217
  entropy T*S    EENTRO =        -0.11783652
  eigenvalues    EBANDS =     -4142.77457885
  atomic energy  EATOM  =     13385.21109036
  Solvation  Ediel_sol  =         0.00000000
  ---------------------------------------------------
  free energy    TOTEN  =      -478.54701623 eV

  energy without entropy =     -478.42917971  energy(sigma->0) =     -478.48809797


--------------------------------------------------------------------------------------------------------




--------------------------------------- Iteration      1(   4)  ---------------------------------------


     EDDAV:  cpu time      2.0364: real time      2.0393
       DOS:  cpu time      0.0007: real time      0.0007
    --------------------------------------------
      LOOP:  cpu time      2.0371: real time      2.0400

 eigenvalue-minimisations  :  1976
 total energy-change (2. order) :-0.3708418E+02  (-0.3498434E+02)
 number of electron     267.0000000 magnetization 
 augmentation part      267.0000000 magnetization 

 DIPCOR: dipole corrections for dipol
 direction  3 min pos   110,
 dipolmoment           0.000000      0.000000      0.000443 electrons x Angstroem
 Tr[quadrupol]     -8076.016864

 energy correction for charged system         0.000000 eV
 dipol+quadrupol energy correction           -0.000000 eV
 added-field ion interaction          0.006150 eV  (added to PSCEN)


 Free energy of the ion-electron system (eV)
  ---------------------------------------------------
  alpha Z        PSCENC =       127.21392941
  Ewald energy   TEWEN  =     28039.58296201
  -Hartree energ DENC   =    -38730.73596715
  -exchange      EXHF   =         0.00000000
  -V(xc)+E(xc)   XCENC  =      1000.69242210
  PAW double counting   =     10390.58318458   -10548.20222217
  entropy T*S    EENTRO =        -0.13238456
  eigenvalues    EBANDS =     -4179.84421229
  atomic energy  EATOM  =     13385.21109036
  Solvation  Ediel_sol  =         0.00000000
  ---------------------------------------------------
  free energy    TOTEN  =      -515.63119771 eV

  energy without entropy =     -515.49881316  energy(sigma->0) =     -515.56500544


--------------------------------------------------------------------------------------------------------




--------------------------------------- Iteration      1(   5)  ---------------------------------------


     EDDAV:  cpu time      1.7806: real time      1.7825
       DOS:  cpu time      0.0007: real time      0.0007
    CHARGE:  cpu time      0.0453: real time      0.0454
    MIXING:  cpu time      0.0022: real time      0.0024
    --------------------------------------------
      LOOP:  cpu time      1.8288: real time      1.8310

 eigenvalue-minimisations  :  1712
 total energy-change (2. order) :-0.1216613E+01  (-0.1165915E+01)
 number of electron     266.9999918 magnetization 
 augmentation part       12.3190488 magnetization 

 DIPCOR: dipole corrections for dipol
 direction  3 min pos   110,
 dipolmoment           0.000000      0.000000      0.000443 electrons x Angstroem
 Tr[quadrupol]     -8076.016864

 energy correction for charged system         0.000000 eV
 dipol+quadrupol energy correction           -0.000000 eV
 added-field ion interaction          0.006150 eV  (added to PSCEN)


 Broyden mixing:
  rms(total) = 0.85754E+01    rms(broyden)= 0.85731E+01
  rms(prec ) = 0.10607E+02
  weight for this iteration     100.00

 Free energy of the ion-electron system (eV)
  ---------------------------------------------------
  alpha Z        PSCENC =       127.21392941
  Ewald energy   TEWEN  =     28039.58296201
  -Hartree energ DENC   =    -38730.73596715
  -exchange      EXHF   =         0.00000000
  -V(xc)+E(xc)   XCENC  =      1000.69242210
  PAW double counting   =     10390.58318458   -10548.20222217
  entropy T*S    EENTRO =        -0.14845256
  eigenvalues    EBANDS =     -4181.04475713
  atomic energy  EATOM  =     13385.21109036
  Solvation  Ediel_sol  =         0.00000000
  ---------------------------------------------------
  free energy    TOTEN  =      -516.84781055 eV

  energy without entropy =     -516.69935799  energy(sigma->0) =     -516.77358427


--------------------------------------------------------------------------------------------------------




--------------------------------------- Iteration      1(   6)  ---------------------------------------


    POTLOK:  cpu time      0.0302: real time      0.0305
    SETDIJ:  cpu time      0.0028: real time      0.0046
     EDDAV:  cpu time      2.1760: real time      2.1879
       DOS:  cpu time      0.0005: real time      0.0005
    CHARGE:  cpu time      0.0422: real time      0.0422
    MIXING:  cpu time      0.0015: real time      0.0015
    --------------------------------------------
      LOOP:  cpu time      2.2531: real time      2.2672

 eigenvalue-minimisations  :  2192
 total energy-change (2. order) :-0.1877152E+03  (-0.5715626E+02)
 number of electron     267.0000089 magnetization 
 augmentation part       17.5772704 magnetization 

 DIPCOR: dipole corrections for dipol
 direction  3 min pos   113,
 dipolmoment           0.000000      0.000000     -0.109854 electrons x Angstroem
 Tr[quadrupol]     -8076.955314

 energy correction for charged system         0.000000 eV
 dipol+quadrupol energy correction           -0.000438 eV
 added-field ion interaction         -2.124781 eV  (added to PSCEN)


 Broyden mixing:
  rms(total) = 0.56922E+01    rms(broyden)= 0.56905E+01
  rms(prec ) = 0.76975E+01
  weight for this iteration     100.00

 eigenvalues of (default mixing * dielectric matrix)
  average eigenvalue GAMMA=   0.6271
  0.6271

 Free energy of the ion-electron system (eV)
  ---------------------------------------------------
  alpha Z        PSCENC =       125.08256028
  Ewald energy   TEWEN  =     28039.58296201
  -Hartree energ DENC   =    -38834.37559762
  -exchange      EXHF   =         0.00000000
  -V(xc)+E(xc)   XCENC  =      1011.49459065
  PAW double counting   =     15752.09562016   -15850.30885902
  entropy T*S    EENTRO =        -0.03485274
  eigenvalues    EBANDS =     -4333.31054606
  atomic energy  EATOM  =     13385.21109036
  Solvation  Ediel_sol  =         0.00000000
  ---------------------------------------------------
  free energy    TOTEN  =      -704.56303198 eV

  energy without entropy =     -704.52817925  energy(sigma->0) =     -704.54560562


--------------------------------------------------------------------------------------------------------




--------------------------------------- Iteration      1(   7)  ---------------------------------------


    POTLOK:  cpu time      0.0293: real time      0.0296
    SETDIJ:  cpu time      0.0030: real time      0.0030
     EDDAV:  cpu time      1.7540: real time      1.7545
       DOS:  cpu time      0.0007: real time      0.0007
    CHARGE:  cpu time      0.0444: real time      0.0444
    MIXING:  cpu time      0.0013: real time      0.0013
    --------------------------------------------
      LOOP:  cpu time      1.8328: real time      1.8336

 eigenvalue-minimisations  :  1608
 total energy-change (2. order) : 0.1785747E+03  (-0.3172749E+02)
 number of electron     267.0000072 magnetization 
 augmentation part       17.8434157 magnetization 

 DIPCOR: dipole corrections for dipol
 direction  3 min pos   105,
 dipolmoment           0.000000      0.000000     -0.035073 electrons x Angstroem
 Tr[quadrupol]     -8077.490381

 energy correction for charged system         0.000000 eV
 dipol+quadrupol energy correction           -0.000045 eV
 added-field ion interaction         -0.168023 eV  (added to PSCEN)


 Broyden mixing:
  rms(total) = 0.40712E+01    rms(broyden)= 0.40707E+01
  rms(prec ) = 0.47864E+01
  weight for this iteration     100.00

 eigenvalues of (default mixing * dielectric matrix)
  average eigenvalue GAMMA=   0.7110
  0.7110  0.7110

 Free energy of the ion-electron system (eV)
  ---------------------------------------------------
  alpha Z        PSCENC =       127.03971253
  Ewald energy   TEWEN  =     28039.58296201
  -Hartree energ DENC   =    -38960.16262515
  -exchange      EXHF   =         0.00000000
  -V(xc)+E(xc)   XCENC  =      1015.21854382
  PAW double counting   =     18643.79687647   -18792.45456703
  entropy T*S    EENTRO =        -0.02398493
  eigenvalues    EBANDS =     -3984.19634856
  atomic energy  EATOM  =     13385.21109036
  Solvation  Ediel_sol  =         0.00000000
  ---------------------------------------------------
  free energy    TOTEN  =      -525.98834047 eV

  energy without entropy =     -525.96435555  energy(sigma->0) =     -525.97634801


--------------------------------------------------------------------------------------------------------




--------------------------------------- Iteration      1(   8)  ---------------------------------------


    POTLOK:  cpu time      0.0306: real time      0.0319
    SETDIJ:  cpu time      0.0028: real time      0.0052
     EDDAV:  cpu time      1.8297: real time      1.8300
       DOS:  cpu time      0.0006: real time      0.0006
    CHARGE:  cpu time      0.0421: real time      0.0421
    MIXING:  cpu time      0.0013: real time      0.0013
    --------------------------------------------
      LOOP:  cpu time      1.9071: real time      1.9111

 eigenvalue-minimisations  :  1776
 total energy-change (2. order) : 0.2929113E+02  (-0.1851757E+02)
 number of electron     267.0000065 magnetization 
 augmentation part       17.7516567 magnetization 

 DIPCOR: dipole corrections for dipol
 direction  3 min pos   101,
 dipolmoment           0.000000      0.000000      0.007231 electrons x Angstroem
 Tr[quadrupol]     -8077.874513

 energy correction for charged system         0.000000 eV
 dipol+quadrupol energy correction           -0.000002 eV
 added-field ion interaction         -0.017969 eV  (added to PSCEN)


 Broyden mixing:
  rms(total) = 0.27115E+01    rms(broyden)= 0.27113E+01
  rms(prec ) = 0.31915E+01
  weight for this iteration     100.00

 eigenvalues of (default mixing * dielectric matrix)
  average eigenvalue GAMMA=   0.7723
  0.8573  0.8573  0.6021

 Free energy of the ion-electron system (eV)
  ---------------------------------------------------
  alpha Z        PSCENC =       127.18980931
  Ewald energy   TEWEN  =     28039.58296201
  -Hartree energ DENC   =    -39066.61561821
  -exchange      EXHF   =         0.00000000
  -V(xc)+E(xc)   XCENC  =      1019.65003528
  PAW double counting   =     20786.28369147   -20955.67490426
  entropy T*S    EENTRO =        -0.04468051
  eigenvalues    EBANDS =     -3832.27959202
  atomic energy  EATOM  =     13385.21109036
  Solvation  Ediel_sol  =         0.00000000
  ---------------------------------------------------
  free energy    TOTEN  =      -496.69720658 eV

  energy without entropy =     -496.65252607  energy(sigma->0) =     -496.67486633


--------------------------------------------------------------------------------------------------------




--------------------------------------- Iteration      1(   9)  ---------------------------------------


    POTLOK:  cpu time      0.0296: real time      0.0299
    SETDIJ:  cpu time      0.0030: real time      0.0030
     EDDAV:  cpu time      2.0042: real time      2.0043
       DOS:  cpu time      0.0007: real time      0.0007
    CHARGE:  cpu time      0.0431: real time      0.0431
    MIXING:  cpu time      0.0012: real time      0.0012
    --------------------------------------------
      LOOP:  cpu time      2.0819: real time      2.0822

 eigenvalue-minimisations  :  1992
 total energy-change (2. order) : 0.1629227E+02  (-0.4293607E+01)
 number of electron     267.0000061 magnetization 
 augmentation part       17.6186079 magnetization 

 DIPCOR: dipole corrections for dipol
 direction  3 min pos    99,
 dipolmoment           0.000000      0.000000      0.027317 electrons x Angstroem
 Tr[quadrupol]     -8078.809906

 energy correction for charged system         0.000000 eV
 dipol+quadrupol energy correction           -0.000027 eV
 added-field ion interaction         -0.167257 eV  (added to PSCEN)


 Broyden mixing:
  rms(total) = 0.16528E+01    rms(broyden)= 0.16527E+01
  rms(prec ) = 0.18668E+01
  weight for this iteration     100.00

 eigenvalues of (default mixing * dielectric matrix)
  average eigenvalue GAMMA=   1.0950
  1.7359  0.9497  0.9497  0.7446

 Free energy of the ion-electron system (eV)
  ---------------------------------------------------
  alpha Z        PSCENC =       127.04049550
  Ewald energy   TEWEN  =     28039.58296201
  -Hartree energ DENC   =    -39193.63876742
  -exchange      EXHF   =         0.00000000
  -V(xc)+E(xc)   XCENC  =      1024.69602232
  PAW double counting   =     22754.33667163   -22932.06663580
  entropy T*S    EENTRO =        -0.05835555
  eigenvalues    EBANDS =     -3685.50841601
  atomic energy  EATOM  =     13385.21109036
  Solvation  Ediel_sol  =         0.00000000
  ---------------------------------------------------
  free energy    TOTEN  =      -480.40493296 eV

  energy without entropy =     -480.34657742  energy(sigma->0) =     -480.37575519


--------------------------------------------------------------------------------------------------------




--------------------------------------- Iteration      1(  10)  ---------------------------------------


    POTLOK:  cpu time      0.0297: real time      0.0300
    SETDIJ:  cpu time      0.0030: real time      0.0030
     EDDAV:  cpu time      1.9845: real time      1.9846
       DOS:  cpu time      0.0007: real time      0.0007
    CHARGE:  cpu time      0.0432: real time      0.0432
    MIXING:  cpu time      0.0013: real time      0.0013
    --------------------------------------------
      LOOP:  cpu time      2.0623: real time      2.0627

 eigenvalue-minimisations  :  1968
 total energy-change (2. order) : 0.6167010E+01  (-0.2863953E+01)
 number of electron     267.0000047 magnetization 
 augmentation part       16.8677466 magnetization 

 DIPCOR: dipole corrections for dipol
 direction  3 min pos   104,
 dipolmoment           0.000000      0.000000     -0.027540 electrons x Angstroem
 Tr[quadrupol]     -8080.421798

 energy correction for charged system         0.000000 eV
 dipol+quadrupol energy correction           -0.000028 eV
 added-field ion interaction         -0.081839 eV  (added to PSCEN)


 Broyden mixing:
  rms(total) = 0.51862E+00    rms(broyden)= 0.51831E+00
  rms(prec ) = 0.62283E+00
  weight for this iteration     100.00

 eigenvalues of (default mixing * dielectric matrix)
  average eigenvalue GAMMA=   1.1194
  2.3878  0.9231  0.9231  0.6813  0.6813

 Free energy of the ion-electron system (eV)
  ---------------------------------------------------
  alpha Z        PSCENC =       127.12591310
  Ewald energy   TEWEN  =     28039.58296201
  -Hartree energ DENC   =    -39410.02364257
  -exchange      EXHF   =         0.00000000
  -V(xc)+E(xc)   XCENC  =      1033.09421635
  PAW double counting   =     26883.36764522   -27056.65937633
  entropy T*S    EENTRO =        -0.05363848
  eigenvalues    EBANDS =     -3475.88309231
  atomic energy  EATOM  =     13385.21109036
  Solvation  Ediel_sol  =         0.00000000
  ---------------------------------------------------
  free energy    TOTEN  =      -474.23792264 eV

  energy without entropy =     -474.18428417  energy(sigma->0) =     -474.21110341


--------------------------------------------------------------------------------------------------------




--------------------------------------- Iteration      1(  11)  ---------------------------------------


    POTLOK:  cpu time      0.0298: real time      0.0302
    SETDIJ:  cpu time      0.0030: real time      0.0030
     EDDAV:  cpu time      2.0411: real time      2.0418
       DOS:  cpu time      0.0007: real time      0.0007
    CHARGE:  cpu time      0.0435: real time      0.0435
    MIXING:  cpu time      0.0013: real time      0.0013
    --------------------------------------------
      LOOP:  cpu time      2.1194: real time      2.1205

 eigenvalue-minimisations  :  2040
 total energy-change (2. order) :-0.1330154E+02  (-0.6486258E+01)
 number of electron     266.9999927 magnetization 
 augmentation part       10.8704851 magnetization 

 DIPCOR: dipole corrections for dipol
 direction  3 min pos   106,
 dipolmoment           0.000000      0.000000     -0.031493 electrons x Angstroem
 Tr[quadrupol]     -8081.180759

 energy correction for charged system         0.000000 eV
 dipol+quadrupol energy correction           -0.000036 eV
 added-field ion interaction         -0.208153 eV  (added to PSCEN)


 Broyden mixing:
  rms(total) = 0.75148E+01    rms(broyden)= 0.75140E+01
  rms(prec ) = 0.93258E+01
  weight for this iteration     100.00

 eigenvalues of (default mixing * dielectric matrix)
  average eigenvalue GAMMA=   0.9463
  2.4008  0.8839  0.8839  0.8469  0.6058  0.0568

 Free energy of the ion-electron system (eV)
  ---------------------------------------------------
  alpha Z        PSCENC =       126.99959093
  Ewald energy   TEWEN  =     28039.58296201
  -Hartree energ DENC   =    -39478.15161579
  -exchange      EXHF   =         0.00000000
  -V(xc)+E(xc)   XCENC  =      1035.27235428
  PAW double counting   =     28517.93719639   -28694.02258101
  entropy T*S    EENTRO =        -0.14514690
  eigenvalues    EBANDS =     -3420.22331049
  atomic energy  EATOM  =     13385.21109036
  Solvation  Ediel_sol  =         0.00000000
  ---------------------------------------------------
  free energy    TOTEN  =      -487.53946022 eV

  energy without entropy =     -487.39431332  energy(sigma->0) =     -487.46688677


--------------------------------------------------------------------------------------------------------




--------------------------------------- Iteration      1(  12)  ---------------------------------------


    POTLOK:  cpu time      0.0296: real time      0.0299
    SETDIJ:  cpu time      0.0030: real time      0.0030
     EDDAV:  cpu time      2.1046: real time      2.1047
       DOS:  cpu time      0.0007: real time      0.0007
    CHARGE:  cpu time      0.0443: real time      0.0443
    MIXING:  cpu time      0.0014: real time      0.0014
    --------------------------------------------
      LOOP:  cpu time      2.1835: real time      2.1839

 eigenvalue-minimisations  :  2096
 total energy-change (2. order) :-0.1413925E+02  (-0.5511697E+00)
 number of electron     266.9999905 magnetization 
 augmentation part       10.5302126 magnetization 

 DIPCOR: dipole corrections for dipol
 direction  3 min pos   102,
 dipolmoment           0.000000      0.000000     -0.005087 electrons x Angstroem
 Tr[quadrupol]     -8081.464492

 energy correction for charged system         0.000000 eV
 dipol+quadrupol energy correction           -0.000001 eV
 added-field ion interaction          0.003389 eV  (added to PSCEN)


 Broyden mixing:
  rms(total) = 0.81248E+01    rms(broyden)= 0.81247E+01
  rms(prec ) = 0.10117E+02
  weight for this iteration     100.00

 eigenvalues of (default mixing * dielectric matrix)
  average eigenvalue GAMMA=   0.8180
  2.4016  0.8861  0.8861  0.8409  0.6082  0.0811  0.0219

 Free energy of the ion-electron system (eV)
  ---------------------------------------------------
  alpha Z        PSCENC =       127.21116761
  Ewald energy   TEWEN  =     28039.58296201
  -Hartree energ DENC   =    -39494.19747204
  -exchange      EXHF   =         0.00000000
  -V(xc)+E(xc)   XCENC  =      1036.06782722
  PAW double counting   =     28553.85388343   -28729.82629239
  entropy T*S    EENTRO =        -0.09573392
  eigenvalues    EBANDS =     -3419.48614104
  atomic energy  EATOM  =     13385.21109036
  Solvation  Ediel_sol  =         0.00000000
  ---------------------------------------------------
  free energy    TOTEN  =      -501.67870876 eV

  energy without entropy =     -501.58297484  energy(sigma->0) =     -501.63084180


--------------------------------------------------------------------------------------------------------




--------------------------------------- Iteration      1(  13)  ---------------------------------------


    POTLOK:  cpu time      0.0302: real time      0.0307
    SETDIJ:  cpu time      0.0025: real time      0.0044
     EDDAV:  cpu time      1.7881: real time      1.7898
       DOS:  cpu time      0.0007: real time      0.0007
    CHARGE:  cpu time      0.0435: real time      0.0435
    MIXING:  cpu time      0.0016: real time      0.0016
    --------------------------------------------
      LOOP:  cpu time      1.8666: real time      1.8706

 eigenvalue-minimisations  :  1672
 total energy-change (2. order) : 0.7792056E-01  (-0.4594244E-02)
 number of electron     266.9999905 magnetization 
 augmentation part       10.5321328 magnetization 

 DIPCOR: dipole corrections for dipol
 direction  3 min pos   100,
 dipolmoment           0.000000      0.000000      0.003286 electrons x Angstroem
 Tr[quadrupol]     -8081.041988

 energy correction for charged system         0.000000 eV
 dipol+quadrupol energy correction           -0.000000 eV
 added-field ion interaction         -0.014144 eV  (added to PSCEN)


 Broyden mixing:
  rms(total) = 0.81258E+01    rms(broyden)= 0.81258E+01
  rms(prec ) = 0.10119E+02
  weight for this iteration     100.00

 eigenvalues of (default mixing * dielectric matrix)
  average eigenvalue GAMMA=   0.7508
  2.4004  0.8833  0.8833  0.8460  0.6062  0.1427  0.1427  0.1017

 Free energy of the ion-electron system (eV)
  ---------------------------------------------------
  alpha Z        PSCENC =       127.19363509
  Ewald energy   TEWEN  =     28039.58296201
  -Hartree energ DENC   =    -39494.38107141
  -exchange      EXHF   =         0.00000000
  -V(xc)+E(xc)   XCENC  =      1036.13000214
  PAW double counting   =     28554.70193703   -28730.68395639
  entropy T*S    EENTRO =        -0.09599130
  eigenvalues    EBANDS =     -3419.25939573
  atomic energy  EATOM  =     13385.21109036
  Solvation  Ediel_sol  =         0.00000000
  ---------------------------------------------------
  free energy    TOTEN  =      -501.60078820 eV

  energy without entropy =     -501.50479690  energy(sigma->0) =     -501.55279255


--------------------------------------------------------------------------------------------------------




--------------------------------------- Iteration      1(  14)  ---------------------------------------


    POTLOK:  cpu time      0.0305: real time      0.0317
    SETDIJ:  cpu time      0.0030: real time      0.0047
     EDDAV:  cpu time      2.2117: real time      2.2118
       DOS:  cpu time      0.0007: real time      0.0007
    CHARGE:  cpu time      0.0429: real time      0.0429
    MIXING:  cpu time      0.0014: real time      0.0014
    --------------------------------------------
      LOOP:  cpu time      2.2901: real time      2.2931

 eigenvalue-minimisations  :  2176
 total energy-change (2. order) :-0.3299590E+00  (-0.8116411E-03)
 number of electron     266.9999905 magnetization 
 augmentation part       10.5326040 magnetization 

 DIPCOR: dipole corrections for dipol
 direction  3 min pos    99,
 dipolmoment           0.000000      0.000000      0.020731 electrons x Angstroem
 Tr[quadrupol]     -8080.905734

 energy correction for charged system         0.000000 eV
 dipol+quadrupol energy correction           -0.000016 eV
 added-field ion interaction         -0.126930 eV  (added to PSCEN)


 Broyden mixing:
  rms(total) = 0.81307E+01    rms(broyden)= 0.81307E+01
  rms(prec ) = 0.10125E+02
  weight for this iteration     100.00

 eigenvalues of (default mixing * dielectric matrix)
  average eigenvalue GAMMA=   0.7074
  2.4012  0.8846  0.8846  0.8448  0.6068  0.2321  0.2321  0.1403  0.1403

 Free energy of the ion-electron system (eV)
  ---------------------------------------------------
  alpha Z        PSCENC =       127.08083441
  Ewald energy   TEWEN  =     28039.58296201
  -Hartree energ DENC   =    -39494.04541424
  -exchange      EXHF   =         0.00000000
  -V(xc)+E(xc)   XCENC  =      1036.12737804
  PAW double counting   =     28551.34011549   -28727.19014400
  entropy T*S    EENTRO =        -0.09570338
  eigenvalues    EBANDS =     -3419.94186591
  atomic energy  EATOM  =     13385.21109036
  Solvation  Ediel_sol  =         0.00000000
  ---------------------------------------------------
  free energy    TOTEN  =      -501.93074721 eV

  energy without entropy =     -501.83504383  energy(sigma->0) =     -501.88289552


--------------------------------------------------------------------------------------------------------




--------------------------------------- Iteration      1(  15)  ---------------------------------------


    POTLOK:  cpu time      0.0321: real time      0.0461
    SETDIJ:  cpu time      0.0030: real time      0.0030
     EDDAV:  cpu time      1.7535: real time      1.7535
       DOS:  cpu time      0.0007: real time      0.0007
    CHARGE:  cpu time      0.0429: real time      0.0429
    MIXING:  cpu time      0.0015: real time      0.0015
    --------------------------------------------
      LOOP:  cpu time      1.8337: real time      1.8478

 eigenvalue-minimisations  :  1688
 total energy-change (2. order) : 0.6587184E-01  (-0.4144852E-04)
 number of electron     266.9999905 magnetization 
 augmentation part       10.5325479 magnetization 

 DIPCOR: dipole corrections for dipol
 direction  3 min pos    99,
 dipolmoment           0.000000      0.000000      0.020599 electrons x Angstroem
 Tr[quadrupol]     -8080.903659

 energy correction for charged system         0.000000 eV
 dipol+quadrupol energy correction           -0.000015 eV
 added-field ion interaction         -0.126126 eV  (added to PSCEN)


 Broyden mixing:
  rms(total) = 0.81304E+01    rms(broyden)= 0.81304E+01
  rms(prec ) = 0.10124E+02
  weight for this iteration     100.00

 eigenvalues of (default mixing * dielectric matrix)
  average eigenvalue GAMMA=   0.7986
  2.4216  0.6608  0.6608  0.8884  0.8884  0.8383  0.5992  0.3733  0.3733  0.2819

 Free energy of the ion-electron system (eV)
  ---------------------------------------------------
  alpha Z        PSCENC =       127.08163838
  Ewald energy   TEWEN  =     28039.58296201
  -Hartree energ DENC   =    -39494.24682645
  -exchange      EXHF   =         0.00000000
  -V(xc)+E(xc)   XCENC  =      1036.13866559
  PAW double counting   =     28550.53260234   -28726.39839782
  entropy T*S    EENTRO =        -0.09572905
  eigenvalues    EBANDS =     -3419.67088074
  atomic energy  EATOM  =     13385.21109036
  Solvation  Ediel_sol  =         0.00000000
  ---------------------------------------------------
  free energy    TOTEN  =      -501.86487538 eV

  energy without entropy =     -501.76914633  energy(sigma->0) =     -501.81701085


--------------------------------------------------------------------------------------------------------




--------------------------------------- Iteration      1(  16)  ---------------------------------------


    POTLOK:  cpu time      0.0296: real time      0.0297
    SETDIJ:  cpu time      0.0030: real time      0.0030
     EDDAV:  cpu time      1.8829: real time      1.8829
       DOS:  cpu time      0.0007: real time      0.0007
    CHARGE:  cpu time      0.0429: real time      0.0429
    MIXING:  cpu time      0.0015: real time      0.0015
    --------------------------------------------
      LOOP:  cpu time      1.9606: real time      1.9608

 eigenvalue-minimisations  :  1832
 total energy-change (2. order) : 0.3154345E+01  (-0.1078377E-01)
 number of electron     266.9999905 magnetization 
 augmentation part       10.5542847 magnetization 

 DIPCOR: dipole corrections for dipol
 direction  3 min pos    99,
 dipolmoment           0.000000      0.000000      0.024955 electrons x Angstroem
 Tr[quadrupol]     -8080.833510

 energy correction for charged system         0.000000 eV
 dipol+quadrupol energy correction           -0.000023 eV
 added-field ion interaction         -0.152795 eV  (added to PSCEN)


 Broyden mixing:
  rms(total) = 0.80817E+01    rms(broyden)= 0.80817E+01
  rms(prec ) = 0.10077E+02
  weight for this iteration     100.00

 eigenvalues of (default mixing * dielectric matrix)
  average eigenvalue GAMMA=   0.8875
  2.4243  1.1550  1.1550  0.8549  0.8549  0.8283  0.6152  0.6152  0.5990  0.3306
  0.3306

 Free energy of the ion-electron system (eV)
  ---------------------------------------------------
  alpha Z        PSCENC =       127.05496218
  Ewald energy   TEWEN  =     28039.58296201
  -Hartree energ DENC   =    -39481.47429436
  -exchange      EXHF   =         0.00000000
  -V(xc)+E(xc)   XCENC  =      1035.60406276
  PAW double counting   =     28599.14114258   -28774.25371350
  entropy T*S    EENTRO =        -0.09436535
  eigenvalues    EBANDS =     -3429.48237666
  atomic energy  EATOM  =     13385.21109036
  Solvation  Ediel_sol  =         0.00000000
  ---------------------------------------------------
  free energy    TOTEN  =      -498.71052998 eV

  energy without entropy =     -498.61616463  energy(sigma->0) =     -498.66334730


--------------------------------------------------------------------------------------------------------




--------------------------------------- Iteration      1(  17)  ---------------------------------------


    POTLOK:  cpu time      0.0296: real time      0.0298
    SETDIJ:  cpu time      0.0030: real time      0.0030
     EDDAV:  cpu time      1.9401: real time      1.9401
       DOS:  cpu time      0.0007: real time      0.0007
[...]
    140      -0.9657      0.00000
    141      -0.9255      0.00000
    142      -0.2292      0.00000
    143      -0.2059      0.00000
    144      -0.1246      0.00000
    145      -0.1209      0.00000
    146       0.5514      0.00000
    147       1.0876      0.00000
    148       1.1191      0.00000
    149       1.1979      0.00000
    150       1.2613      0.00000
    151       1.4382      0.00000
    152       1.8794      0.00000
    153       1.9385      0.00000
    154       1.9668      0.00000
    155       1.9831      0.00000
    156       2.0386      0.00000
    157       2.0601      0.00000
    158       2.1037      0.00000
    159       2.3737      0.00000
    160       2.3912      0.00000
    161       2.4176      0.00000
    162       2.4342      0.00000
    163       2.4496      0.00000
    164       2.5785      0.00000


--------------------------------------------------------------------------------------------------------


 soft charge-density along one line, spin component           1
         0         1         2         3         4         5         6         7         8         9
 total charge-density along one line
 
 pseudopotential strength for first ion, spin component:           1
 10.343  13.758  -0.003   0.000   0.000   0.008  -0.000  -0.000
 13.758  18.299  -0.004   0.000   0.000   0.011  -0.000  -0.000
 -0.003  -0.004  -4.473   0.000   0.000   8.752  -0.000  -0.000
  0.000   0.000   0.000  -4.459   0.000  -0.000   8.731   0.000
  0.000   0.000   0.000   0.000  -4.470  -0.000   0.000   8.746
  0.008   0.011   8.752  -0.000  -0.000 -19.272   0.000   0.000
 -0.000  -0.000  -0.000   8.731   0.000   0.000 -19.237  -0.000
 -0.000  -0.000  -0.000   0.000   8.746   0.000  -0.000 -19.254
 total augmentation occupancy for first ion, spin component:           1
  8.960  -4.243   0.071  -0.001  -0.000   0.009  -0.000  -0.000
 -4.243   2.145  -0.007   0.000   0.000  -0.003   0.000   0.000
  0.071  -0.007   1.690  -0.000  -0.000   0.180  -0.000  -0.000
 -0.001   0.000  -0.000   1.192  -0.000  -0.000   0.075  -0.000
 -0.000   0.000  -0.000  -0.000   1.957  -0.000  -0.000   0.195
  0.009  -0.003   0.180  -0.000  -0.000   0.021  -0.000  -0.000
 -0.000   0.000  -0.000   0.075  -0.000  -0.000   0.005  -0.000
 -0.000   0.000  -0.000  -0.000   0.195  -0.000  -0.000   0.023


------------------------ aborting loop because EDIFF is reached ----------------------------------------


    CHARGE:  cpu time      0.0514: real time      0.0514
    FORLOC:  cpu time      0.0123: real time      0.0123
    FORNL :  cpu time      0.2358: real time      0.2360
    STRESS:  cpu time      0.7102: real time      0.7105
    FORCOR:  cpu time      0.0508: real time      0.0510
    FORHAR:  cpu time      0.0180: real time      0.0180
    MIXING:  cpu time      0.0044: real time      0.0044
    OFIELD:  cpu time      0.0001: real time      0.0001

  FORCE on cell =-STRESS in cart. coord.  units (eV):
  Direction    XX          YY          ZZ          XY          YZ          ZX
  --------------------------------------------------------------------------------------
  Alpha Z   127.20778   127.20778   127.20778
  Ewald   37063.41879 37103.58374-46127.46714    -3.16945     0.57861     0.02696
  Hartree 37517.33862 37545.28293-35504.57579    -1.82825     0.29948     0.13640
  E(xc)   -1107.19677 -1107.14271 -1142.28997    -0.00043     0.00166    -0.00090
  Local  -77744.31953-77810.25151 77868.33112     4.87566    -0.85786    -0.17666
  n-local  -536.32378  -536.44995  -501.82403    -0.05012    -0.00877     0.01056
  augment   114.96894   114.95621   117.08497    -0.00074    -0.00980     0.00171
  Kinetic  4563.35186  4561.23768  5143.09989    -0.00718    -0.00507     0.00771
  Fock        0.00000     0.00000     0.00000     0.00000     0.00000     0.00000
  -------------------------------------------------------------------------------------
  Total      -1.55409    -1.57583   -20.43317    -0.18052    -0.00176     0.00579
  in kB      -0.94984    -0.96312   -12.48842    -0.11033    -0.00108     0.00354
  external pressure =       -4.80 kB  Pullay stress =        0.00 kB


 VOLUME and BASIS-vectors are now :
 -----------------------------------------------------------------------------
  energy-cutoff  :      400.00
  volume of cell :     2621.43
      direct lattice vectors                 reciprocal lattice vectors
    14.206064332  0.000000000  0.000000000     0.070392473  0.000000000  0.000000000
     0.000000000 12.301944319  0.000000000     0.000000000  0.081287963  0.000000000
     0.000000000  0.000000000 15.000000000     0.000000000  0.000000000  0.066666667

  length of vectors
    14.206064332 12.301944319 15.000000000     0.070392473  0.081287963  0.066666667


 FORCES acting on ions
    electron-ion (+dipol)            ewald-force                    non-local-force                 convergence-correction
 -----------------------------------------------------------------------------------------------
   -.257E-01 -.650E+02 0.156E+00   0.245E-01 0.677E+02 -.163E+00   0.531E-02 -.274E+01 0.603E-02   -.790E-04 0.225E-02 -.333E-03
   0.554E+02 0.355E+02 0.174E+00   -.577E+02 -.369E+02 -.182E+00   0.234E+01 0.145E+01 0.706E-02   -.222E-02 -.554E-03 -.301E-03
   -.251E+02 -.149E+02 0.413E+00   0.218E+02 0.130E+02 -.408E+00   0.329E+01 0.191E+01 -.396E-02   0.255E-02 0.125E-02 -.204E-03
   -.366E+02 0.462E+02 0.375E+00   0.370E+02 -.431E+02 -.421E+00   -.422E+00 -.310E+01 0.529E-01   -.101E-01 0.188E-02 0.480E-03
   -.556E+02 0.354E+02 0.211E+00   0.579E+02 -.368E+02 -.219E+00   -.234E+01 0.144E+01 0.662E-02   0.215E-02 -.536E-03 -.318E-03
   0.250E+02 -.150E+02 0.376E+00   -.217E+02 0.131E+02 -.370E+00   -.328E+01 0.190E+01 -.431E-02   -.250E-02 0.126E-02 -.189E-03
   -.266E+00 0.101E+02 0.261E+01   0.284E+00 -.782E+01 -.255E+01   -.132E-01 -.225E+01 -.642E-01   -.285E-03 0.182E-01 0.520E-03
   0.669E+02 0.470E+02 0.127E+01   -.692E+02 -.485E+02 -.122E+01   0.224E+01 0.152E+01 -.492E-01   -.112E-02 0.217E-02 -.751E-04
   -.593E+02 0.710E+01 0.565E+00   0.568E+02 -.901E+01 -.616E+00   0.247E+01 0.188E+01 0.553E-01   -.667E-02 0.739E-02 0.571E-03
   0.374E+02 0.465E+02 0.441E+00   -.378E+02 -.434E+02 -.494E+00   0.450E+00 -.307E+01 0.593E-01   0.103E-01 0.189E-02 0.519E-03
   -.669E+02 0.470E+02 0.127E+01   0.692E+02 -.485E+02 -.123E+01   -.225E+01 0.151E+01 -.480E-01   0.113E-02 0.207E-02 -.853E-04
   0.594E+02 0.742E+01 0.387E+00   -.569E+02 -.932E+01 -.439E+00   -.246E+01 0.189E+01 0.559E-01   0.691E-02 0.765E-02 0.619E-03
   -.135E+02 -.815E+02 0.114E+01   0.137E+02 0.842E+02 -.109E+01   -.246E+00 -.274E+01 -.452E-01   -.326E-02 -.245E-03 -.343E-04
   -.101E+02 -.493E+01 0.229E+01   0.818E+01 0.379E+01 -.222E+01   0.193E+01 0.113E+01 -.617E-01   -.158E-01 -.883E-02 0.433E-03
   -.393E+02 -.240E+02 0.424E+00   0.363E+02 0.223E+02 -.451E+00   0.293E+01 0.169E+01 0.295E-01   -.562E-03 -.471E-03 -.256E-03
   -.772E+02 0.307E+02 0.130E+01   0.797E+02 -.319E+02 -.125E+01   -.247E+01 0.120E+01 -.525E-01   -.189E-02 -.224E-02 -.920E-04
   0.207E+02 -.525E+02 0.483E+00   -.178E+02 0.513E+02 -.532E+00   -.294E+01 0.120E+01 0.536E-01   -.374E-02 -.932E-02 0.610E-03
   0.136E+02 -.818E+02 0.121E+01   -.138E+02 0.846E+02 -.116E+01   0.237E+00 -.275E+01 -.542E-01   0.343E-02 -.233E-03 -.424E-04
   0.776E+02 0.308E+02 0.139E+01   -.801E+02 -.320E+02 -.133E+01   0.247E+01 0.120E+01 -.600E-01   0.198E-02 -.229E-02 -.100E-03
   -.210E+02 -.531E+02 0.546E+00   0.181E+02 0.519E+02 -.600E+00   0.293E+01 0.117E+01 0.583E-01   0.368E-02 -.935E-02 0.604E-03
   0.115E+02 -.594E+01 0.267E+01   -.954E+01 0.483E+01 -.260E+01   -.192E+01 0.110E+01 -.681E-01   0.161E-01 -.914E-02 0.510E-03
   0.394E+02 -.239E+02 0.389E+00   -.364E+02 0.223E+02 -.423E+00   -.292E+01 0.168E+01 0.363E-01   0.521E-03 -.451E-03 -.252E-03
   0.183E-01 0.398E+02 0.111E+00   -.192E-01 -.364E+02 -.108E+00   0.147E-02 -.348E+01 -.481E-02   -.465E-04 -.433E-03 -.306E-03
   -.133E+00 0.334E+02 0.774E+00   0.140E+00 -.297E+02 -.802E+00   -.617E-02 -.369E+01 0.317E-01   0.807E-04 -.196E-02 -.135E-03
   -.350E+02 -.181E+03 0.474E+00   0.350E+02 0.219E+03 -.485E+00   0.740E-01 -.377E+02 0.916E-02   -.847E-03 0.373E-02 -.466E-03
   0.137E+03 0.123E+03 0.728E+00   -.170E+03 -.142E+03 -.756E+00   0.326E+02 0.189E+02 0.242E-01   -.408E-02 -.884E-03 -.433E-03
   0.352E+02 -.181E+03 0.587E+00   -.352E+02 0.219E+03 -.602E+00   -.580E-01 -.377E+02 0.135E-01   0.794E-03 0.375E-02 -.457E-03
   -.169E+03 0.701E+02 0.443E+00   0.202E+03 -.892E+02 -.462E+00   -.325E+02 0.191E+02 0.149E-01   0.332E-02 -.896E-03 -.563E-03
   0.170E+03 0.702E+02 0.376E+00   -.202E+03 -.893E+02 -.390E+00   0.326E+02 0.191E+02 0.110E-01   -.344E-02 -.885E-03 -.512E-03
   -.137E+03 0.123E+03 0.709E+00   0.170E+03 -.142E+03 -.731E+00   -.326E+02 0.189E+02 0.191E-01   0.406E-02 -.836E-03 -.482E-03
   -.134E-01 0.340E+01 -.912E-01   0.113E-01 -.346E+01 0.113E+00   0.261E-02 0.624E-01 -.149E-01   -.579E-04 0.640E-03 -.499E-03
   -.362E+02 0.199E+02 0.118E+01   0.372E+02 -.205E+02 -.126E+01   -.104E+01 0.567E+00 0.875E-01   -.733E-02 0.401E-02 0.369E-03
   0.451E+02 -.713E+02 0.799E+00   -.456E+02 0.104E+03 -.692E+00   0.437E+00 -.330E+02 -.107E+00   0.113E-01 0.243E-01 0.270E-02
   0.163E+03 0.136E+03 -.137E+01   -.195E+03 -.155E+03 0.155E+01   0.323E+02 0.186E+02 -.179E+00   0.432E-04 0.226E-02 -.506E-03
   -.454E+02 -.743E+02 0.100E+01   0.459E+02 0.108E+03 -.899E+00   -.458E+00 -.332E+02 -.105E+00   -.115E-01 0.237E-01 0.259E-02
   -.179E+03 0.720E+02 -.434E+00   0.211E+03 -.914E+02 0.598E+00   -.322E+02 0.194E+02 -.161E+00   0.283E-02 -.163E-02 -.485E-03
   0.179E+03 0.718E+02 -.331E+00   -.211E+03 -.911E+02 0.487E+00   0.322E+02 0.194E+02 -.153E+00   -.269E-02 -.155E-02 -.493E-03
   -.163E+03 0.136E+03 -.131E+01   0.195E+03 -.154E+03 0.150E+01   -.324E+02 0.187E+02 -.182E+00   0.992E-05 0.206E-02 -.528E-03
   -.156E+00 0.418E+02 0.760E+01   0.162E+00 -.444E+02 -.800E+01   -.899E-02 0.257E+01 0.387E+00   -.605E-05 0.765E-02 -.382E-03
   0.367E+02 0.207E+02 0.110E+01   -.377E+02 -.213E+02 -.118E+01   0.106E+01 0.621E+00 0.842E-01   0.767E-02 0.421E-02 0.365E-03
   -.428E+02 -.205E+03 -.145E+01   0.428E+02 0.242E+03 0.164E+01   -.131E-01 -.374E+02 -.185E+00   -.288E-02 -.755E-03 -.543E-03
   0.835E+02 0.324E+00 0.899E+00   -.112E+03 -.165E+02 -.813E+00   0.289E+02 0.162E+02 -.844E-01   -.159E-01 -.215E-01 0.273E-02
   0.135E+02 -.193E+03 -.809E+00   -.128E+02 0.231E+03 0.978E+00   -.782E+00 -.376E+02 -.162E+00   -.269E-02 0.214E-02 -.480E-03
   -.200E+03 0.698E+02 -.737E+00   0.232E+03 -.885E+02 0.863E+00   -.323E+02 0.187E+02 -.123E+00   -.224E-02 -.119E-02 -.489E-03
   0.414E+02 0.747E+02 -.220E+00   -.699E+02 -.917E+02 0.394E+00   0.285E+02 0.170E+02 -.170E+00   -.267E-01 -.205E-02 0.212E-02
   -.157E+03 0.109E+03 -.446E+00   0.190E+03 -.127E+03 0.589E+00   -.329E+02 0.181E+02 -.141E+00   0.732E-03 -.301E-02 -.586E-03
   -.401E+02 -.221E+02 0.716E+01   0.422E+02 0.233E+02 -.754E+01   -.214E+01 -.121E+01 0.362E+00   -.741E-02 -.407E-02 -.337E-03
   -.374E+00 -.345E+02 0.141E+01   0.399E+00 0.355E+02 -.149E+01   -.261E-01 -.913E+00 0.908E-01   -.875E-04 -.882E-02 0.359E-03
   -.132E+02 -.193E+03 -.105E+01   0.124E+02 0.231E+03 0.125E+01   0.823E+00 -.376E+02 -.188E+00   0.273E-02 0.202E-02 -.488E-03
   0.158E+03 0.109E+03 -.874E+00   -.191E+03 -.127E+03 0.106E+01   0.329E+02 0.181E+02 -.182E+00   -.674E-03 -.304E-02 -.611E-03
   0.427E+02 -.205E+03 -.172E+01   -.427E+02 0.243E+03 0.195E+01   0.812E-02 -.374E+02 -.220E+00   0.282E-02 -.961E-03 -.585E-03
   -.370E+02 0.748E+02 0.701E-01   0.653E+02 -.917E+02 0.979E-01   -.283E+02 0.168E+02 -.166E+00   0.276E-01 -.205E-02 0.232E-02
   0.200E+03 0.699E+02 -.112E+01   -.233E+03 -.887E+02 0.130E+01   0.323E+02 0.187E+02 -.168E+00   0.234E-02 -.112E-02 -.576E-03
   -.842E+02 -.224E+01 0.124E+01   0.113E+03 -.139E+02 -.117E+01   -.289E+02 0.162E+02 -.802E-01   0.158E-01 -.219E-01 0.280E-02
   0.411E+02 -.227E+02 0.813E+01   -.433E+02 0.239E+02 -.856E+01   0.224E+01 -.127E+01 0.414E+00   0.750E-02 -.414E-02 -.295E-03
   0.273E+00 -.493E+01 0.321E+00   -.289E+00 0.509E+01 -.317E+00   0.162E-01 -.166E+00 -.308E-02   0.132E-06 -.197E-03 -.410E-03
   -.867E+01 0.313E+00 -.422E+02   0.841E+01 -.350E+00 0.419E+02   0.276E+00 0.429E-01 0.247E+00   0.417E-03 0.107E-02 0.586E-02
 -----------------------------------------------------------------------------------------------
   -.726E+00 -.607E+00 0.107E+01   -.274E-12 0.324E-12 0.000E+00   0.747E+00 0.552E+00 -.107E+01   0.212E-02 -.401E-05 0.131E-01
 
 
 POSITION                                       TOTAL-FORCE (eV/Angst)
 -----------------------------------------------------------------------------------
      0.93091      4.97346      1.99993         0.003579     -0.001703     -0.001295
     13.93239      2.88464      1.99969         0.011420      0.014171     -0.001551
      3.21012      4.89627      1.99990         0.011107      0.006288      0.000825
     11.58756      7.08569      2.00299         0.017295      0.000714      0.006494
      2.13556      2.88467      1.99961        -0.010471      0.007717     -0.002424
     12.85799      4.89632      1.99993        -0.005689      0.006294      0.000447
      8.03546      4.92822      1.99939         0.004575      0.014542     -0.001971
      6.81938      2.87126      1.99787        -0.003654      0.014507     -0.002558
     10.32780      4.89822      2.00237         0.009649     -0.020032      0.004666
      4.47922      7.08647      2.00291        -0.013859      0.003372      0.006427
      9.25011      2.87040      1.99781        -0.000939      0.017468     -0.002625
      5.74180      4.89998      2.00293        -0.006456     -0.011418      0.004384
     11.59118     11.13623      1.99833        -0.015398     -0.008533      0.000120
     10.41485      9.05588      2.00051        -0.015304     -0.018655      0.000371
     13.87271     11.05320      1.99965        -0.020828      0.009185      0.001811
     12.80394      9.03312      1.99761        -0.010401     -0.004481     -0.003289
      9.29589     11.05568      2.00279        -0.000310     -0.002631      0.004617
      4.47440     11.13876      1.99801         0.008824     -0.011799     -0.000799
      3.26145      9.03411      1.99740         0.010961     -0.006357     -0.002434
      6.76949     11.05817      2.00251        -0.008755      0.002016      0.004712
      5.64910      9.05931      1.99935         0.012513     -0.015644     -0.003175
      2.19272     11.05392      1.99988         0.017211      0.005667      0.002408
      0.93016      0.94600      1.99971         0.000117     -0.012929     -0.001919
      8.03389      0.93941      1.99971         0.000696      0.021185      0.003721
     13.97679      5.61870      1.99975         0.003297     -0.004794     -0.002142
     12.79275      3.56821      1.99920         0.025594      0.012212     -0.004375
      2.09140      5.61868      1.99957        -0.001434     -0.010389     -0.002962
      2.11386      1.56025      1.99930        -0.012454      0.012178     -0.004646
     13.95278      1.56013      1.99943         0.009083      0.014873     -0.003869
      3.27583      3.56811      1.99925        -0.023607      0.006864     -0.004341
      0.93094      3.58271      2.00024         0.000083      0.000499      0.005754
     11.58099      5.63335      2.00056        -0.017214      0.005626      0.007597
      6.89533      5.60922      2.00591        -0.002930      0.005935      0.001364
      5.69330      3.57316      2.00396        -0.009887      0.003841      0.005649
      9.17556      5.60765      2.00533         0.003559      0.001508      0.000116
      9.22199      1.55150      2.00129         0.007237      0.014140      0.001783
      6.84629      1.55226      2.00112        -0.012880      0.023331      0.002302
     10.37678      3.57114      2.00368         0.015466      0.004365      0.006476
      8.03481      3.56305      1.98889        -0.003745      0.007719     -0.014247
      4.48772      5.63437      2.00082         0.026546      0.009817      0.007298
     10.42088     11.76238      2.00426        -0.020885     -0.003030      0.004517
      9.25624      9.70456      2.00583         0.005676     -0.026184      0.004116
     12.74594     11.77409      2.00162        -0.030280      0.007455      0.006760
     12.76200      7.70759      2.00269        -0.000086     -0.001685      0.003163
     10.39803      7.72928      2.00773        -0.009274     -0.015479      0.007168
     13.93214      9.71765      2.00078        -0.001203     -0.002799      0.001551
     11.59846      9.73951      1.98980        -0.005402     -0.003038     -0.015796
      8.03302     11.77663      2.00027        -0.001788     -0.007619      0.006624
      3.31932     11.77534      2.00203         0.019595      0.004571      0.007007
      2.13321      9.71830      2.00158        -0.001459     -0.012985      0.003288
      5.64455     11.76501      2.00459         0.013308      0.003202      0.005700
      5.66825      7.73243      2.00717         0.009688     -0.027590      0.004293
      3.30488      7.70851      2.00335        -0.000562     -0.001818      0.004055
      6.80748      9.70729      2.00500        -0.000608     -0.020991      0.000722
      4.46662      9.74181      1.98798         0.000535     -0.008975     -0.019240
      0.92970     11.78375      1.99967        -0.000180     -0.008218     -0.000580
      8.01407      7.68091      2.05969         0.020326      0.008515     -0.042072
 -----------------------------------------------------------------------------------
    total drift:                                0.022806     -0.055044      0.014182


--------------------------------------------------------------------------------------------------------



  FREE ENERGIE OF THE ION-ELECTRON SYSTEM (eV)
  ---------------------------------------------------
  free  energy   TOTEN  =      -473.85158493 eV

  energy  without entropy=     -473.77828815  energy(sigma->0) =     -473.81493654
 


--------------------------------------------------------------------------------------------------------


    POTLOK:  cpu time      0.0337: real time      0.0344


--------------------------------------------------------------------------------------------------------


 stress matrix after NEB project (eV)
     -1.55409     -0.18052      0.00579
     -0.18052     -1.57583     -0.00176
      0.00579     -0.00176    -20.43317
  FORCES: max atom, RMS     0.047494    0.018513
  FORCE total and by dimension    0.139768    0.042072
  Stress total and by dimension   20.554270   20.433167


--------------------------------------------------------------------------------------------------------


  
 reached required accuracy - stopping structural energy minimisation
     LOOP+:  cpu time    213.2490: real time    213.4692
    4ORBIT:  cpu time      0.0000: real time      0.0000

 total amount of memory used by VASP MPI-rank0    51480. kBytes
=======================================================================

   base      :      30000. kBytes
   nonlr-proj:       3047. kBytes
   fftplans  :       2857. kBytes
   grid      :       4878. kBytes
   one-center:         77. kBytes
   wavefun   :      10621. kBytes
 
  
  
 General timing and accounting informations for this job:
 ========================================================
  
                  Total CPU time used (sec):      216.479
                            User time (sec):      215.667
                          System time (sec):        0.812
                         Elapsed time (sec):      219.098
  
                   Maximum memory used (kb):      260188.
                   Average memory used (kb):          N/A
  
                          Minor page faults:       105716
                          Major page faults:            0
                 Voluntary context switches:         3802
