<?xml version="1.0" encoding="ISO-8859-1"?>
<modeling>
 <generator>
  <i name="program" type="string">vasp </i>
  <i name="version" type="string">6.3.2  </i>
  <i name="subversion" type="string">27Jun22 (build May 04 2024 18:40:40) complex                          parallel </i>
  <i name="platform" type="string">LinuxIFC </i>
  <i name="date" type="string">2024 09 02 </i>
  <i name="time" type="string">23:40:58 </i>
 </generator>
 <incar>
  <i type="string" name="SYSTEM">slab_Cel1-OPT</i>
  <i type="int" name="ISTART">     0</i>
  <i type="string" name="PREC">N</i>
  <i type="string" name="ALGO">N</i>
  <i type="int" name="ICHARG">     2</i>
  <i type="int" name="NELM">   200</i>
  <i type="int" name="IBRION">     2</i>
  <i name="EDIFF">      0.00001000</i>
  <i name="EDIFFG">     -0.05000000</i>
  <i type="int" name="NSW">  1000</i>
  <i type="int" name="ISIF">     3</i>
  <i name="ENCUT">    400.00000000</i>
  <i name="POTIM">      0.10000000</i>
  <i type="string" name="LREAL">AUTO</i>
  <i type="int" name="ISMEAR">     0</i>
  <i name="SIGMA">      0.10000000</i>
  <i type="logical" name="LWAVE"> F  </i>
  <i type="logical" name="LCHARG"> F  </i>
  <i type="logical" name="LELF"> F  </i>
  <i type="logical" name="LAECHG"> F  </i>
  <i type="logical" name="LDIPOL"> T  </i>
  <i type="int" name="IDIPOL">     3</i>
 </incar>
 <primitive_cell>
  <structure name="primitive_cell" >
   <crystal>
    <varray name="basis" >
     <v>      14.20606433       0.00000000       0.00000000 </v>
     <v>       0.00000000      12.30194432       0.00000000 </v>
     <v>       0.00000000       0.00000000      15.00000000 </v>
    </varray>
    <i name="volume">   2621.43318603 </i>
    <varray name="rec_basis" >
     <v>       0.07039247       0.00000000       0.00000000 </v>
     <v>       0.00000000       0.08128796       0.00000000 </v>
     <v>       0.00000000       0.00000000       0.06666667 </v>
    </varray>
   </crystal>
   <varray name="positions" >
    <v>       0.06552924       0.40428224       0.13332883 </v>
    <v>       0.98073506       0.23448653       0.13331251 </v>
    <v>       0.22596849       0.39800742       0.13332693 </v>
    <v>       0.81567713       0.57598150       0.13353271 </v>
    <v>       0.15032739       0.23448907       0.13330756 </v>
    <v>       0.90510567       0.39801215       0.13332888 </v>
    <v>       0.56563600       0.40060460       0.13329290 </v>
    <v>       0.48003275       0.23339915       0.13319118 </v>
    <v>       0.72699959       0.39816605       0.13349143 </v>
    <v>       0.31530345       0.57604443       0.13352705 </v>
    <v>       0.65113845       0.23332886       0.13318734 </v>
    <v>       0.40417946       0.39830929       0.13352891 </v>
    <v>       0.81593183       0.90524123       0.13322179 </v>
    <v>       0.73312683       0.73613388       0.13336762 </v>
    <v>       0.97653404       0.89849251       0.13330997 </v>
    <v>       0.90130094       0.73428418       0.13317397 </v>
    <v>       0.65436077       0.89869394       0.13351908 </v>
    <v>       0.31496386       0.90544683       0.13320054 </v>
    <v>       0.22958188       0.73436464       0.13316012 </v>
    <v>       0.47652118       0.89889576       0.13350049 </v>
    <v>       0.39765408       0.73641312       0.13329011 </v>
    <v>       0.15435104       0.89855068       0.13332563 </v>
    <v>       0.06547629       0.07689847       0.13331367 </v>
    <v>       0.56552517       0.07636274       0.13331407 </v>
    <v>       0.98386097       0.45673230       0.13331657 </v>
    <v>       0.90051323       0.29005212       0.13328011 </v>
    <v>       0.14721891       0.45673085       0.13330434 </v>
    <v>       0.14879978       0.12682943       0.13328696 </v>
    <v>       0.98217053       0.12681964       0.13329527 </v>
    <v>       0.23059373       0.29004466       0.13328360 </v>
    <v>       0.06553126       0.29123103       0.13334958 </v>
    <v>       0.81521451       0.45792350       0.13337048 </v>
    <v>       0.48537906       0.45596222       0.13372761 </v>
    <v>       0.40076577       0.29045513       0.13359709 </v>
    <v>       0.64589040       0.45583435       0.13368861 </v>
    <v>       0.64915874       0.12611856       0.13341956 </v>
    <v>       0.48192703       0.12618043       0.13340833 </v>
    <v>       0.73044688       0.29029081       0.13357859 </v>
    <v>       0.56559013       0.28963346       0.13259239 </v>
    <v>       0.31590167       0.45800614       0.13338786 </v>
    <v>       0.73355117       0.95613998       0.13361729 </v>
    <v>       0.65156945       0.78886389       0.13372214 </v>
    <v>       0.89721800       0.95709144       0.13344107 </v>
    <v>       0.89834841       0.62653391       0.13351279 </v>
    <v>       0.73194305       0.62829732       0.13384847 </v>
    <v>       0.98071775       0.78992791       0.13338564 </v>
    <v>       0.81644402       0.79170529       0.13265331 </v>
    <v>       0.56546383       0.95729815       0.13335126 </v>
    <v>       0.23365512       0.95719332       0.13346882 </v>
    <v>       0.15016184       0.78998079       0.13343866 </v>
    <v>       0.39733392       0.95635363       0.13363927 </v>
    <v>       0.39900206       0.62855329       0.13381154 </v>
    <v>       0.23263864       0.62660872       0.13355684 </v>
    <v>       0.47919533       0.78908611       0.13366660 </v>
    <v>       0.31441659       0.79189183       0.13253209 </v>
    <v>       0.06544380       0.95787743       0.13331123 </v>
    <v>       0.56413024       0.62436563       0.13731276 </v>
   </varray>
  </structure>
  <varray name="primitive_index" >
   <v type="int" >        1 </v>
   <v type="int" >        2 </v>
   <v type="int" >        3 </v>
   <v type="int" >        4 </v>
   <v type="int" >        5 </v>
   <v type="int" >        6 </v>
   <v type="int" >        7 </v>
   <v type="int" >        8 </v>
   <v type="int" >        9 </v>
   <v type="int" >       10 </v>
   <v type="int" >       11 </v>
   <v type="int" >       12 </v>
   <v type="int" >       13 </v>
   <v type="int" >       14 </v>
   <v type="int" >       15 </v>
   <v type="int" >       16 </v>
   <v type="int" >       17 </v>
   <v type="int" >       18 </v>
   <v type="int" >       19 </v>
   <v type="int" >       20 </v>
   <v type="int" >       21 </v>
   <v type="int" >       22 </v>
   <v type="int" >       23 </v>
   <v type="int" >       24 </v>
   <v type="int" >       25 </v>
   <v type="int" >       26 </v>
   <v type="int" >       27 </v>
   <v type="int" >       28 </v>
   <v type="int" >       29 </v>
   <v type="int" >       30 </v>
   <v type="int" >       31 </v>
   <v type="int" >       32 </v>
   <v type="int" >       33 </v>
   <v type="int" >       34 </v>
   <v type="int" >       35 </v>
   <v type="int" >       36 </v>
   <v type="int" >       37 </v>
   <v type="int" >       38 </v>
   <v type="int" >       39 </v>
   <v type="int" >       40 </v>
   <v type="int" >       41 </v>
   <v type="int" >       42 </v>
   <v type="int" >       43 </v>
   <v type="int" >       44 </v>
   <v type="int" >       45 </v>
   <v type="int" >       46 </v>
   <v type="int" >       47 </v>
   <v type="int" >       48 </v>
   <v type="int" >       49 </v>
   <v type="int" >       50 </v>
   <v type="int" >       51 </v>
   <v type="int" >       52 </v>
   <v type="int" >       53 </v>
   <v type="int" >       54 </v>
   <v type="int" >       55 </v>
   <v type="int" >       56 </v>
   <v type="int" >       57 </v>
  </varray>
 </primitive_cell>
 <kpoints>
  <generation param="Gamma">
   <v type="int" name="divisions">       2        2        1 </v>
   <v name="usershift">      0.00000000       0.00000000       0.00000000 </v>
   <v name="genvec1">      0.50000000       0.00000000       0.00000000 </v>
   <v name="genvec2">      0.00000000       0.50000000       0.00000000 </v>
   <v name="genvec3">      0.00000000       0.00000000       1.00000000 </v>
   <v name="shift">      0.00000000       0.00000000       0.00000000 </v>
  </generation>
  <varray name="kpointlist" >
   <v>       0.00000000       0.00000000       0.00000000 </v>
   <v>       0.50000000       0.00000000       0.00000000 </v>
   <v>       0.00000000       0.50000000       0.00000000 </v>
   <v>       0.50000000       0.50000000       0.00000000 </v>
  </varray>
  <varray name="weights" >
   <v>       0.25000000 </v>
   <v>       0.25000000 </v>
   <v>       0.25000000 </v>
   <v>       0.25000000 </v>
  </varray>
 </kpoints>
 <parameters>
  <separator name="general" >
   <i type="string" name="SYSTEM">slab_Cel1-OPT</i>
   <i type="logical" name="LCOMPAT"> F  </i>
  </separator>
  <separator name="electronic" >
   <i type="string" name="PREC">n</i>
   <i name="ENMAX">    400.00000000</i>
   <i name="ENAUG">    644.87300000</i>
   <i name="EDIFF">      0.00001000</i>
   <i type="int" name="IALGO">    38</i>
   <i type="int" name="IWAVPR">    11</i>
   <i type="int" name="NBANDS">   164</i>
   <i type="int" name="NBANDSLOW">    -1</i>
   <i type="int" name="NBANDSHIGH">    -1</i>
   <i name="NELECT">    267.00000000</i>
   <i type="int" name="TURBO">     0</i>
   <i type="int" name="IRESTART">     0</i>
   <i type="int" name="NREBOOT">     0</i>
   <i type="int" name="NMIN">     0</i>
   <i name="EREF">      0.00000000</i>
   <separator name="electronic smearing" >
    <i type="int" name="ISMEAR">     0</i>
    <i name="SIGMA">      0.10000000</i>
    <i name="KSPACING">      0.50000000</i>
    <i type="logical" name="KGAMMA"> T  </i>
    <i type="logical" name="KBLOWUP"> T  </i>
   </separator>
   <separator name="electronic projectors" >
    <i type="logical" name="LREAL"> T  </i>
    <v name="ROPT">     -0.00050000     -0.00050000     -0.00050000</v>
    <i type="int" name="LMAXPAW">  -100</i>
    <i type="int" name="LMAXMIX">     2</i>
    <i type="logical" name="NLSPLINE"> F  </i>
   </separator>
   <separator name="electronic startup" >
    <i type="int" name="ISTART">     0</i>
    <i type="int" name="ICHARG">     2</i>
    <i type="int" name="INIWAV">     1</i>
   </separator>
   <separator name="electronic spin" >
    <i type="int" name="ISPIN">     1</i>
    <i type="logical" name="LNONCOLLINEAR"> F  </i>
    <v name="MAGMOM">      1.00000000      1.00000000      1.00000000      1.00000000      1.00000000      1.00000000      1.00000000      1.00000000      1.00000000      1.00000000      1.00000000      1.00000000      1.00000000      1.00000000      1.00000000      1.00000000      1.00000000      1.00000000      1.00000000      1.00000000
      1.00000000      1.00000000      1.00000000      1.00000000      1.00000000      1.00000000      1.00000000      1.00000000      1.00000000      1.00000000      1.00000000      1.00000000      1.00000000      1.00000000      1.00000000      1.00000000      1.00000000      1.00000000      1.00000000      1.00000000
      1.00000000      1.00000000      1.00000000      1.00000000      1.00000000      1.00000000      1.00000000      1.00000000      1.00000000      1.00000000      1.00000000      1.00000000      1.00000000      1.00000000      1.00000000      1.00000000      1.00000000</v>
    <i name="NUPDOWN">     -1.00000000</i>
    <i type="logical" name="LSORBIT"> F  </i>
    <v name="SAXIS">      0.00000000      0.00000000      1.00000000</v>
    <i type="logical" name="LSPIRAL"> F  </i>
    <v name="QSPIRAL">      0.00000000      0.00000000      0.00000000</v>
    <i type="logical" name="LZEROZ"> F  </i>
   </separator>
   <separator name="electronic exchange-correlation" >
    <i type="logical" name="LASPH"> F  </i>
    <i type="logical" name="LMETAGGA"> F  </i>
   </separator>
   <separator name="electronic convergence" >
    <i type="int" name="NELM">   200</i>
    <i type="int" name="NELMDL">    -5</i>
    <i type="int" name="NELMIN">     2</i>
    <i name="ENINI">    400.00000000</i>
    <separator name="electronic convergence detail" >
     <i type="logical" name="LDIAG"> T  </i>
     <i type="logical" name="LSUBROT"> F  </i>
     <i name="WEIMIN">      0.00100000</i>
     <i name="EBREAK">      0.00000002</i>
     <i name="DEPER">      0.30000000</i>
     <i type="int" name="NRMM">     4</i>
     <i name="TIME">      0.40000000</i>
    </separator>
   </separator>
   <separator name="electronic mixer" >
    <i name="AMIX">      0.40000000</i>
    <i name="BMIX">      1.00000000</i>
    <i name="AMIN">      0.10000000</i>
    <i name="AMIX_MAG">      1.60000000</i>
    <i name="BMIX_MAG">      1.00000000</i>
    <separator name="electronic mixer details" >
     <i type="int" name="IMIX">     4</i>
     <i type="logical" name="MIXFIRST"> F  </i>
     <i type="int" name="MAXMIX">   -45</i>
     <i name="WC">    100.00000000</i>
     <i type="int" name="INIMIX">     1</i>
     <i type="int" name="MIXPRE">     1</i>
     <i type="int" name="MREMOVE">     5</i>
    </separator>
   </separator>
   <separator name="electronic dipolcorrection" >
    <i type="logical" name="LDIPOL"> T  </i>
    <i type="logical" name="LMONO"> F  </i>
    <i type="int" name="IDIPOL">     3</i>
    <i name="EPSILON">      1.00000000</i>
    <v name="DIPOL">   -100.00000000   -100.00000000   -100.00000000</v>
    <i name="EFIELD">      0.00000000</i>
   </separator>
  </separator>
  <separator name="grids" >
   <i type="int" name="NGX">    70</i>
   <i type="int" name="NGY">    60</i>
   <i type="int" name="NGZ">    80</i>
   <i type="int" name="NGXF">   140</i>
   <i type="int" name="NGYF">   120</i>
   <i type="int" name="NGZF">   160</i>
   <i type="logical" name="ADDGRID"> F  </i>
  </separator>
  <separator name="ionic" >
   <i type="int" name="NSW">  1000</i>
   <i type="int" name="IBRION">     2</i>
   <i type="int" name="MDALGO">     0</i>
   <i type="int" name="ISIF">     3</i>
   <i name="PSTRESS">      0.00000000</i>
   <i name="EDIFFG">     -0.05000000</i>
   <i type="int" name="NFREE">     1</i>
   <i name="POTIM">      0.10000000</i>
   <i name="SMASS">     -3.00000000</i>
   <i name="SCALEE">      1.00000000</i>
  </separator>
  <separator name="ionic md" >
   <i name="TEBEG">      0.00010000</i>
   <i name="TEEND">      0.00010000</i>
   <i type="int" name="NBLOCK">     1</i>
   <i type="int" name="KBLOCK">  1000</i>
   <i type="int" name="NPACO">   256</i>
   <i name="APACO">     10.00000000</i>
  </separator>
  <separator name="symmetry" >
   <i type="int" name="ISYM">     2</i>
   <i name="SYMPREC">      0.00001000</i>
  </separator>
  <separator name="dos" >
   <i type="int" name="LORBIT">     0</i>
   <v name="RWIGS">     -1.00000000     -1.00000000     -1.00000000</v>
   <i type="int" name="NEDOS">   301</i>
   <i name="EMIN">     10.00000000</i>
   <i name="EMAX">    -10.00000000</i>
   <i name="EFERMI">      0.00000000</i>
  </separator>
  <separator name="writing" >
   <i type="int" name="NWRITE">     2</i>
   <i type="logical" name="LWAVE"> F  </i>
   <i type="logical" name="LDOWNSAMPLE"> F  </i>
   <i type="logical" name="LCHARG"> F  </i>
   <i type="logical" name="LPARD"> F  </i>
   <i type="logical" name="LVTOT"> F  </i>
   <i type="logical" name="LVHAR"> F  </i>
   <i type="logical" name="LELF"> F  </i>
   <i type="logical" name="LOPTICS"> F  </i>
   <v name="STM">      0.00000000      0.00000000      0.00000000      0.00000000      0.00000000      0.00000000      0.00000000</v>
  </separator>
  <separator name="performance" >
   <i type="int" name="NPAR">     4</i>
   <i type="int" name="NSIM">     4</i>
   <i type="int" name="NBLK">    -1</i>
   <i type="logical" name="LPLANE"> T  </i>
   <i type="logical" name="LSCALAPACK"> T  </i>
   <i type="logical" name="LSCAAWARE"> F  </i>
   <i type="logical" name="LSCALU"> F  </i>
   <i type="logical" name="LASYNC"> F  </i>
   <i type="logical" name="LORBITALREAL"> F  </i>
  </separator>
  <separator name="miscellaneous" >
   <i type="int" name="IDIOT">     3</i>
   <i type="int" name="PHON_NSTRUCT">    -1</i>
   <i type="logical" name="LMUSIC"> F  </i>
   <v name="POMASS">     12.01100000     14.00100000     63.54600000</v>
   <v name="DARWINR">      0.00000000      0.00000000      0.00000000</v>
   <v name="DARWINV">      1.00000000      1.00000000      1.00000000</v>
   <i type="logical" name="LCORR"> T  </i>
  </separator>
  <i type="logical" name="GGA_COMPAT"> T  </i>
  <i type="logical" name="LBERRY"> F  </i>
  <i type="int" name="ICORELEVEL">     0</i>
  <i type="logical" name="LDAU"> F  </i>
  <i type="int" name="I_CONSTRAINED_M">     0</i>
  <separator name="electronic exchange-correlation" >
   <i type="string" name="GGA">--</i>
   <i type="int" name="VOSKOWN">     0</i>
   <i type="logical" name="LHFCALC"> F  </i>
   <i type="string" name="PRECFOCK"></i>
   <i type="logical" name="LSYMGRAD"> F  </i>
   <i type="logical" name="LHFONE"> F  </i>
   <i type="logical" name="LRHFCALC"> F  </i>
   <i type="logical" name="LTHOMAS"> F  </i>
   <i type="logical" name="LMODELHF"> F  </i>
   <i type="logical" name="LFOCKACE"> F  </i>
   <i name="ENCUT4O">     -1.00000000</i>
   <i type="int" name="EXXOEP">     0</i>
   <i type="int" name="FOURORBIT">     0</i>
   <i name="AEXX">      0.00000000</i>
   <i name="HFALPHA">      0.00000000</i>
   <i name="MCALPHA">      0.00000000</i>
   <i name="ALDAX">      1.00000000</i>
   <i name="AGGAX">      1.00000000</i>
   <i name="ALDAC">      1.00000000</i>
   <i name="AGGAC">      1.00000000</i>
   <i type="int" name="NKREDX">     1</i>
   <i type="int" name="NKREDY">     1</i>
   <i type="int" name="NKREDZ">     1</i>
   <i type="logical" name="SHIFTRED"> F  </i>
   <i type="logical" name="ODDONLY"> F  </i>
   <i type="logical" name="EVENONLY"> F  </i>
   <i type="int" name="LMAXFOCK">     0</i>
   <i type="int" name="NMAXFOCKAE">     0</i>
   <i type="logical" name="LFOCKAEDFT"> F  </i>
   <i name="HFSCREEN">      0.00000000</i>
   <i name="HFSCREENC">      0.00000000</i>
   <i type="int" name="NBANDSGWLOW">     0</i>
  </separator>
  <separator name="vdW DFT" >
   <i type="logical" name="LUSE_VDW"> F  </i>
   <i name="Zab_VDW">     -0.84910000</i>
   <i name="PARAM1">      0.12340000</i>
   <i name="PARAM2">      1.00000000</i>
   <i name="PARAM3">      0.00000000</i>
  </separator>
  <separator name="model GW" >
   <i type="int" name="MODEL_GW">     0</i>
   <i name="MODEL_EPS0">     27.59403354</i>
   <i name="MODEL_ALPHA">      1.00000000</i>
  </separator>
  <separator name="linear response parameters" >
   <i type="logical" name="LEPSILON"> F  </i>
   <i type="logical" name="LRPA"> F  </i>
   <i type="logical" name="LNABLA"> F  </i>
   <i type="logical" name="LVEL"> F  </i>
   <i name="CSHIFT">      0.10000000</i>
   <i name="OMEGAMAX">     -1.00000000</i>
   <i name="DEG_THRESHOLD">      0.00200000</i>
   <i name="RTIME">     -0.10000000</i>
   <i name="WPLASMAI">      0.00000000</i>
   <v name="DFIELD">      0.00000000      0.00000000      0.00000000</v>
   <v name="WPLASMA">      0.00000000      0.00000000      0.00000000      0.00000000      0.00000000      0.00000000      0.00000000      0.00000000      0.00000000</v>
  </separator>
  <separator name="orbital magnetization" >
   <i type="logical" name="NUCIND"> F  </i>
   <v name="MAGPOS">      0.00000000      0.00000000      0.00000000</v>
   <i type="logical" name="LNICSALL"> T  </i>
   <i type="logical" name="ORBITALMAG"> F  </i>
   <i type="logical" name="LMAGBLOCH"> F  </i>
   <i type="logical" name="LCHIMAG"> F  </i>
   <i type="logical" name="LGAUGE"> T  </i>
   <i type="int" name="MAGATOM">     0</i>
   <v name="MAGDIPOL">      0.00000000      0.00000000      0.00000000</v>
   <v name="AVECCONST">      0.00000000      0.00000000      0.00000000</v>
  </separator>
  <separator name="response functions" >
   <i type="logical" name="LFINITE_TEMPERATURE"> F  </i>
   <i type="logical" name="LADDER"> F  </i>
   <i type="logical" name="LRPAFORCE"> F  </i>
   <i type="logical" name="LFXC"> F  </i>
   <i type="logical" name="LHARTREE"> T  </i>
   <i type="int" name="IBSE">     0</i>
   <v type="int" name="KPOINT">    -1     0     0     0</v>
   <i type="logical" name="LTCTC"> F  </i>
   <i type="logical" name="LTCTE"> F  </i>
   <i type="logical" name="LTETE"> F  </i>
   <i type="logical" name="LTRIPLET"> F  </i>
   <i type="logical" name="LFXCEPS"> F  </i>
   <i type="logical" name="LFXHEG"> F  </i>
   <i type="int" name="NATURALO">     2</i>
   <i type="logical" name="LHOLEGF"> F  </i>
   <i type="logical" name="L2ORDER"> F  </i>
   <i type="logical" name="LDMP1"> F  </i>
   <i type="logical" name="LMP2LT"> F  </i>
   <i type="logical" name="LSMP2LT"> F  </i>
   <i type="logical" name="LGWLF"> F  </i>
   <i name="ENCUTGW">     -2.00000000</i>
   <i name="ENCUTGWSOFT">     -2.00000000</i>
   <i name="ENCUTLF">     -1.00000000</i>
   <i type="logical" name="LESF_SPLINES"> F  </i>
   <i type="int" name="LMAXMP2">    -1</i>
   <i name="SCISSOR">      0.00000000</i>
   <i type="int" name="NOMEGA">     0</i>
   <i type="int" name="NOMEGAR">     0</i>
   <i type="int" name="NBANDSGW">    -1</i>
   <i type="int" name="NBANDSO">    -1</i>
   <i type="int" name="NBANDSV">    -1</i>
   <i type="int" name="NELMGW">     1</i>
   <i type="int" name="NELMHF">     1</i>
   <i type="int" name="DIM">     3</i>
   <i type="int" name="IESPILON">     4</i>
   <i type="int" name="ANTIRES">     0</i>
   <i name="OMEGAMAX">    -30.00000000</i>
   <i name="OMEGAMIN">    -30.00000000</i>
   <i name="OMEGATL">   -200.00000000</i>
   <i type="int" name="OMEGAGRID">     0</i>
   <i name="CSHIFT">     -0.10000000</i>
   <i type="logical" name="LSELFENERGY"> F  </i>
   <i type="logical" name="LSPECTRAL"> F  </i>
   <i type="logical" name="LSPECTRALGW"> F  </i>
   <i type="logical" name="LSINGLES"> F  </i>
   <i type="logical" name="LFERMIGW"> F  </i>
   <i type="logical" name="ODDONLYGW"> F  </i>
   <i type="logical" name="EVENONLYGW"> F  </i>
   <i type="int" name="NKREDLFX">     1</i>
   <i type="int" name="NKREDLFY">     1</i>
   <i type="int" name="NKREDLFZ">     1</i>
   <i type="int" name="MAXMEM">  2800</i>
   <i type="int" name="TELESCOPE">     0</i>
   <i type="int" name="NTAUPAR">    -1</i>
   <i type="int" name="NOMEGAPAR">    -1</i>
   <i name="DAMP_NEWTON">      0.80000001</i>
   <i name="LAMBDA">      1.00000000</i>
  </separator>
  <separator name="External order field" >
   <i name="OFIELD_KAPPA">      0.00000000</i>
   <v name="OFIELD_K">      0.00000000      0.00000000      0.00000000</v>
   <i name="OFIELD_Q6_NEAR">      0.00000000</i>
   <i name="OFIELD_Q6_FAR">      0.00000000</i>
   <i name="OFIELD_A">      0.00000000</i>
  </separator>
  <separator name="optional k-points parameters" >
   <i type="int" name="KPOINTS_OPT_MODE">     1</i>
   <i type="logical" name="LKPOINTS_OPT"> F  </i>
  </separator>
  <separator name="solvation model" >
   <i type="logical" name="LSOL"> F  </i>
  </separator>
 </parameters>
 <atominfo>
  <atoms>      57 </atoms>
  <types>       3 </types>
  <array name="atoms" >
   <dimension dim="1">ion</dimension>
   <field type="string">element</field>
   <field type="int">atomtype</field>
   <set>
    <rc><c>C </c><c>   1</c></rc>
    <rc><c>C </c><c>   1</c></rc>
    <rc><c>C </c><c>   1</c></rc>
    <rc><c>C </c><c>   1</c></rc>
    <rc><c>C </c><c>   1</c></rc>
    <rc><c>C </c><c>   1</c></rc>
    <rc><c>C </c><c>   1</c></rc>
    <rc><c>C </c><c>   1</c></rc>
    <rc><c>C </c><c>   1</c></rc>
    <rc><c>C </c><c>   1</c></rc>
    <rc><c>C </c><c>   1</c></rc>
    <rc><c>C </c><c>   1</c></rc>
    <rc><c>C </c><c>   1</c></rc>
    <rc><c>C </c><c>   1</c></rc>
    <rc><c>C </c><c>   1</c></rc>
    <rc><c>C </c><c>   1</c></rc>
    <rc><c>C </c><c>   1</c></rc>
    <rc><c>C </c><c>   1</c></rc>
    <rc><c>C </c><c>   1</c></rc>
    <rc><c>C </c><c>   1</c></rc>
    <rc><c>C </c><c>   1</c></rc>
    <rc><c>C </c><c>   1</c></rc>
    <rc><c>C </c><c>   1</c></rc>
    <rc><c>C </c><c>   1</c></rc>
    <rc><c>N </c><c>   2</c></rc>
    <rc><c>N </c><c>   2</c></rc>
    <rc><c>N </c><c>   2</c></rc>
    <rc><c>N </c><c>   2</c></rc>
    <rc><c>N </c><c>   2</c></rc>
    <rc><c>N </c><c>   2</c></rc>
    <rc><c>N </c><c>   2</c></rc>
    <rc><c>N </c><c>   2</c></rc>
    <rc><c>N </c><c>   2</c></rc>
    <rc><c>N </c><c>   2</c></rc>
    <rc><c>N </c><c>   2</c></rc>
    <rc><c>N </c><c>   2</c></rc>
    <rc><c>N </c><c>   2</c></rc>
    <rc><c>N </c><c>   2</c></rc>
    <rc><c>N </c><c>   2</c></rc>
    <rc><c>N </c><c>   2</c></rc>
    <rc><c>N </c><c>   2</c></rc>
    <rc><c>N </c><c>   2</c></rc>
    <rc><c>N </c><c>   2</c></rc>
    <rc><c>N </c><c>   2</c></rc>
    <rc><c>N </c><c>   2</c></rc>
    <rc><c>N </c><c>   2</c></rc>
    <rc><c>N </c><c>   2</c></rc>
    <rc><c>N </c><c>   2</c></rc>
    <rc><c>N </c><c>   2</c></rc>
    <rc><c>N </c><c>   2</c></rc>
    <rc><c>N </c><c>   2</c></rc>
    <rc><c>N </c><c>   2</c></rc>
    <rc><c>N </c><c>   2</c></rc>
    <rc><c>N </c><c>   2</c></rc>
    <rc><c>N </c><c>   2</c></rc>
    <rc><c>N </c><c>   2</c></rc>
    <rc><c>Cu</c><c>   3</c></rc>
   </set>
  </array>
  <array name="atomtypes" >
   <dimension dim="1">type</dimension>
   <field type="int">atomspertype</field>
   <field type="string">element</field>
   <field>mass</field>
   <field>valence</field>
   <field type="string">pseudopotential</field>
   <set>
    <rc><c>  24</c><c>C </c><c>     12.01100000</c><c>      4.00000000</c><c>  PAW_PBE C 08Apr2002                   </c></rc>
    <rc><c>  32</c><c>N </c><c>     14.00100000</c><c>      5.00000000</c><c>  PAW_PBE N 08Apr2002                   </c></rc>
    <rc><c>   1</c><c>Cu</c><c>     63.54600000</c><c>     11.00000000</c><c>  PAW_PBE Cu 22Jun2005                  </c></rc>
   </set>
  </array>
 </atominfo>
 <structure name="initialpos" >
  <crystal>
   <varray name="basis" >
    <v>      14.20606433       0.00000000       0.00000000 </v>
    <v>       0.00000000      12.30194432       0.00000000 </v>
    <v>       0.00000000       0.00000000      15.00000000 </v>
   </varray>
   <i name="volume">   2621.43318603 </i>
   <varray name="rec_basis" >
    <v>       0.07039247       0.00000000       0.00000000 </v>
    <v>       0.00000000       0.08128796       0.00000000 </v>
    <v>       0.00000000       0.00000000       0.06666667 </v>
   </varray>
  </crystal>
  <varray name="positions" >
   <v>       0.06552924       0.40428224       0.13332883 </v>
   <v>       0.98073506       0.23448653       0.13331251 </v>
   <v>       0.22596849       0.39800742       0.13332693 </v>
   <v>       0.81567713       0.57598150       0.13353271 </v>
   <v>       0.15032739       0.23448907       0.13330756 </v>
   <v>       0.90510567       0.39801215       0.13332888 </v>
   <v>       0.56563600       0.40060460       0.13329290 </v>
   <v>       0.48003275       0.23339915       0.13319118 </v>
   <v>       0.72699959       0.39816605       0.13349143 </v>
   <v>       0.31530345       0.57604443       0.13352705 </v>
   <v>       0.65113845       0.23332886       0.13318734 </v>
   <v>       0.40417946       0.39830929       0.13352891 </v>
   <v>       0.81593183       0.90524123       0.13322179 </v>
   <v>       0.73312683       0.73613388       0.13336762 </v>
   <v>       0.97653404       0.89849251       0.13330997 </v>
   <v>       0.90130094       0.73428418       0.13317397 </v>
   <v>       0.65436077       0.89869394       0.13351908 </v>
   <v>       0.31496386       0.90544683       0.13320054 </v>
   <v>       0.22958188       0.73436464       0.13316012 </v>
   <v>       0.47652118       0.89889576       0.13350049 </v>
   <v>       0.39765408       0.73641312       0.13329011 </v>
   <v>       0.15435104       0.89855068       0.13332563 </v>
   <v>       0.06547629       0.07689847       0.13331367 </v>
   <v>       0.56552517       0.07636274       0.13331407 </v>
   <v>       0.98386097       0.45673230       0.13331657 </v>
   <v>       0.90051323       0.29005212       0.13328011 </v>
   <v>       0.14721891       0.45673085       0.13330434 </v>
   <v>       0.14879978       0.12682943       0.13328696 </v>
   <v>       0.98217053       0.12681964       0.13329527 </v>
   <v>       0.23059373       0.29004466       0.13328360 </v>
   <v>       0.06553126       0.29123103       0.13334958 </v>
   <v>       0.81521451       0.45792350       0.13337048 </v>
   <v>       0.48537906       0.45596222       0.13372761 </v>
   <v>       0.40076577       0.29045513       0.13359709 </v>
   <v>       0.64589040       0.45583435       0.13368861 </v>
   <v>       0.64915874       0.12611856       0.13341956 </v>
   <v>       0.48192703       0.12618043       0.13340833 </v>
   <v>       0.73044688       0.29029081       0.13357859 </v>
   <v>       0.56559013       0.28963346       0.13259239 </v>
   <v>       0.31590167       0.45800614       0.13338786 </v>
   <v>       0.73355117       0.95613998       0.13361729 </v>
   <v>       0.65156945       0.78886389       0.13372214 </v>
   <v>       0.89721800       0.95709144       0.13344107 </v>
   <v>       0.89834841       0.62653391       0.13351279 </v>
   <v>       0.73194305       0.62829732       0.13384847 </v>
   <v>       0.98071775       0.78992791       0.13338564 </v>
   <v>       0.81644402       0.79170529       0.13265331 </v>
   <v>       0.56546383       0.95729815       0.13335126 </v>
   <v>       0.23365512       0.95719332       0.13346882 </v>
   <v>       0.15016184       0.78998079       0.13343866 </v>
   <v>       0.39733392       0.95635363       0.13363927 </v>
   <v>       0.39900206       0.62855329       0.13381154 </v>
   <v>       0.23263864       0.62660872       0.13355684 </v>
   <v>       0.47919533       0.78908611       0.13366660 </v>
   <v>       0.31441659       0.79189183       0.13253209 </v>
   <v>       0.06544380       0.95787743       0.13331123 </v>
   <v>       0.56413024       0.62436563       0.13731276 </v>
  </varray>
 </structure>
 <calculation>
  <scstep>
   <time name="dav">    1.70    1.70</time>
   <time name="total">    1.74    1.75</time>
   <dipole>
    <v name="dipole">      0.00000000       0.00000000       0.00044289 </v>
    <i name="Tr[quadrupol]">  -8076.01686353 </i>
    <i name="Echarged">      0.00000000 </i>
    <i name="Edipol_quadrupol">      0.00000000 </i>
    <i name="Eion">      0.00000000 </i>
   </dipole>
   <energy>
    <i name="alphaZ">    127.21392941 </i>
    <i name="ewald">  28039.58296201 </i>
    <i name="hartreedc"> -38730.73596715 </i>
    <i name="XCdc">   1000.69242210 </i>
    <i name="pawpsdc">  10390.58318458 </i>
    <i name="pawaedc"> -10548.20222217 </i>
    <i name="eentropy">     -0.10067108 </i>
    <i name="bandstr">  -1099.31685952 </i>
    <i name="atom">  13385.21109036 </i>
    <i name="e_fr_energy">   2564.92786853 </i>
    <i name="e_wo_entrp">   2565.02853961 </i>
    <i name="e_0_energy">   2564.97820407 </i>
   </energy>
  </scstep>
  <scstep>
   <time name="dav">    1.95    1.96</time>
   <time name="total">    1.96    1.96</time>
   <dipole>
    <v name="dipole">      0.00000000       0.00000000       0.00044289 </v>
    <i name="Tr[quadrupol]">  -8076.01686353 </i>
    <i name="Echarged">      0.00000000 </i>
    <i name="Edipol_quadrupol">      0.00000000 </i>
    <i name="Eion">      0.00000000 </i>
   </dipole>
   <energy>
    <i name="e_fr_energy">     74.86222369 </i>
    <i name="e_wo_entrp">     74.89246718 </i>
    <i name="e_0_energy">     74.87734544 </i>
   </energy>
  </scstep>
  <scstep>
   <time name="dav">    1.70    1.70</time>
   <time name="total">    1.70    1.70</time>
   <dipole>
    <v name="dipole">      0.00000000       0.00000000       0.00044289 </v>
    <i name="Tr[quadrupol]">  -8076.01686353 </i>
    <i name="Echarged">      0.00000000 </i>
    <i name="Edipol_quadrupol">      0.00000000 </i>
    <i name="Eion">      0.00000000 </i>
   </dipole>
   <energy>
    <i name="e_fr_energy">   -478.54701623 </i>
    <i name="e_wo_entrp">   -478.42917971 </i>
    <i name="e_0_energy">   -478.48809797 </i>
   </energy>
  </scstep>
  <scstep>
   <time name="dav">    2.04    2.04</time>
   <time name="total">    2.04    2.04</time>
   <dipole>
    <v name="dipole">      0.00000000       0.00000000       0.00044289 </v>
    <i name="Tr[quadrupol]">  -8076.01686353 </i>
    <i name="Echarged">      0.00000000 </i>
    <i name="Edipol_quadrupol">      0.00000000 </i>
    <i name="Eion">      0.00000000 </i>
   </dipole>
   <energy>
    <i name="e_fr_energy">   -515.63119771 </i>
    <i name="e_wo_entrp">   -515.49881316 </i>
    <i name="e_0_energy">   -515.56500544 </i>
   </energy>
  </scstep>
  <scstep>
   <time name="dav">    1.78    1.78</time>
   <time name="total">    1.83    1.83</time>
   <dipole>
    <v name="dipole">      0.00000000       0.00000000       0.00044289 </v>
    <i name="Tr[quadrupol]">  -8076.01686353 </i>
    <i name="Echarged">      0.00000000 </i>
    <i name="Edipol_quadrupol">      0.00000000 </i>
    <i name="Eion">      0.00000000 </i>
   </dipole>
   <energy>
    <i name="e_fr_energy">   -516.84781055 </i>
    <i name="e_wo_entrp">   -516.69935799 </i>
    <i name="e_0_energy">   -516.77358427 </i>
   </energy>
  </scstep>
  <scstep>
   <time name="dav">    2.18    2.19</time>
   <time name="total">    2.25    2.27</time>
   <dipole>
    <v name="dipole">      0.00000000       0.00000000      -0.10985431 </v>
    <i name="Tr[quadrupol]">  -8076.95531405 </i>
    <i name="Echarged">      0.00000000 </i>
    <i name="Edipol_quadrupol">      0.00000000 </i>
    <i name="Eion">      0.00000000 </i>
   </dipole>
   <energy>
    <i name="e_fr_energy">   -704.56303198 </i>
    <i name="e_wo_entrp">   -704.52817925 </i>
    <i name="e_0_energy">   -704.54560562 </i>
   </energy>
  </scstep>
  <scstep>
   <time name="dav">    1.75    1.75</time>
   <time name="total">    1.83    1.83</time>
   <dipole>
    <v name="dipole">      0.00000000       0.00000000      -0.03507344 </v>
    <i name="Tr[quadrupol]">  -8077.49038077 </i>
    <i name="Echarged">      0.00000000 </i>
    <i name="Edipol_quadrupol">      0.00000000 </i>
    <i name="Eion">      0.00000000 </i>
   </dipole>
   <energy>
    <i name="e_fr_energy">   -525.98834047 </i>
    <i name="e_wo_entrp">   -525.96435555 </i>
    <i name="e_0_energy">   -525.97634801 </i>
   </energy>
  </scstep>
  <scstep>
   <time name="dav">    1.83    1.83</time>
   <time name="total">    1.91    1.91</time>
   <dipole>
    <v name="dipole">      0.00000000       0.00000000       0.00723081 </v>
    <i name="Tr[quadrupol]">  -8077.87451287 </i>
    <i name="Echarged">      0.00000000 </i>
    <i name="Edipol_quadrupol">      0.00000000 </i>
    <i name="Eion">      0.00000000 </i>
   </dipole>
   <energy>
    <i name="e_fr_energy">   -496.69720658 </i>
    <i name="e_wo_entrp">   -496.65252607 </i>
    <i name="e_0_energy">   -496.67486633 </i>
   </energy>
  </scstep>
  <scstep>
   <time name="dav">    2.00    2.00</time>
   <time name="total">    2.08    2.08</time>
   <dipole>
    <v name="dipole">      0.00000000       0.00000000       0.02731704 </v>
    <i name="Tr[quadrupol]">  -8078.80990646 </i>
    <i name="Echarged">      0.00000000 </i>
    <i name="Edipol_quadrupol">      0.00000000 </i>
    <i name="Eion">      0.00000000 </i>
   </dipole>
   <energy>
    <i name="e_fr_energy">   -480.40493296 </i>
    <i name="e_wo_entrp">   -480.34657742 </i>
    <i name="e_0_energy">   -480.37575519 </i>
   </energy>
  </scstep>
  <scstep>
   <time name="dav">    1.98    1.98</time>
   <time name="total">    2.06    2.06</time>
   <dipole>
    <v name="dipole">      0.00000000       0.00000000      -0.02753960 </v>
    <i name="Tr[quadrupol]">  -8080.42179767 </i>
    <i name="Echarged">      0.00000000 </i>
    <i name="Edipol_quadrupol">      0.00000000 </i>
    <i name="Eion">      0.00000000 </i>
   </dipole>
   <energy>
    <i name="e_fr_energy">   -474.23792264 </i>
    <i name="e_wo_entrp">   -474.18428417 </i>
    <i name="e_0_energy">   -474.21110341 </i>
   </energy>
  </scstep>
  <scstep>
   <time name="dav">    2.04    2.04</time>
   <time name="total">    2.12    2.12</time>
   <dipole>
    <v name="dipole">      0.00000000       0.00000000      -0.03149301 </v>
    <i name="Tr[quadrupol]">  -8081.18075885 </i>
    <i name="Echarged">      0.00000000 </i>
    <i name="Edipol_quadrupol">      0.00000000 </i>
    <i name="Eion">      0.00000000 </i>
   </dipole>
   <energy>
    <i name="e_fr_energy">   -487.53946022 </i>
    <i name="e_wo_entrp">   -487.39431332 </i>
    <i name="e_0_energy">   -487.46688677 </i>
   </energy>
  </scstep>
  <scstep>
   <time name="dav">    2.10    2.10</time>
   <time name="total">    2.18    2.18</time>
   <dipole>
    <v name="dipole">      0.00000000       0.00000000      -0.00508728 </v>
    <i name="Tr[quadrupol]">  -8081.46449187 </i>
    <i name="Echarged">      0.00000000 </i>
    <i name="Edipol_quadrupol">      0.00000000 </i>
    <i name="Eion">      0.00000000 </i>
   </dipole>
   <energy>
    <i name="e_fr_energy">   -501.67870876 </i>
    <i name="e_wo_entrp">   -501.58297484 </i>
    <i name="e_0_energy">   -501.63084180 </i>
   </energy>
  </scstep>
  <scstep>
   <time name="dav">    1.79    1.79</time>
   <time name="total">    1.87    1.87</time>
   <dipole>
    <v name="dipole">      0.00000000       0.00000000       0.00328640 </v>
    <i name="Tr[quadrupol]">  -8081.04198769 </i>
    <i name="Echarged">      0.00000000 </i>
    <i name="Edipol_quadrupol">      0.00000000 </i>
    <i name="Eion">      0.00000000 </i>
   </dipole>
   <energy>
    <i name="e_fr_energy">   -501.60078820 </i>
    <i name="e_wo_entrp">   -501.50479690 </i>
    <i name="e_0_energy">   -501.55279255 </i>
   </energy>
  </scstep>
  <scstep>
   <time name="dav">    2.21    2.21</time>
   <time name="total">    2.29    2.29</time>
   <dipole>
    <v name="dipole">      0.00000000       0.00000000       0.02073063 </v>
    <i name="Tr[quadrupol]">  -8080.90573371 </i>
    <i name="Echarged">      0.00000000 </i>
    <i name="Edipol_quadrupol">      0.00000000 </i>
    <i name="Eion">      0.00000000 </i>
   </dipole>
   <energy>
    <i name="e_fr_energy">   -501.93074721 </i>
    <i name="e_wo_entrp">   -501.83504383 </i>
    <i name="e_0_energy">   -501.88289552 </i>
   </energy>
  </scstep>
  <scstep>
   <time name="dav">    1.75    1.75</time>
   <time name="total">    1.83    1.85</time>
   <dipole>
    <v name="dipole">      0.00000000       0.00000000       0.02059935 </v>
    <i name="Tr[quadrupol]">  -8080.90365854 </i>
    <i name="Echarged">      0.00000000 </i>
    <i name="Edipol_quadrupol">      0.00000000 </i>
    <i name="Eion">      0.00000000 </i>
   </dipole>
   <energy>
    <i name="e_fr_energy">   -501.86487538 </i>
    <i name="e_wo_entrp">   -501.76914633 </i>
    <i name="e_0_energy">   -501.81701085 </i>
   </energy>
  </scstep>
  <scstep>
   <time name="dav">    1.88    1.88</time>
   <time name="total">    1.96    1.96</time>
   <dipole>
    <v name="dipole">      0.00000000       0.00000000       0.02495503 </v>
    <i name="Tr[quadrupol]">  -8080.83351039 </i>
    <i name="Echarged">      0.00000000 </i>
    <i name="Edipol_quadrupol">      0.00000000 </i>
    <i name="Eion">      0.00000000 </i>
   </dipole>
   <energy>
    <i name="e_fr_energy">   -498.71052998 </i>
    <i name="e_wo_entrp">   -498.61616463 </i>
    <i name="e_0_energy">   -498.66334730 </i>
   </energy>
  </scstep>
  <scstep>
   <time name="dav">    1.94    1.94</time>
   <time name="total">    2.02    2.02</time>
   <dipole>
    <v name="dipole">      0.00000000       0.00000000       0.04522748 </v>
    <i name="Tr[quadrupol]">  -8080.54673720 </i>
    <i name="Echarged">      0.00000000 </i>
    <i name="Edipol_quadrupol">      0.00000000 </i>
    <i name="Eion">      0.00000000 </i>
   </dipole>
   <energy>
    <i name="e_fr_energy">   -475.89596813 </i>
    <i name="e_wo_entrp">   -475.71610079 </i>
    <i name="e_0_energy">   -475.80603446 </i>
   </energy>
  </scstep>
  <scstep>
   <time name="dav">    1.95    1.95</time>
   <time name="total">    2.03    2.03</time>
   <dipole>
    <v name="dipole">      0.00000000       0.00000000       0.05211845 </v>
    <i name="Tr[quadrupol]">  -8080.69017575 </i>
    <i name="Echarged">      0.00000000 </i>
    <i name="Edipol_quadrupol">      0.00000000 </i>
    <i name="Eion">      0.00000000 </i>
   </dipole>
   <energy>
    <i name="e_fr_energy">   -474.90848781 </i>
    <i name="e_wo_entrp">   -474.83572049 </i>
    <i name="e_0_energy">   -474.87210415 </i>
   </energy>
  </scstep>
  <scstep>
   <time name="dav">    1.85    1.85</time>
   <time name="total">    1.92    1.92</time>
   <dipole>
    <v name="dipole">      0.00000000       0.00000000       0.06855775 </v>
    <i name="Tr[quadrupol]">  -8080.85504471 </i>
    <i name="Echarged">      0.00000000 </i>
    <i name="Edipol_quadrupol">      0.00000000 </i>
    <i name="Eion">      0.00000000 </i>
   </dipole>
   <energy>
    <i name="e_fr_energy">   -476.26789264 </i>
    <i name="e_wo_entrp">   -476.20058112 </i>
    <i name="e_0_energy">   -476.23423688 </i>
   </energy>
  </scstep>
  <scstep>
   <time name="dav">    1.90    1.90</time>
   <time name="total">    1.98    1.98</time>
   <dipole>
    <v name="dipole">      0.00000000       0.00000000       0.07581444 </v>
    <i name="Tr[quadrupol]">  -8081.14924567 </i>
    <i name="Echarged">      0.00000000 </i>
    <i name="Edipol_quadrupol">      0.00000000 </i>
    <i name="Eion">      0.00000000 </i>
   </dipole>
   <energy>
    <i name="e_fr_energy">   -481.48260719 </i>
    <i name="e_wo_entrp">   -481.42148111 </i>
    <i name="e_0_energy">   -481.45204415 </i>
   </energy>
  </scstep>
  <scstep>
   <time name="dav">    2.03    2.03</time>
   <time name="total">    2.11    2.11</time>
   <dipole>
    <v name="dipole">      0.00000000       0.00000000       0.06835280 </v>
    <i name="Tr[quadrupol]">  -8081.37461984 </i>
    <i name="Echarged">      0.00000000 </i>
    <i name="Edipol_quadrupol">      0.00000000 </i>
    <i name="Eion">      0.00000000 </i>
   </dipole>
   <energy>
    <i name="e_fr_energy">   -483.08601791 </i>
    <i name="e_wo_entrp">   -483.02566988 </i>
    <i name="e_0_energy">   -483.05584389 </i>
   </energy>
  </scstep>
  <scstep>
   <time name="dav">    2.04    2.04</time>
   <time name="total">    2.12    2.12</time>
   <dipole>
    <v name="dipole">      0.00000000       0.00000000       0.06124808 </v>
    <i name="Tr[quadrupol]">  -8081.50324934 </i>
    <i name="Echarged">      0.00000000 </i>
    <i name="Edipol_quadrupol">      0.00000000 </i>
    <i name="Eion">      0.00000000 </i>
   </dipole>
   <energy>
    <i name="e_fr_energy">   -484.15232515 </i>
    <i name="e_wo_entrp">   -484.09219240 </i>
    <i name="e_0_energy">   -484.12225877 </i>
   </energy>
  </scstep>
  <scstep>
   <time name="dav">    1.93    1.93</time>
   <time name="total">    2.01    2.01</time>
   <dipole>
    <v name="dipole">      0.00000000       0.00000000       0.05526408 </v>
    <i name="Tr[quadrupol]">  -8081.62613929 </i>
    <i name="Echarged">      0.00000000 </i>
    <i name="Edipol_quadrupol">      0.00000000 </i>
    <i name="Eion">      0.00000000 </i>
   </dipole>
   <energy>
    <i name="e_fr_energy">   -485.43406313 </i>
    <i name="e_wo_entrp">   -485.37424273 </i>
    <i name="e_0_energy">   -485.40415293 </i>
   </energy>
  </scstep>
  <scstep>
   <time name="dav">    1.98    1.98</time>
   <time name="total">    2.06    2.06</time>
   <dipole>
    <v name="dipole">      0.00000000       0.00000000       0.04470001 </v>
    <i name="Tr[quadrupol]">  -8081.90423237 </i>
    <i name="Echarged">      0.00000000 </i>
    <i name="Edipol_quadrupol">      0.00000000 </i>
    <i name="Eion">      0.00000000 </i>
   </dipole>
   <energy>
    <i name="e_fr_energy">   -488.31046128 </i>
    <i name="e_wo_entrp">   -488.23022745 </i>
    <i name="e_0_energy">   -488.27034437 </i>
   </energy>
  </scstep>
  <scstep>
   <time name="dav">    1.97    1.97</time>
   <time name="total">    2.05    2.05</time>
   <dipole>
    <v name="dipole">      0.00000000       0.00000000       0.04471958 </v>
    <i name="Tr[quadrupol]">  -8081.95456580 </i>
    <i name="Echarged">      0.00000000 </i>
    <i name="Edipol_quadrupol">      0.00000000 </i>
    <i name="Eion">      0.00000000 </i>
   </dipole>
   <energy>
    <i name="e_fr_energy">   -489.69045628 </i>
    <i name="e_wo_entrp">   -489.63414351 </i>
    <i name="e_0_energy">   -489.66229990 </i>
   </energy>
  </scstep>
  <scstep>
   <time name="dav">    1.67    1.67</time>
   <time name="total">    1.75    1.75</time>
   <dipole>
    <v name="dipole">      0.00000000       0.00000000       0.04312159 </v>
    <i name="Tr[quadrupol]">  -8081.95358733 </i>
    <i name="Echarged">      0.00000000 </i>
    <i name="Edipol_quadrupol">      0.00000000 </i>
    <i name="Eion">      0.00000000 </i>
   </dipole>
   <energy>
    <i name="e_fr_energy">   -489.73984357 </i>
    <i name="e_wo_entrp">   -489.68377423 </i>
    <i name="e_0_energy">   -489.71180890 </i>
   </energy>
  </scstep>
  <scstep>
   <time name="dav">    1.95    1.95</time>
   <time name="total">    2.03    2.03</time>
   <dipole>
    <v name="dipole">      0.00000000       0.00000000       0.04379585 </v>
    <i name="Tr[quadrupol]">  -8081.94679420 </i>
    <i name="Echarged">      0.00000000 </i>
    <i name="Edipol_quadrupol">      0.00000000 </i>
    <i name="Eion">      0.00000000 </i>
   </dipole>
   <energy>
    <i name="e_fr_energy">   -489.52999063 </i>
    <i name="e_wo_entrp">   -489.47359462 </i>
    <i name="e_0_energy">   -489.50179262 </i>
   </energy>
  </scstep>
  <scstep>
   <time name="dav">    2.03    2.03</time>
   <time name="total">    2.10    2.10</time>
   <dipole>
    <v name="dipole">      0.00000000       0.00000000       0.04386395 </v>
    <i name="Tr[quadrupol]">  -8081.95147616 </i>
    <i name="Echarged">      0.00000000 </i>
    <i name="Edipol_quadrupol">      0.00000000 </i>
    <i name="Eion">      0.00000000 </i>
   </dipole>
   <energy>
    <i name="e_fr_energy">   -489.43720390 </i>
    <i name="e_wo_entrp">   -489.38063233 </i>
    <i name="e_0_energy">   -489.40891811 </i>
   </energy>
  </scstep>
  <scstep>
   <time name="dav">    1.67    1.67</time>
   <time name="total">    1.75    1.75</time>
   <dipole>
    <v name="dipole">      0.00000000       0.00000000       0.03360727 </v>
    <i name="Tr[quadrupol]">  -8082.47282499 </i>
    <i name="Echarged">      0.00000000 </i>
    <i name="Edipol_quadrupol">      0.00000000 </i>
    <i name="Eion">      0.00000000 </i>
   </dipole>
   <energy>
    <i name="e_fr_energy">   -489.61999136 </i>
    <i name="e_wo_entrp">   -489.56427323 </i>
    <i name="e_0_energy">   -489.59213229 </i>
   </energy>
  </scstep>
  <scstep>
   <time name="dav">    1.89    1.90</time>
   <time name="total">    1.97    1.98</time>
   <dipole>
    <v name="dipole">      0.00000000       0.00000000       0.03179242 </v>
    <i name="Tr[quadrupol]">  -8083.23286176 </i>
    <i name="Echarged">      0.00000000 </i>
    <i name="Edipol_quadrupol">      0.00000000 </i>
    <i name="Eion">      0.00000000 </i>
   </dipole>
   <energy>
    <i name="e_fr_energy">   -487.86522440 </i>
    <i name="e_wo_entrp">   -487.80945217 </i>
    <i name="e_0_energy">   -487.83733828 </i>
   </energy>
  </scstep>
  <scstep>
   <time name="dav">    1.59    1.59</time>
   <time name="total">    1.67    1.67</time>
   <dipole>
    <v name="dipole">      0.00000000       0.00000000       0.02560910 </v>
    <i name="Tr[quadrupol]">  -8083.33943665 </i>
    <i name="Echarged">      0.00000000 </i>
    <i name="Edipol_quadrupol">      0.00000000 </i>
    <i name="Eion">      0.00000000 </i>
   </dipole>
   <energy>
    <i name="e_fr_energy">   -487.96481222 </i>
    <i name="e_wo_entrp">   -487.90918887 </i>
    <i name="e_0_energy">   -487.93700054 </i>
   </energy>
  </scstep>
  <scstep>
   <time name="dav">    1.96    1.96</time>
   <time name="total">    2.04    2.04</time>
   <dipole>
    <v name="dipole">      0.00000000       0.00000000       0.02594321 </v>
    <i name="Tr[quadrupol]">  -8083.43265760 </i>
    <i name="Echarged">      0.00000000 </i>
    <i name="Edipol_quadrupol">      0.00000000 </i>
    <i name="Eion">      0.00000000 </i>
   </dipole>
   <energy>
    <i name="e_fr_energy">   -486.10145887 </i>
    <i name="e_wo_entrp">   -486.04557117 </i>
    <i name="e_0_energy">   -486.07351502 </i>
   </energy>
  </scstep>
  <scstep>
   <time name="dav">    1.85    1.85</time>
   <time name="total">    1.93    1.93</time>
   <dipole>
    <v name="dipole">      0.00000000       0.00000000       0.01255928 </v>
    <i name="Tr[quadrupol]">  -8083.73724838 </i>
    <i name="Echarged">      0.00000000 </i>
    <i name="Edipol_quadrupol">      0.00000000 </i>
    <i name="Eion">      0.00000000 </i>
   </dipole>
   <energy>
    <i name="e_fr_energy">   -484.84063561 </i>
    <i name="e_wo_entrp">   -484.78481958 </i>
    <i name="e_0_energy">   -484.81272759 </i>
   </energy>
  </scstep>
  <scstep>
   <time name="dav">    2.09    2.09</time>
   <time name="total">    2.17    2.17</time>
   <dipole>
    <v name="dipole">      0.00000000       0.00000000      -0.00295945 </v>
    <i name="Tr[quadrupol]">  -8084.15057603 </i>
    <i name="Echarged">      0.00000000 </i>
    <i name="Edipol_quadrupol">      0.00000000 </i>
    <i name="Eion">      0.00000000 </i>
   </dipole>
   <energy>
    <i name="e_fr_energy">   -482.95168866 </i>
    <i name="e_wo_entrp">   -482.89585617 </i>
    <i name="e_0_energy">   -482.92377242 </i>
   </energy>
  </scstep>
  <scstep>
   <time name="dav">    1.95    1.95</time>
   <time name="total">    2.03    2.03</time>
   <dipole>
    <v name="dipole">      0.00000000       0.00000000       0.00602736 </v>
    <i name="Tr[quadrupol]">  -8084.33891146 </i>
    <i name="Echarged">      0.00000000 </i>
    <i name="Edipol_quadrupol">      0.00000000 </i>
    <i name="Eion">      0.00000000 </i>
   </dipole>
   <energy>
    <i name="e_fr_energy">   -481.39268142 </i>
    <i name="e_wo_entrp">   -481.33338775 </i>
    <i name="e_0_energy">   -481.36303459 </i>
   </energy>
  </scstep>
  <scstep>
   <time name="dav">    1.99    2.00</time>
   <time name="total">    2.10    2.11</time>
   <dipole>
    <v name="dipole">      0.00000000       0.00000000       0.01223745 </v>
    <i name="Tr[quadrupol]">  -8084.51428331 </i>
    <i name="Echarged">      0.00000000 </i>
    <i name="Edipol_quadrupol">      0.00000000 </i>
    <i name="Eion">      0.00000000 </i>
   </dipole>
   <energy>
    <i name="e_fr_energy">   -479.84201812 </i>
    <i name="e_wo_entrp">   -479.76914449 </i>
    <i name="e_0_energy">   -479.80558131 </i>
   </energy>
  </scstep>
  <scstep>
   <time name="dav">    1.98    1.99</time>
   <time name="total">    2.07    2.07</time>
   <dipole>
    <v name="dipole">      0.00000000       0.00000000       0.01102973 </v>
    <i name="Tr[quadrupol]">  -8084.58293997 </i>
    <i name="Echarged">      0.00000000 </i>
    <i name="Edipol_quadrupol">      0.00000000 </i>
    <i name="Eion">      0.00000000 </i>
   </dipole>
   <energy>
    <i name="e_fr_energy">   -479.64095797 </i>
    <i name="e_wo_entrp">   -479.56840058 </i>
    <i name="e_0_energy">   -479.60467927 </i>
   </energy>
  </scstep>
  <scstep>
   <time name="dav">    1.98    1.98</time>
   <time name="total">    2.07    2.07</time>
   <dipole>
    <v name="dipole">      0.00000000       0.00000000       0.01053271 </v>
    <i name="Tr[quadrupol]">  -8084.59463372 </i>
    <i name="Echarged">      0.00000000 </i>
    <i name="Edipol_quadrupol">      0.00000000 </i>
    <i name="Eion">      0.00000000 </i>
   </dipole>
   <energy>
    <i name="e_fr_energy">   -479.61591166 </i>
    <i name="e_wo_entrp">   -479.54219033 </i>
    <i name="e_0_energy">   -479.57905100 </i>
   </energy>
  </scstep>
  <scstep>
   <time name="dav">    1.93    1.93</time>
   <time name="total">    2.01    2.01</time>
   <dipole>
    <v name="dipole">      0.00000000       0.00000000       0.01162327 </v>
    <i name="Tr[quadrupol]">  -8084.69940966 </i>
    <i name="Echarged">      0.00000000 </i>
    <i name="Edipol_quadrupol">      0.00000000 </i>
    <i name="Eion">      0.00000000 </i>
   </dipole>
   <energy>
    <i name="e_fr_energy">   -478.75511472 </i>
    <i name="e_wo_entrp">   -478.69459024 </i>
    <i name="e_0_energy">   -478.72485248 </i>
   </energy>
  </scstep>
  <scstep>
   <time name="dav">    1.95    1.95</time>
   <time name="total">    2.03    2.03</time>
   <dipole>
    <v name="dipole">      0.00000000       0.00000000       0.01156926 </v>
    <i name="Tr[quadrupol]">  -8084.99247849 </i>
    <i name="Echarged">      0.00000000 </i>
    <i name="Edipol_quadrupol">      0.00000000 </i>
    <i name="Eion">      0.00000000 </i>
   </dipole>
   <energy>
    <i name="e_fr_energy">   -477.42890416 </i>
    <i name="e_wo_entrp">   -477.36840810 </i>
    <i name="e_0_energy">   -477.39865613 </i>
   </energy>
  </scstep>
  <scstep>
   <time name="dav">    2.03    2.03</time>
   <time name="total">    2.11    2.11</time>
   <dipole>
    <v name="dipole">      0.00000000       0.00000000       0.01174574 </v>
    <i name="Tr[quadrupol]">  -8085.55789917 </i>
    <i name="Echarged">      0.00000000 </i>
    <i name="Edipol_quadrupol">      0.00000000 </i>
    <i name="Eion">      0.00000000 </i>
   </dipole>
   <energy>
    <i name="e_fr_energy">   -475.49483588 </i>
    <i name="e_wo_entrp">   -475.43007771 </i>
    <i name="e_0_energy">   -475.46245679 </i>
   </energy>
  </scstep>
  <scstep>
   <time name="dav">    2.08    2.08</time>
   <time name="total">    2.16    2.16</time>
   <dipole>
    <v name="dipole">      0.00000000       0.00000000       0.00673586 </v>
    <i name="Tr[quadrupol]">  -8085.92126911 </i>
    <i name="Echarged">      0.00000000 </i>
    <i name="Edipol_quadrupol">      0.00000000 </i>
    <i name="Eion">      0.00000000 </i>
   </dipole>
   <energy>
    <i name="e_fr_energy">   -474.59456569 </i>
    <i name="e_wo_entrp">   -474.52509177 </i>
    <i name="e_0_energy">   -474.55982873 </i>
   </energy>
  </scstep>
  <scstep>
   <time name="dav">    1.61    1.61</time>
   <time name="total">    1.69    1.69</time>
   <dipole>
    <v name="dipole">      0.00000000       0.00000000       0.00641526 </v>
    <i name="Tr[quadrupol]">  -8085.93186716 </i>
    <i name="Echarged">      0.00000000 </i>
    <i name="Edipol_quadrupol">      0.00000000 </i>
    <i name="Eion">      0.00000000 </i>
   </dipole>
   <energy>
    <i name="e_fr_energy">   -474.60343828 </i>
    <i name="e_wo_entrp">   -474.53427033 </i>
    <i name="e_0_energy">   -474.56885430 </i>
   </energy>
  </scstep>
  <scstep>
   <time name="dav">    2.26    2.26</time>
   <time name="total">    2.34    2.34</time>
   <dipole>
    <v name="dipole">      0.00000000       0.00000000       0.00607142 </v>
    <i name="Tr[quadrupol]">  -8085.97070942 </i>
    <i name="Echarged">      0.00000000 </i>
    <i name="Edipol_quadrupol">      0.00000000 </i>
    <i name="Eion">      0.00000000 </i>
   </dipole>
   <energy>
    <i name="e_fr_energy">   -474.50268104 </i>
    <i name="e_wo_entrp">   -474.43301133 </i>
    <i name="e_0_energy">   -474.46784619 </i>
   </energy>
  </scstep>
  <scstep>
   <time name="dav">    2.07    2.07</time>
   <time name="total">    2.16    2.17</time>
   <dipole>
    <v name="dipole">      0.00000000       0.00000000       0.00623387 </v>
    <i name="Tr[quadrupol]">  -8085.97818163 </i>
    <i name="Echarged">      0.00000000 </i>
    <i name="Edipol_quadrupol">      0.00000000 </i>
    <i name="Eion">      0.00000000 </i>
   </dipole>
   <energy>
    <i name="e_fr_energy">   -474.47988101 </i>
    <i name="e_wo_entrp">   -474.41003382 </i>
    <i name="e_0_energy">   -474.44495742 </i>
   </energy>
  </scstep>
  <scstep>
   <time name="dav">    1.99    1.99</time>
   <time name="total">    2.07    2.07</time>
   <dipole>
    <v name="dipole">      0.00000000       0.00000000       0.00524080 </v>
    <i name="Tr[quadrupol]">  -8086.02547836 </i>
    <i name="Echarged">      0.00000000 </i>
    <i name="Edipol_quadrupol">      0.00000000 </i>
    <i name="Eion">      0.00000000 </i>
   </dipole>
   <energy>
    <i name="e_fr_energy">   -474.35294188 </i>
    <i name="e_wo_entrp">   -474.28234522 </i>
    <i name="e_0_energy">   -474.31764355 </i>
   </energy>
  </scstep>
  <scstep>
   <time name="dav">    2.05    2.05</time>
   <time name="total">    2.13    2.13</time>
   <dipole>
    <v name="dipole">      0.00000000       0.00000000       0.00464298 </v>
    <i name="Tr[quadrupol]">  -8086.03836450 </i>
    <i name="Echarged">      0.00000000 </i>
    <i name="Edipol_quadrupol">      0.00000000 </i>
    <i name="Eion">      0.00000000 </i>
   </dipole>
   <energy>
    <i name="e_fr_energy">   -474.30740040 </i>
    <i name="e_wo_entrp">   -474.23670695 </i>
    <i name="e_0_energy">   -474.27205367 </i>
   </energy>
  </scstep>
  <scstep>
   <time name="dav">    2.05    2.05</time>
   <time name="total">    2.14    2.14</time>
   <dipole>
    <v name="dipole">      0.00000000       0.00000000       0.00446941 </v>
    <i name="Tr[quadrupol]">  -8086.12179292 </i>
    <i name="Echarged">      0.00000000 </i>
    <i name="Edipol_quadrupol">      0.00000000 </i>
    <i name="Eion">      0.00000000 </i>
   </dipole>
   <energy>
    <i name="e_fr_energy">   -474.20170469 </i>
    <i name="e_wo_entrp">   -474.13043468 </i>
    <i name="e_0_energy">   -474.16606968 </i>
   </energy>
  </scstep>
  <scstep>
   <time name="dav">    1.97    1.97</time>
   <time name="total">    2.05    2.05</time>
   <dipole>
    <v name="dipole">      0.00000000       0.00000000       0.00041815 </v>
    <i name="Tr[quadrupol]">  -8086.46348722 </i>
    <i name="Echarged">      0.00000000 </i>
    <i name="Edipol_quadrupol">      0.00000000 </i>
    <i name="Eion">      0.00000000 </i>
   </dipole>
   <energy>
    <i name="e_fr_energy">   -473.98279718 </i>
    <i name="e_wo_entrp">   -473.90595156 </i>
    <i name="e_0_energy">   -473.94437437 </i>
   </energy>
  </scstep>
  <scstep>
   <time name="dav">    1.63    1.63</time>
   <time name="total">    1.71    1.71</time>
   <dipole>
    <v name="dipole">      0.00000000       0.00000000       0.00128883 </v>
    <i name="Tr[quadrupol]">  -8086.46771579 </i>
    <i name="Echarged">      0.00000000 </i>
    <i name="Edipol_quadrupol">      0.00000000 </i>
    <i name="Eion">      0.00000000 </i>
   </dipole>
   <energy>
    <i name="e_fr_energy">   -473.97671507 </i>
    <i name="e_wo_entrp">   -473.90000094 </i>
    <i name="e_0_energy">   -473.93835800 </i>
   </energy>
  </scstep>
  <scstep>
   <time name="dav">    1.98    1.98</time>
   <time name="total">    2.06    2.06</time>
   <dipole>
    <v name="dipole">      0.00000000       0.00000000       0.00010244 </v>
    <i name="Tr[quadrupol]">  -8086.40543856 </i>
    <i name="Echarged">      0.00000000 </i>
    <i name="Edipol_quadrupol">      0.00000000 </i>
    <i name="Eion">      0.00000000 </i>
   </dipole>
   <energy>
    <i name="e_fr_energy">   -473.96410507 </i>
    <i name="e_wo_entrp">   -473.88863209 </i>
    <i name="e_0_energy">   -473.92636858 </i>
   </energy>
  </scstep>
  <scstep>
   <time name="dav">    1.98    1.98</time>
   <time name="total">    2.06    2.06</time>
   <dipole>
    <v name="dipole">      0.00000000       0.00000000      -0.00100393 </v>
    <i name="Tr[quadrupol]">  -8086.47322494 </i>
    <i name="Echarged">      0.00000000 </i>
    <i name="Edipol_quadrupol">      0.00000000 </i>
    <i name="Eion">      0.00000000 </i>
   </dipole>
   <energy>
    <i name="e_fr_energy">   -473.97877142 </i>
    <i name="e_wo_entrp">   -473.88624703 </i>
    <i name="e_0_energy">   -473.93250922 </i>
   </energy>
  </scstep>
  <scstep>
   <time name="dav">    2.04    2.04</time>
   <time name="total">    2.12    2.12</time>
   <dipole>
    <v name="dipole">      0.00000000       0.00000000      -0.00143089 </v>
    <i name="Tr[quadrupol]">  -8086.47694579 </i>
    <i name="Echarged">      0.00000000 </i>
    <i name="Edipol_quadrupol">      0.00000000 </i>
    <i name="Eion">      0.00000000 </i>
   </dipole>
   <energy>
    <i name="e_fr_energy">   -473.96642769 </i>
    <i name="e_wo_entrp">   -473.88972932 </i>
    <i name="e_0_energy">   -473.92807851 </i>
   </energy>
  </scstep>
  <scstep>
   <time name="dav">    2.06    2.06</time>
   <time name="total">    2.14    2.14</time>
   <dipole>
    <v name="dipole">      0.00000000       0.00000000      -0.00206918 </v>
    <i name="Tr[quadrupol]">  -8086.47741387 </i>
    <i name="Echarged">      0.00000000 </i>
    <i name="Edipol_quadrupol">      0.00000000 </i>
    <i name="Eion">      0.00000000 </i>
   </dipole>
   <energy>
    <i name="e_fr_energy">   -473.96344481 </i>
    <i name="e_wo_entrp">   -473.88724727 </i>
    <i name="e_0_energy">   -473.92534604 </i>
   </energy>
  </scstep>
  <scstep>
   <time name="dav">    1.97    1.97</time>
   <time name="total">    2.05    2.05</time>
   <dipole>
    <v name="dipole">      0.00000000       0.00000000      -0.00362233 </v>
    <i name="Tr[quadrupol]">  -8086.51367040 </i>
    <i name="Echarged">      0.00000000 </i>
    <i name="Edipol_quadrupol">      0.00000000 </i>
    <i name="Eion">      0.00000000 </i>
   </dipole>
   <energy>
    <i name="e_fr_energy">   -473.96768964 </i>
    <i name="e_wo_entrp">   -473.89166562 </i>
    <i name="e_0_energy">   -473.92967763 </i>
   </energy>
  </scstep>
  <scstep>
   <time name="dav">    1.94    1.94</time>
   <time name="total">    2.04    2.05</time>
   <dipole>
    <v name="dipole">      0.00000000       0.00000000      -0.00450870 </v>
    <i name="Tr[quadrupol]">  -8086.42502571 </i>
    <i name="Echarged">      0.00000000 </i>
    <i name="Edipol_quadrupol">      0.00000000 </i>
    <i name="Eion">      0.00000000 </i>
   </dipole>
   <energy>
    <i name="e_fr_energy">   -473.93628327 </i>
    <i name="e_wo_entrp">   -473.86177742 </i>
    <i name="e_0_energy">   -473.89903035 </i>
   </energy>
  </scstep>
  <scstep>
   <time name="dav">    1.88    1.88</time>
   <time name="total">    1.96    1.96</time>
   <dipole>
    <v name="dipole">      0.00000000       0.00000000      -0.00632254 </v>
    <i name="Tr[quadrupol]">  -8086.51881352 </i>
    <i name="Echarged">      0.00000000 </i>
    <i name="Edipol_quadrupol">      0.00000000 </i>
    <i name="Eion">      0.00000000 </i>
   </dipole>
   <energy>
    <i name="e_fr_energy">   -473.93487514 </i>
    <i name="e_wo_entrp">   -473.86003404 </i>
    <i name="e_0_energy">   -473.89745459 </i>
   </energy>
  </scstep>
  <scstep>
   <time name="dav">    2.09    2.09</time>
   <time name="total">    2.18    2.18</time>
   <dipole>
    <v name="dipole">      0.00000000       0.00000000      -0.00686439 </v>
    <i name="Tr[quadrupol]">  -8086.54763118 </i>
    <i name="Echarged">      0.00000000 </i>
    <i name="Edipol_quadrupol">      0.00000000 </i>
    <i name="Eion">      0.00000000 </i>
   </dipole>
   <energy>
    <i name="e_fr_energy">   -473.93327381 </i>
    <i name="e_wo_entrp">   -473.85846360 </i>
    <i name="e_0_energy">   -473.89586870 </i>
   </energy>
  </scstep>
  <scstep>
   <time name="dav">    2.04    2.04</time>
   <time name="total">    2.13    2.13</time>
   <dipole>
    <v name="dipole">      0.00000000       0.00000000      -0.00862813 </v>
    <i name="Tr[quadrupol]">  -8086.63698059 </i>
    <i name="Echarged">      0.00000000 </i>
    <i name="Edipol_quadrupol">      0.00000000 </i>
    <i name="Eion">      0.00000000 </i>
   </dipole>
   <energy>
    <i name="e_fr_energy">   -473.93474921 </i>
    <i name="e_wo_entrp">   -473.85911617 </i>
    <i name="e_0_energy">   -473.89693269 </i>
   </energy>
  </scstep>
  <scstep>
   <time name="dav">    1.90    1.90</time>
   <time name="total">    1.99    2.00</time>
   <dipole>
    <v name="dipole">      0.00000000       0.00000000      -0.01437933 </v>
    <i name="Tr[quadrupol]">  -8086.87985928 </i>
    <i name="Echarged">      0.00000000 </i>
    <i name="Edipol_quadrupol">      0.00000000 </i>
    <i name="Eion">      0.00000000 </i>
   </dipole>
   <energy>
    <i name="e_fr_energy">   -473.94023425 </i>
    <i name="e_wo_entrp">   -473.86373248 </i>
    <i name="e_0_energy">   -473.90198337 </i>
   </energy>
  </scstep>
  <scstep>
   <time name="dav">    2.02    2.02</time>
   <time name="total">    2.10    2.10</time>
   <dipole>
    <v name="dipole">      0.00000000       0.00000000      -0.01642311 </v>
    <i name="Tr[quadrupol]">  -8087.02775998 </i>
    <i name="Echarged">      0.00000000 </i>
    <i name="Edipol_quadrupol">      0.00000000 </i>
    <i name="Eion">      0.00000000 </i>
   </dipole>
   <energy>
    <i name="e_fr_energy">   -475.28142296 </i>
    <i name="e_wo_entrp">   -475.21396186 </i>
    <i name="e_0_energy">   -475.24769241 </i>
   </energy>
  </scstep>
  <scstep>
   <time name="dav">    2.02    2.02</time>
   <time name="total">    2.10    2.10</time>
   <dipole>
    <v name="dipole">      0.00000000       0.00000000      -0.01222769 </v>
    <i name="Tr[quadrupol]">  -8086.92957629 </i>
    <i name="Echarged">      0.00000000 </i>
    <i name="Edipol_quadrupol">      0.00000000 </i>
    <i name="Eion">      0.00000000 </i>
   </dipole>
   <energy>
    <i name="e_fr_energy">   -473.80284962 </i>
    <i name="e_wo_entrp">   -473.69745066 </i>
    <i name="e_0_energy">   -473.75015014 </i>
   </energy>
  </scstep>
  <scstep>
   <time name="dav">    1.71    1.71</time>
   <time name="total">    1.79    1.79</time>
   <dipole>
    <v name="dipole">      0.00000000       0.00000000      -0.01381448 </v>
    <i name="Tr[quadrupol]">  -8086.90993799 </i>
    <i name="Echarged">      0.00000000 </i>
    <i name="Edipol_quadrupol">      0.00000000 </i>
    <i name="Eion">      0.00000000 </i>
   </dipole>
   <energy>
    <i name="e_fr_energy">   -473.94560314 </i>
    <i name="e_wo_entrp">   -473.81572683 </i>
    <i name="e_0_energy">   -473.88066498 </i>
   </energy>
  </scstep>
  <scstep>
   <time name="dav">    1.76    1.76</time>
   <time name="total">    1.85    1.85</time>
   <dipole>
    <v name="dipole">      0.00000000       0.00000000      -0.01468385 </v>
    <i name="Tr[quadrupol]">  -8086.93269830 </i>
    <i name="Echarged">      0.00000000 </i>
    <i name="Edipol_quadrupol">      0.00000000 </i>
    <i name="Eion">      0.00000000 </i>
   </dipole>
   <energy>
    <i name="e_fr_energy">   -473.96880900 </i>
    <i name="e_wo_entrp">   -473.83526574 </i>
    <i name="e_0_energy">   -473.90203737 </i>
   </energy>
  </scstep>
  <scstep>
   <time name="dav">    1.99    2.00</time>
   <time name="total">    2.07    2.09</time>
   <dipole>
    <v name="dipole">      0.00000000       0.00000000      -0.01588133 </v>
    <i name="Tr[quadrupol]">  -8086.99461535 </i>
    <i name="Echarged">      0.00000000 </i>
    <i name="Edipol_quadrupol">      0.00000000 </i>
    <i name="Eion">      0.00000000 </i>
   </dipole>
   <energy>
    <i name="e_fr_energy">   -473.94124831 </i>
    <i name="e_wo_entrp">   -473.85315760 </i>
    <i name="e_0_energy">   -473.89720296 </i>
   </energy>
  </scstep>
  <scstep>
   <time name="dav">    2.09    2.09</time>
   <time name="total">    2.17    2.17</time>
   <dipole>
    <v name="dipole">      0.00000000       0.00000000      -0.00742493 </v>
    <i name="Tr[quadrupol]">  -8086.79638058 </i>
    <i name="Echarged">      0.00000000 </i>
    <i name="Edipol_quadrupol">      0.00000000 </i>
    <i name="Eion">      0.00000000 </i>
   </dipole>
   <energy>
    <i name="e_fr_energy">   -473.91067616 </i>
    <i name="e_wo_entrp">   -473.83615381 </i>
    <i name="e_0_energy">   -473.87341499 </i>
   </energy>
  </scstep>
  <scstep>
   <time name="dav">    1.62    1.62</time>
   <time name="total">    1.70    1.70</time>
   <dipole>
    <v name="dipole">      0.00000000       0.00000000      -0.00645876 </v>
    <i name="Tr[quadrupol]">  -8086.81493952 </i>
    <i name="Echarged">      0.00000000 </i>
    <i name="Edipol_quadrupol">      0.00000000 </i>
    <i name="Eion">      0.00000000 </i>
   </dipole>
   <energy>
    <i name="e_fr_energy">   -473.91116204 </i>
    <i name="e_wo_entrp">   -473.83683019 </i>
    <i name="e_0_energy">   -473.87399612 </i>
   </energy>
  </scstep>
  <scstep>
   <time name="dav">    2.14    2.14</time>
   <time name="total">    2.22    2.22</time>
   <dipole>
    <v name="dipole">      0.00000000       0.00000000      -0.00686853 </v>
    <i name="Tr[quadrupol]">  -8086.89361376 </i>
    <i name="Echarged">      0.00000000 </i>
    <i name="Edipol_quadrupol">      0.00000000 </i>
    <i name="Eion">      0.00000000 </i>
   </dipole>
   <energy>
    <i name="e_fr_energy">   -473.91712129 </i>
    <i name="e_wo_entrp">   -473.84307559 </i>
    <i name="e_0_energy">   -473.88009844 </i>
   </energy>
  </scstep>
  <scstep>
   <time name="dav">    1.94    1.94</time>
   <time name="total">    2.03    2.03</time>
   <dipole>
    <v name="dipole">      0.00000000       0.00000000       0.02808408 </v>
    <i name="Tr[quadrupol]">  -8087.16364007 </i>
    <i name="Echarged">      0.00000000 </i>
    <i name="Edipol_quadrupol">      0.00000000 </i>
    <i name="Eion">      0.00000000 </i>
   </dipole>
   <energy>
    <i name="e_fr_energy">   -473.93601114 </i>
    <i name="e_wo_entrp">   -473.86282903 </i>
    <i name="e_0_energy">   -473.89942008 </i>
   </energy>
  </scstep>
  <scstep>
   <time name="dav">    2.03    2.03</time>
   <time name="total">    2.11    2.11</time>
   <dipole>
    <v name="dipole">      0.00000000       0.00000000      -0.02253409 </v>
    <i name="Tr[quadrupol]">  -8087.26537339 </i>
    <i name="Echarged">      0.00000000 </i>
    <i name="Edipol_quadrupol">      0.00000000 </i>
    <i name="Eion">      0.00000000 </i>
   </dipole>
   <energy>
    <i name="e_fr_energy">   -473.95776320 </i>
    <i name="e_wo_entrp">   -473.88529016 </i>
    <i name="e_0_energy">   -473.92152668 </i>
   </energy>
  </scstep>
  <scstep>
   <time name="dav">    2.05    2.05</time>
   <time name="total">    2.13    2.13</time>
   <dipole>
    <v name="dipole">      0.00000000       0.00000000      -0.03896678 </v>
    <i name="Tr[quadrupol]">  -8087.42098179 </i>
    <i name="Echarged">      0.00000000 </i>
    <i name="Edipol_quadrupol">      0.00000000 </i>
    <i name="Eion">      0.00000000 </i>
   </dipole>
   <energy>
    <i name="e_fr_energy">   -474.00101911 </i>
    <i name="e_wo_entrp">   -473.92942766 </i>
    <i name="e_0_energy">   -473.96522339 </i>
   </energy>
  </scstep>
  <scstep>
   <time name="dav">    2.02    2.02</time>
   <time name="total">    2.10    2.10</time>
   <dipole>
    <v name="dipole">      0.00000000       0.00000000      -0.00261469 </v>
    <i name="Tr[quadrupol]">  -8087.40648221 </i>
    <i name="Echarged">      0.00000000 </i>
    <i name="Edipol_quadrupol">      0.00000000 </i>
    <i name="Eion">      0.00000000 </i>
   </dipole>
   <energy>
    <i name="e_fr_energy">   -474.04600846 </i>
    <i name="e_wo_entrp">   -473.97570399 </i>
    <i name="e_0_energy">   -474.01085623 </i>
   </energy>
  </scstep>
  <scstep>
   <time name="dav">    2.01    2.01</time>
   <time name="total">    2.12    2.12</time>
   <dipole>
    <v name="dipole">      0.00000000       0.00000000       0.00839161 </v>
    <i name="Tr[quadrupol]">  -8087.47990952 </i>
    <i name="Echarged">      0.00000000 </i>
    <i name="Edipol_quadrupol">      0.00000000 </i>
    <i name="Eion">      0.00000000 </i>
   </dipole>
   <energy>
    <i name="e_fr_energy">   -474.00505979 </i>
    <i name="e_wo_entrp">   -473.93477377 </i>
    <i name="e_0_energy">   -473.96991678 </i>
   </energy>
  </scstep>
  <scstep>
   <time name="dav">    2.04    2.04</time>
   <time name="total">    2.12    2.12</time>
   <dipole>
    <v name="dipole">      0.00000000       0.00000000       0.00955862 </v>
    <i name="Tr[quadrupol]">  -8087.52573498 </i>
    <i name="Echarged">      0.00000000 </i>
    <i name="Edipol_quadrupol">      0.00000000 </i>
    <i name="Eion">      0.00000000 </i>
   </dipole>
   <energy>
    <i name="e_fr_energy">   -473.97562708 </i>
    <i name="e_wo_entrp">   -473.90490610 </i>
    <i name="e_0_energy">   -473.94026659 </i>
   </energy>
  </scstep>
  <scstep>
   <time name="dav">    1.90    1.90</time>
   <time name="total">    1.98    2.00</time>
   <dipole>
    <v name="dipole">      0.00000000       0.00000000       0.00797857 </v>
    <i name="Tr[quadrupol]">  -8087.55164750 </i>
    <i name="Echarged">      0.00000000 </i>
    <i name="Edipol_quadrupol">      0.00000000 </i>
    <i name="Eion">      0.00000000 </i>
   </dipole>
   <energy>
    <i name="e_fr_energy">   -473.97176663 </i>
    <i name="e_wo_entrp">   -473.90098460 </i>
    <i name="e_0_energy">   -473.93637562 </i>
   </energy>
  </scstep>
  <scstep>
   <time name="dav">    2.02    2.02</time>
   <time name="total">    2.10    2.10</time>
   <dipole>
    <v name="dipole">      0.00000000       0.00000000       0.00114469 </v>
    <i name="Tr[quadrupol]">  -8087.54370920 </i>
    <i name="Echarged">      0.00000000 </i>
    <i name="Edipol_quadrupol">      0.00000000 </i>
    <i name="Eion">      0.00000000 </i>
   </dipole>
   <energy>
    <i name="e_fr_energy">   -473.94572534 </i>
    <i name="e_wo_entrp">   -473.87457973 </i>
    <i name="e_0_energy">   -473.91015253 </i>
   </energy>
  </scstep>
  <scstep>
   <time name="dav">    2.04    2.04</time>
   <time name="total">    2.12    2.12</time>
   <dipole>
    <v name="dipole">      0.00000000       0.00000000      -0.00175496 </v>
    <i name="Tr[quadrupol]">  -8087.55512695 </i>
    <i name="Echarged">      0.00000000 </i>
    <i name="Edipol_quadrupol">      0.00000000 </i>
    <i name="Eion">      0.00000000 </i>
   </dipole>
   <energy>
    <i name="e_fr_energy">   -473.93309912 </i>
    <i name="e_wo_entrp">   -473.86187972 </i>
    <i name="e_0_energy">   -473.89748942 </i>
   </energy>
  </scstep>
  <scstep>
   <time name="dav">    1.59    1.59</time>
   <time name="total">    1.67    1.67</time>
   <dipole>
    <v name="dipole">      0.00000000       0.00000000      -0.00178604 </v>
    <i name="Tr[quadrupol]">  -8087.55366953 </i>
    <i name="Echarged">      0.00000000 </i>
    <i name="Edipol_quadrupol">      0.00000000 </i>
    <i name="Eion">      0.00000000 </i>
   </dipole>
   <energy>
    <i name="e_fr_energy">   -473.93274722 </i>
    <i name="e_wo_entrp">   -473.86156021 </i>
    <i name="e_0_energy">   -473.89715371 </i>
   </energy>
  </scstep>
  <scstep>
   <time name="dav">    1.64    1.64</time>
   <time name="total">    1.72    1.72</time>
   <dipole>
    <v name="dipole">      0.00000000       0.00000000      -0.00232661 </v>
    <i name="Tr[quadrupol]">  -8087.56112562 </i>
    <i name="Echarged">      0.00000000 </i>
    <i name="Edipol_quadrupol">      0.00000000 </i>
    <i name="Eion">      0.00000000 </i>
   </dipole>
   <energy>
    <i name="e_fr_energy">   -473.93667489 </i>
    <i name="e_wo_entrp">   -473.86569681 </i>
    <i name="e_0_energy">   -473.90118585 </i>
   </energy>
  </scstep>
  <scstep>
   <time name="dav">    1.66    1.66</time>
   <time name="total">    1.74    1.74</time>
   <dipole>
    <v name="dipole">      0.00000000       0.00000000      -0.00281556 </v>
    <i name="Tr[quadrupol]">  -8087.58989633 </i>
    <i name="Echarged">      0.00000000 </i>
    <i name="Edipol_quadrupol">      0.00000000 </i>
    <i name="Eion">      0.00000000 </i>
   </dipole>
   <energy>
    <i name="e_fr_energy">   -473.93346855 </i>
    <i name="e_wo_entrp">   -473.86271202 </i>
    <i name="e_0_energy">   -473.89809028 </i>
   </energy>
  </scstep>
  <scstep>
   <time name="dav">    1.73    1.73</time>
   <time name="total">    1.82    1.82</time>
   <dipole>
    <v name="dipole">      0.00000000       0.00000000      -0.00796489 </v>
    <i name="Tr[quadrupol]">  -8087.56830976 </i>
    <i name="Echarged">      0.00000000 </i>
    <i name="Edipol_quadrupol">      0.00000000 </i>
    <i name="Eion">      0.00000000 </i>
   </dipole>
   <energy>
    <i name="e_fr_energy">   -473.93922232 </i>
    <i name="e_wo_entrp">   -473.86914358 </i>
    <i name="e_0_energy">   -473.90418295 </i>
   </energy>
  </scstep>
  <scstep>
   <time name="dav">    1.93    1.93</time>
   <time name="total">    2.01    2.01</time>
   <dipole>
    <v name="dipole">      0.00000000       0.00000000      -0.01027547 </v>
    <i name="Tr[quadrupol]">  -8087.58807877 </i>
    <i name="Echarged">      0.00000000 </i>
    <i name="Edipol_quadrupol">      0.00000000 </i>
    <i name="Eion">      0.00000000 </i>
   </dipole>
   <energy>
    <i name="e_fr_energy">   -473.93433991 </i>
    <i name="e_wo_entrp">   -473.86415813 </i>
    <i name="e_0_energy">   -473.89924902 </i>
   </energy>
  </scstep>
  <scstep>
   <time name="dav">    1.61    1.61</time>
   <time name="total">    1.69    1.69</time>
   <dipole>
    <v name="dipole">      0.00000000       0.00000000      -0.01092024 </v>
    <i name="Tr[quadrupol]">  -8087.59196367 </i>
    <i name="Echarged">      0.00000000 </i>
    <i name="Edipol_quadrupol">      0.00000000 </i>
    <i name="Eion">      0.00000000 </i>
   </dipole>
   <energy>
    <i name="e_fr_energy">   -473.93200209 </i>
    <i name="e_wo_entrp">   -473.86172554 </i>
    <i name="e_0_energy">   -473.89686382 </i>
   </energy>
  </scstep>
  <scstep>
   <time name="dav">    1.42    1.42</time>
   <time name="total">    1.50    1.50</time>
   <dipole>
    <v name="dipole">      0.00000000       0.00000000      -0.01190123 </v>
    <i name="Tr[quadrupol]">  -8087.58468525 </i>
    <i name="Echarged">      0.00000000 </i>
    <i name="Edipol_quadrupol">      0.00000000 </i>
    <i name="Eion">      0.00000000 </i>
   </dipole>
   <energy>
    <i name="e_fr_energy">   -473.92768688 </i>
    <i name="e_wo_entrp">   -473.85731468 </i>
    <i name="e_0_energy">   -473.89250078 </i>
   </energy>
  </scstep>
  <scstep>
   <time name="dav">    1.94    1.94</time>
   <time name="total">    2.02    2.02</time>
   <dipole>
    <v name="dipole">      0.00000000       0.00000000      -0.01029064 </v>
    <i name="Tr[quadrupol]">  -8087.58227388 </i>
    <i name="Echarged">      0.00000000 </i>
    <i name="Edipol_quadrupol">      0.00000000 </i>
    <i name="Eion">      0.00000000 </i>
   </dipole>
   <energy>
    <i name="e_fr_energy">   -473.91329456 </i>
    <i name="e_wo_entrp">   -473.84258759 </i>
    <i name="e_0_energy">   -473.87794108 </i>
   </energy>
  </scstep>
  <scstep>
   <time name="dav">    2.05    2.05</time>
   <time name="total">    2.13    2.13</time>
   <dipole>
    <v name="dipole">      0.00000000       0.00000000      -0.00918988 </v>
    <i name="Tr[quadrupol]">  -8087.57497747 </i>
    <i name="Echarged">      0.00000000 </i>
    <i name="Edipol_quadrupol">      0.00000000 </i>
    <i name="Eion">      0.00000000 </i>
   </dipole>
   <energy>
    <i name="e_fr_energy">   -473.90269171 </i>
    <i name="e_wo_entrp">   -473.83170083 </i>
    <i name="e_0_energy">   -473.86719627 </i>
   </energy>
  </scstep>
  <scstep>
   <time name="dav">    1.99    1.99</time>
   <time name="total">    2.06    2.07</time>
   <dipole>
    <v name="dipole">      0.00000000       0.00000000      -0.00789374 </v>
    <i name="Tr[quadrupol]">  -8087.56595929 </i>
    <i name="Echarged">      0.00000000 </i>
    <i name="Edipol_quadrupol">      0.00000000 </i>
    <i name="Eion">      0.00000000 </i>
   </dipole>
   <energy>
    <i name="e_fr_energy">   -473.90071480 </i>
    <i name="e_wo_entrp">   -473.82968825 </i>
[...]
       <r>    1.9385    0.0000 </r>
       <r>    1.9668    0.0000 </r>
       <r>    1.9831    0.0000 </r>
       <r>    2.0386    0.0000 </r>
       <r>    2.0601    0.0000 </r>
       <r>    2.1037    0.0000 </r>
       <r>    2.3737    0.0000 </r>
       <r>    2.3912    0.0000 </r>
       <r>    2.4176    0.0000 </r>
       <r>    2.4342    0.0000 </r>
       <r>    2.4496    0.0000 </r>
       <r>    2.5785    0.0000 </r>
      </set>
     </set>
    </set>
   </array>
  </eigenvalues>
  <separator name="orbital magnetization" >
   <v name="MAGDIPOLOUT">      0.00000000      0.00000000      0.00000000</v>
  </separator>
  <dos>
   <i name="efermi">     -1.90147276 </i>
   <total>
    <array>
     <dimension dim="1">gridpoints</dimension>
     <dimension dim="2">spin</dimension>
     <field>energy</field>
     <field>total</field>
     <field>integrated</field>
     <set>
      <set comment="spin 1">
       <r>   -27.5060     0.0000     0.0000 </r>
       <r>   -27.4008     0.0000     0.0000 </r>
       <r>   -27.2957     0.0000     0.0000 </r>
       <r>   -27.1906     0.0000     0.0000 </r>
       <r>   -27.0855     0.0000     0.0000 </r>
       <r>   -26.9803     0.0000     0.0000 </r>
       <r>   -26.8752     0.0000     0.0000 </r>
       <r>   -26.7701     0.0000     0.0000 </r>
       <r>   -26.6650     0.0000     0.0000 </r>
       <r>   -26.5598     0.0000     0.0000 </r>
       <r>   -26.4547     0.0000     0.0000 </r>
       <r>   -26.3496     0.0003     0.0000 </r>
       <r>   -26.2444     0.0624     0.0066 </r>
       <r>   -26.1393     2.1937     0.2372 </r>
       <r>   -26.0342    15.9839     1.9176 </r>
       <r>   -25.9291    28.5614     4.9201 </r>
       <r>   -25.8239    18.5031     6.8653 </r>
       <r>   -25.7188     9.2943     7.8424 </r>
       <r>   -25.6137     1.4632     7.9962 </r>
       <r>   -25.5086     0.0358     8.0000 </r>
       <r>   -25.4034     0.0001     8.0000 </r>
       <r>   -25.2983     0.0000     8.0000 </r>
       <r>   -25.1932     0.0000     8.0000 </r>
       <r>   -25.0880     0.0000     8.0000 </r>
       <r>   -24.9829     0.0000     8.0000 </r>
       <r>   -24.8778     0.0074     8.0008 </r>
       <r>   -24.7727     0.5002     8.0534 </r>
       <r>   -24.6675     6.2332     8.7087 </r>
       <r>   -24.5624    17.6417    10.5633 </r>
       <r>   -24.4573    16.7519    12.3244 </r>
       <r>   -24.3521    11.1952    13.5013 </r>
       <r>   -24.2470    10.3480    14.5891 </r>
       <r>   -24.1419     7.2830    15.3548 </r>
       <r>   -24.0368     1.3395    15.4956 </r>
       <r>   -23.9316     0.0846    15.5045 </r>
       <r>   -23.8265     2.2109    15.7369 </r>
       <r>   -23.7214    19.4284    17.7794 </r>
       <r>   -23.6163    37.4366    21.7150 </r>
       <r>   -23.5111    22.1088    24.0393 </r>
       <r>   -23.4060     4.2110    24.4819 </r>
       <r>   -23.3009     0.1710    24.4999 </r>
       <r>   -23.1957     0.0480    24.5050 </r>
       <r>   -23.0906     1.2127    24.6325 </r>
       <r>   -22.9855     6.3765    25.3028 </r>
       <r>   -22.8804     9.0967    26.2591 </r>
       <r>   -22.7752     7.4938    27.0469 </r>
       <r>   -22.6701    11.8216    28.2897 </r>
       <r>   -22.5650    13.2790    29.6857 </r>
       <r>   -22.4599    10.5806    30.7980 </r>
       <r>   -22.3547     8.0735    31.6467 </r>
       <r>   -22.2496     3.1052    31.9732 </r>
       <r>   -22.1445     0.2523    31.9997 </r>
       <r>   -22.0393     0.0085    32.0006 </r>
       <r>   -21.9342     0.4488    32.0478 </r>
       <r>   -21.8291     7.1943    32.8041 </r>
       <r>   -21.7240    29.1309    35.8665 </r>
       <r>   -21.6188    37.0763    39.7643 </r>
       <r>   -21.5137    25.0151    42.3940 </r>
       <r>   -21.4086    22.7927    44.7902 </r>
       <r>   -21.3035    23.2135    47.2305 </r>
       <r>   -21.1983     6.9324    47.9593 </r>
       <r>   -21.0932     0.4018    48.0016 </r>
       <r>   -20.9881     0.9871    48.1053 </r>
       <r>   -20.8829     9.4572    49.0995 </r>
       <r>   -20.7778    26.4425    51.8794 </r>
       <r>   -20.6727    29.0669    54.9351 </r>
       <r>   -20.5676     9.4425    55.9278 </r>
       <r>   -20.4624     0.6784    55.9991 </r>
       <r>   -20.3573     0.0159    56.0008 </r>
       <r>   -20.2522     0.5809    56.0618 </r>
       <r>   -20.1471     7.6230    56.8632 </r>
       <r>   -20.0419    21.0656    59.0778 </r>
       <r>   -19.9368    19.7822    61.1574 </r>
       <r>   -19.8317    14.5972    62.6920 </r>
       <r>   -19.7265     8.8138    63.6186 </r>
       <r>   -19.6214     3.1923    63.9542 </r>
       <r>   -19.5163     0.4257    63.9989 </r>
       <r>   -19.4112     0.0103    64.0000 </r>
       <r>   -19.3060     0.0000    64.0000 </r>
       <r>   -19.2009     0.0000    64.0000 </r>
       <r>   -19.0958     0.0000    64.0000 </r>
       <r>   -18.9907     0.0000    64.0000 </r>
       <r>   -18.8855     0.0000    64.0000 </r>
       <r>   -18.7804     0.0000    64.0000 </r>
       <r>   -18.6753     0.0000    64.0000 </r>
       <r>   -18.5701     0.0000    64.0000 </r>
       <r>   -18.4650     0.0000    64.0000 </r>
       <r>   -18.3599     0.0000    64.0000 </r>
       <r>   -18.2548     0.0000    64.0000 </r>
       <r>   -18.1496     0.0000    64.0000 </r>
       <r>   -18.0445     0.0000    64.0000 </r>
       <r>   -17.9394     0.0000    64.0000 </r>
       <r>   -17.8343     0.0000    64.0000 </r>
       <r>   -17.7291     0.0000    64.0000 </r>
       <r>   -17.6240     0.0001    64.0000 </r>
       <r>   -17.5189     0.0265    64.0028 </r>
       <r>   -17.4137     1.1539    64.1241 </r>
       <r>   -17.3086     8.9680    65.0669 </r>
       <r>   -17.2035    16.1050    66.7600 </r>
       <r>   -17.0984    12.8672    68.1127 </r>
       <r>   -16.9932    18.2496    70.0312 </r>
       <r>   -16.8881    18.4992    71.9760 </r>
       <r>   -16.7830    22.1688    74.3065 </r>
       <r>   -16.6779    21.6016    76.5774 </r>
       <r>   -16.5727    14.8165    78.1351 </r>
       <r>   -16.4676     7.3304    78.9057 </r>
       <r>   -16.3625     1.5780    79.0716 </r>
       <r>   -16.2573     4.2094    79.5141 </r>
       <r>   -16.1522     4.0126    79.9359 </r>
       <r>   -16.0471     0.5969    79.9987 </r>
       <r>   -15.9420     0.0126    80.0000 </r>
       <r>   -15.8368     0.0226    80.0024 </r>
       <r>   -15.7317     1.0627    80.1141 </r>
       <r>   -15.6266     8.9683    81.0569 </r>
       <r>   -15.5215    22.8226    83.4562 </r>
       <r>   -15.4163    26.0811    86.1980 </r>
       <r>   -15.3112    13.8131    87.6502 </r>
       <r>   -15.2061     3.1058    87.9767 </r>
       <r>   -15.1009     0.2345    88.0013 </r>
       <r>   -14.9958     0.6806    88.0729 </r>
       <r>   -14.8907     4.1838    88.5127 </r>
       <r>   -14.7856     4.0221    88.9355 </r>
       <r>   -14.6804     0.6025    88.9989 </r>
       <r>   -14.5753     0.1699    89.0167 </r>
       <r>   -14.4702     1.9296    89.2196 </r>
       <r>   -14.3650     5.1478    89.7608 </r>
       <r>   -14.2599     6.9713    90.4936 </r>
       <r>   -14.1548    10.0405    91.5492 </r>
       <r>   -14.0497    16.7789    93.3131 </r>
       <r>   -13.9445    21.9443    95.6200 </r>
       <r>   -13.8394    20.2312    97.7469 </r>
       <r>   -13.7343    23.8643   100.2557 </r>
       <r>   -13.6292    19.4167   102.2969 </r>
       <r>   -13.5240    15.1066   103.8850 </r>
       <r>   -13.4189    18.1447   105.7925 </r>
       <r>   -13.3138    22.9617   108.2064 </r>
       <r>   -13.2086    28.6337   111.2166 </r>
       <r>   -13.1035    23.0958   113.6446 </r>
       <r>   -12.9984     8.7514   114.5646 </r>
       <r>   -12.8933     4.2472   115.0111 </r>
       <r>   -12.7881     7.2559   115.7739 </r>
       <r>   -12.6830     9.2980   116.7514 </r>
       <r>   -12.5779     6.6704   117.4526 </r>
       <r>   -12.4728     5.4463   118.0252 </r>
       <r>   -12.3676     3.9503   118.4405 </r>
       <r>   -12.2625     0.5551   118.4988 </r>
       <r>   -12.1574     0.0238   118.5013 </r>
       <r>   -12.0522     0.8995   118.5959 </r>
       <r>   -11.9471     9.7583   119.6218 </r>
       <r>   -11.8420    20.3982   121.7662 </r>
       <r>   -11.7369    19.8663   123.8547 </r>
       <r>   -11.6317    28.6794   126.8697 </r>
       <r>   -11.5266    31.0997   130.1391 </r>
       <r>   -11.4215    29.0647   133.1946 </r>
       <r>   -11.3164    24.8994   135.8122 </r>
       <r>   -11.2112    12.0592   137.0800 </r>
       <r>   -11.1061     8.2781   137.9502 </r>
       <r>   -11.0010     6.0015   138.5811 </r>
       <r>   -10.8958     6.0263   139.2147 </r>
       <r>   -10.7907     7.4161   139.9943 </r>
       <r>   -10.6856     9.4033   140.9828 </r>
       <r>   -10.5805    10.8172   142.1200 </r>
       <r>   -10.4753    12.4185   143.4255 </r>
       <r>   -10.3702    19.6238   145.4886 </r>
       <r>   -10.2651    26.3593   148.2596 </r>
       <r>   -10.1600    25.5144   150.9419 </r>
       <r>   -10.0548    27.6545   153.8491 </r>
       <r>    -9.9497    23.5184   156.3216 </r>
       <r>    -9.8446    18.9187   158.3104 </r>
       <r>    -9.7394     9.9485   159.3563 </r>
       <r>    -9.6343     1.3378   159.4969 </r>
       <r>    -9.5292     0.0308   159.5002 </r>
       <r>    -9.4241     0.1678   159.5178 </r>
       <r>    -9.3189     2.8308   159.8154 </r>
       <r>    -9.2138    14.2266   161.3110 </r>
       <r>    -9.1087    29.1498   164.3755 </r>
       <r>    -9.0036    26.7755   167.1903 </r>
       <r>    -8.8984    11.0569   168.3527 </r>
       <r>    -8.7933     1.3710   168.4968 </r>
       <r>    -8.6882     0.1767   168.5154 </r>
       <r>    -8.5830     2.8137   168.8112 </r>
       <r>    -8.4779    12.1956   170.0933 </r>
       <r>    -8.3728    17.0553   171.8863 </r>
       <r>    -8.2677    14.8386   173.4462 </r>
       <r>    -8.1625    26.5616   176.2386 </r>
       <r>    -8.0574    29.8513   179.3767 </r>
       <r>    -7.9523    14.2234   180.8720 </r>
       <r>    -7.8472     7.8702   181.6994 </r>
       <r>    -7.7420     2.7318   181.9866 </r>
       <r>    -7.6369     1.9806   182.1948 </r>
       <r>    -7.5318     8.7421   183.1138 </r>
       <r>    -7.4266     8.6885   184.0272 </r>
       <r>    -7.3215    11.2449   185.2094 </r>
       <r>    -7.2164    28.6868   188.2251 </r>
       <r>    -7.1113    34.3026   191.8313 </r>
       <r>    -7.0061    20.8476   194.0229 </r>
       <r>    -6.9010    28.7582   197.0462 </r>
       <r>    -6.7959    43.0530   201.5722 </r>
       <r>    -6.6908    32.8220   205.0227 </r>
       <r>    -6.5856    10.5028   206.1269 </r>
       <r>    -6.4805    14.0543   207.6044 </r>
       <r>    -6.3754    20.7599   209.7868 </r>
       <r>    -6.2702    13.0742   211.1612 </r>
       <r>    -6.1651    10.3504   212.2494 </r>
       <r>    -6.0600    18.3769   214.1813 </r>
       <r>    -5.9549    12.0228   215.4452 </r>
       <r>    -5.8497     4.0413   215.8700 </r>
       <r>    -5.7446     1.3881   216.0160 </r>
       <r>    -5.6395     2.4896   216.2777 </r>
       <r>    -5.5344     8.9940   217.2232 </r>
       <r>    -5.4292    16.0597   218.9115 </r>
       <r>    -5.3241    17.4212   220.7430 </r>
       <r>    -5.2190    21.2870   222.9808 </r>
       <r>    -5.1138    27.5262   225.8746 </r>
       <r>    -5.0087    19.1464   227.8874 </r>
       <r>    -4.9036     8.9882   228.8323 </r>
       <r>    -4.7985     8.1199   229.6859 </r>
       <r>    -4.6933     9.1828   230.6513 </r>
       <r>    -4.5882    15.0002   232.2282 </r>
       <r>    -4.4831    26.0223   234.9639 </r>
       <r>    -4.3779    24.1064   237.4981 </r>
       <r>    -4.2728    17.1674   239.3029 </r>
       <r>    -4.1677    22.7905   241.6988 </r>
       <r>    -4.0626    25.7078   244.4014 </r>
       <r>    -3.9574    20.9885   246.6078 </r>
       <r>    -3.8523     9.2788   247.5833 </r>
       <r>    -3.7472     3.3564   247.9361 </r>
       <r>    -3.6421     2.1355   248.1606 </r>
       <r>    -3.5369    10.7601   249.2918 </r>
       <r>    -3.4318    17.5407   251.1358 </r>
       <r>    -3.3267    13.1712   252.5205 </r>
       <r>    -3.2215    28.1813   255.4831 </r>
       <r>    -3.1164    39.6800   259.6545 </r>
       <r>    -3.0113    19.5283   261.7075 </r>
       <r>    -2.9062     2.6918   261.9905 </r>
       <r>    -2.8010     0.0900   261.9999 </r>
       <r>    -2.6959     0.0006   262.0000 </r>
       <r>    -2.5908     0.0000   262.0000 </r>
       <r>    -2.4857     0.0001   262.0000 </r>
       <r>    -2.3805     0.0315   262.0033 </r>
       <r>    -2.2754     1.7621   262.1886 </r>
       <r>    -2.1703    14.2131   263.6827 </r>
       <r>    -2.0651    18.3341   265.6102 </r>
       <r>    -1.9600     6.8804   266.3335 </r>
       <r>    -1.8549    13.5516   267.7581 </r>
       <r>    -1.7498    14.7937   269.3133 </r>
       <r>    -1.6446    10.7463   270.4431 </r>
       <r>    -1.5395     8.7156   271.3593 </r>
       <r>    -1.4344     8.2735   272.2291 </r>
       <r>    -1.3293     9.0697   273.1826 </r>
       <r>    -1.2241     8.8584   274.1138 </r>
       <r>    -1.1190    11.2549   275.2970 </r>
       <r>    -1.0139    13.2769   276.6928 </r>
       <r>    -0.9087    24.1763   279.2344 </r>
       <r>    -0.8036    19.5315   281.2877 </r>
       <r>    -0.6985     6.2290   281.9425 </r>
       <r>    -0.5934     0.6709   282.0131 </r>
       <r>    -0.4882     1.6191   282.1833 </r>
       <r>    -0.3831     4.4820   282.6545 </r>
       <r>    -0.2780     9.2553   283.6274 </r>
       <r>    -0.1729    20.9647   285.8314 </r>
       <r>    -0.0677    19.8245   287.9155 </r>
       <r>     0.0374    11.6547   289.1407 </r>
       <r>     0.1425     6.9603   289.8725 </r>
       <r>     0.2477     1.1922   289.9978 </r>
       <r>     0.3528     0.5763   290.0584 </r>
       <r>     0.4579     4.7668   290.5595 </r>
       <r>     0.5630     9.2108   291.5278 </r>
       <r>     0.6682     4.1190   291.9608 </r>
       <r>     0.7733     0.4485   292.0080 </r>
       <r>     0.8784     1.6482   292.1812 </r>
       <r>     0.9835     6.6001   292.8751 </r>
       <r>     1.0887    10.8035   294.0108 </r>
       <r>     1.1938    14.9553   295.5830 </r>
       <r>     1.2989    16.8336   297.3527 </r>
       <r>     1.4041    15.3022   298.9614 </r>
       <r>     1.5092    14.5859   300.4948 </r>
       <r>     1.6143    10.2444   301.5717 </r>
       <r>     1.7194     9.4843   302.5688 </r>
       <r>     1.8246    15.2954   304.1768 </r>
       <r>     1.9297    30.0678   307.3377 </r>
       <r>     2.0348    45.1641   312.0857 </r>
       <r>     2.1399    35.6658   315.8351 </r>
       <r>     2.2451    26.0415   318.5728 </r>
       <r>     2.3502    29.0446   321.6262 </r>
       <r>     2.4553    30.5888   324.8419 </r>
       <r>     2.5605    19.7542   326.9186 </r>
       <r>     2.6656     8.6639   327.8294 </r>
       <r>     2.7707     1.5673   327.9942 </r>
       <r>     2.8758     0.0550   328.0000 </r>
       <r>     2.9810     0.0003   328.0000 </r>
       <r>     3.0861     0.0000   328.0000 </r>
       <r>     3.1912     0.0000   328.0000 </r>
       <r>     3.2963     0.0000   328.0000 </r>
       <r>     3.4015     0.0000   328.0000 </r>
       <r>     3.5066     0.0000   328.0000 </r>
       <r>     3.6117     0.0000   328.0000 </r>
       <r>     3.7169     0.0000   328.0000 </r>
       <r>     3.8220     0.0000   328.0000 </r>
       <r>     3.9271     0.0000   328.0000 </r>
       <r>     4.0322     0.0000   328.0000 </r>
      </set>
     </set>
    </array>
   </total>
  </dos>
 </calculation>
 <structure name="finalpos" >
  <crystal>
   <varray name="basis" >
    <v>      14.20606433       0.00000000       0.00000000 </v>
    <v>       0.00000000      12.30194432       0.00000000 </v>
    <v>       0.00000000       0.00000000      15.00000000 </v>
   </varray>
   <i name="volume">   2621.43318603 </i>
   <varray name="rec_basis" >
    <v>       0.07039247       0.00000000       0.00000000 </v>
    <v>       0.00000000       0.08128796       0.00000000 </v>
    <v>       0.00000000       0.00000000       0.06666667 </v>
   </varray>
  </crystal>
  <varray name="positions" >
   <v>       0.06552924       0.40428224       0.13332883 </v>
   <v>       0.98073506       0.23448653       0.13331251 </v>
   <v>       0.22596849       0.39800742       0.13332693 </v>
   <v>       0.81567713       0.57598150       0.13353271 </v>
   <v>       0.15032739       0.23448907       0.13330756 </v>
   <v>       0.90510567       0.39801215       0.13332888 </v>
   <v>       0.56563600       0.40060460       0.13329290 </v>
   <v>       0.48003275       0.23339915       0.13319118 </v>
   <v>       0.72699959       0.39816605       0.13349143 </v>
   <v>       0.31530345       0.57604443       0.13352705 </v>
   <v>       0.65113845       0.23332886       0.13318734 </v>
   <v>       0.40417946       0.39830929       0.13352891 </v>
   <v>       0.81593183       0.90524123       0.13322179 </v>
   <v>       0.73312683       0.73613388       0.13336762 </v>
   <v>       0.97653404       0.89849251       0.13330997 </v>
   <v>       0.90130094       0.73428418       0.13317397 </v>
   <v>       0.65436077       0.89869394       0.13351908 </v>
   <v>       0.31496386       0.90544683       0.13320054 </v>
   <v>       0.22958188       0.73436464       0.13316012 </v>
   <v>       0.47652118       0.89889576       0.13350049 </v>
   <v>       0.39765408       0.73641312       0.13329011 </v>
   <v>       0.15435104       0.89855068       0.13332563 </v>
   <v>       0.06547629       0.07689847       0.13331367 </v>
   <v>       0.56552517       0.07636274       0.13331407 </v>
   <v>       0.98386097       0.45673230       0.13331657 </v>
   <v>       0.90051323       0.29005212       0.13328011 </v>
   <v>       0.14721891       0.45673085       0.13330434 </v>
   <v>       0.14879978       0.12682943       0.13328696 </v>
   <v>       0.98217053       0.12681964       0.13329527 </v>
   <v>       0.23059373       0.29004466       0.13328360 </v>
   <v>       0.06553126       0.29123103       0.13334958 </v>
   <v>       0.81521451       0.45792350       0.13337048 </v>
   <v>       0.48537906       0.45596222       0.13372761 </v>
   <v>       0.40076577       0.29045513       0.13359709 </v>
   <v>       0.64589040       0.45583435       0.13368861 </v>
   <v>       0.64915874       0.12611856       0.13341956 </v>
   <v>       0.48192703       0.12618043       0.13340833 </v>
   <v>       0.73044688       0.29029081       0.13357859 </v>
   <v>       0.56559013       0.28963346       0.13259239 </v>
   <v>       0.31590167       0.45800614       0.13338786 </v>
   <v>       0.73355117       0.95613998       0.13361729 </v>
   <v>       0.65156945       0.78886389       0.13372214 </v>
   <v>       0.89721800       0.95709144       0.13344107 </v>
   <v>       0.89834841       0.62653391       0.13351279 </v>
   <v>       0.73194305       0.62829732       0.13384847 </v>
   <v>       0.98071775       0.78992791       0.13338564 </v>
   <v>       0.81644402       0.79170529       0.13265331 </v>
   <v>       0.56546383       0.95729815       0.13335126 </v>
   <v>       0.23365512       0.95719332       0.13346882 </v>
   <v>       0.15016184       0.78998079       0.13343866 </v>
   <v>       0.39733392       0.95635363       0.13363927 </v>
   <v>       0.39900206       0.62855329       0.13381154 </v>
   <v>       0.23263864       0.62660872       0.13355684 </v>
   <v>       0.47919533       0.78908611       0.13366660 </v>
   <v>       0.31441659       0.79189183       0.13253209 </v>
   <v>       0.06544380       0.95787743       0.13331123 </v>
   <v>       0.56413024       0.62436563       0.13731276 </v>
  </varray>
 </structure>
</modeling>
