  59  59   0   0
  0.3948347E+02  0.1375970E-08  0.1128670E-08  0.1500000E-08  0.1000000E-15
  1.000000000000000E-004
  CAR 
 slab_Cel1-OPT                           
      4.39090573    -27.85784491  301     -1.99200848      1.00000000
    -27.858  0.0000E+00  0.0000E+00
    -27.750  0.0000E+00  0.0000E+00
    -27.643  0.0000E+00  0.0000E+00
    -27.535  0.0000E+00  0.0000E+00
    -27.428  0.0000E+00  0.0000E+00
    -27.320  0.0000E+00  0.0000E+00
    -27.213  0.0000E+00  0.0000E+00
    -27.105  0.0000E+00  0.0000E+00
    -26.998  0.0000E+00  0.0000E+00
    -26.890  0.8836E-14  0.9499E-15
    -26.783  0.1739E-09  0.1870E-10
    -26.675  0.3677E-06  0.3955E-07
    -26.568  0.8715E-04  0.9408E-05
    -26.460  0.2503E-02  0.2784E-03
    -26.353  0.9809E-02  0.1333E-02
    -26.245  0.6249E-02  0.2005E-02
    -26.138  0.6383E-02  0.2691E-02
    -26.030  0.1166E-01  0.3944E-02
    -25.923  0.1224E-01  0.5260E-02
    -25.815  0.1324E-01  0.6682E-02
    -25.708  0.1001E-01  0.7758E-02
    -25.600  0.2175E-02  0.7992E-02
    -25.493  0.7568E-04  0.8000E-02
    -25.385  0.5645E-05  0.8001E-02
    -25.278  0.3605E-03  0.8039E-02
    -25.170  0.3758E-02  0.8443E-02
    -25.063  0.9946E-02  0.9512E-02
    -24.955  0.1459E-01  0.1108E-01
    -24.848  0.1135E-01  0.1230E-01
    -24.740  0.8177E-02  0.1318E-01
    -24.633  0.9764E-02  0.1423E-01
    -24.525  0.9049E-02  0.1520E-01
    -24.418  0.2636E-02  0.1549E-01
    -24.310  0.1391E-03  0.1550E-01
    -24.203  0.2171E-03  0.1552E-01
    -24.095  0.3320E-02  0.1588E-01
    -23.988  0.1302E-01  0.1728E-01
    -23.880  0.1633E-01  0.1904E-01
    -23.773  0.1542E-01  0.2069E-01
    -23.666  0.1900E-01  0.2274E-01
    -23.558  0.1267E-01  0.2410E-01
    -23.451  0.3519E-02  0.2447E-01
    -23.343  0.4260E-03  0.2452E-01
    -23.236  0.2835E-02  0.2483E-01
    -23.128  0.9393E-02  0.2584E-01
    -23.021  0.9213E-02  0.2683E-01
    -22.913  0.6849E-02  0.2756E-01
    -22.806  0.1219E-01  0.2887E-01
    -22.698  0.1375E-01  0.3035E-01
    -22.591  0.1055E-01  0.3148E-01
    -22.483  0.4304E-02  0.3195E-01
    -22.376  0.4888E-03  0.3200E-01
    -22.268  0.3509E-04  0.3200E-01
    -22.161  0.1034E-02  0.3211E-01
    -22.053  0.7997E-02  0.3297E-01
    -21.946  0.2156E-01  0.3529E-01
    -21.838  0.2571E-01  0.3805E-01
    -21.731  0.2266E-01  0.4049E-01
    -21.623  0.2214E-01  0.4287E-01
    -21.516  0.2620E-01  0.4569E-01
    -21.408  0.1841E-01  0.4767E-01
    -21.301  0.3076E-02  0.4800E-01
    -21.193  0.1320E-02  0.4814E-01
    -21.086  0.5945E-02  0.4878E-01
    -20.978  0.1345E-01  0.5022E-01
    -20.871  0.1921E-01  0.5229E-01
    -20.763  0.1872E-01  0.5430E-01
    -20.656  0.1501E-01  0.5592E-01
    -20.548  0.1337E-01  0.5735E-01
    -20.441  0.9613E-02  0.5839E-01
    -20.333  0.1102E-01  0.5957E-01
    -20.226  0.9624E-02  0.6060E-01
    -20.118  0.1494E-01  0.6221E-01
    -20.011  0.1296E-01  0.6360E-01
    -19.903  0.3502E-02  0.6398E-01
    -19.796  0.1751E-03  0.6400E-01
    -19.688  0.1216E-05  0.6400E-01
    -19.581  0.1022E-08  0.6400E-01
    -19.473  0.9624E-13  0.6400E-01
    -19.366  0.1033E-17  0.6400E-01
    -19.258  0.0000E+00  0.6400E-01
    -19.151  0.0000E+00  0.6400E-01
    -19.043  0.0000E+00  0.6400E-01
    -18.936  0.0000E+00  0.6400E-01
    -18.828  0.0000E+00  0.6400E-01
    -18.721  0.0000E+00  0.6400E-01
    -18.613  0.0000E+00  0.6400E-01
    -18.506  0.0000E+00  0.6400E-01
    -18.398  0.0000E+00  0.6400E-01
    -18.291  0.0000E+00  0.6400E-01
    -18.183  0.0000E+00  0.6400E-01
    -18.076  0.6920E-16  0.6400E-01
    -17.968  0.3069E-11  0.6400E-01
    -17.861  0.1484E-07  0.6400E-01
    -17.753  0.8210E-05  0.6400E-01
    -17.646  0.5671E-03  0.6406E-01
    -17.538  0.5683E-02  0.6467E-01
    -17.431  0.1097E-01  0.6585E-01
    -17.323  0.1062E-01  0.6699E-01
    -17.216  0.1401E-01  0.6850E-01
    -17.108  0.1516E-01  0.7013E-01
    -17.001  0.1686E-01  0.7194E-01
    -16.893  0.1796E-01  0.7387E-01
    -16.786  0.1773E-01  0.7578E-01
    -16.678  0.1074E-01  0.7693E-01
    -16.571  0.1149E-01  0.7817E-01
    -16.463  0.9915E-02  0.7923E-01
    -16.356  0.2366E-02  0.7949E-01
    -16.248  0.2141E-03  0.7951E-01
    -16.141  0.1397E-02  0.7966E-01
    -16.033  0.2475E-02  0.7993E-01
    -15.926  0.6454E-03  0.8000E-01
    -15.818  0.7353E-04  0.8001E-01
    -15.711  0.1751E-02  0.8019E-01
    -15.603  0.1067E-01  0.8134E-01
    -15.496  0.1913E-01  0.8340E-01
    -15.388  0.2098E-01  0.8565E-01
    -15.281  0.1468E-01  0.8723E-01
    -15.173  0.5046E-02  0.8777E-01
    -15.066  0.2377E-02  0.8803E-01
    -14.958  0.2565E-02  0.8830E-01
    -14.851  0.2505E-02  0.8857E-01
    -14.743  0.2726E-02  0.8887E-01
    -14.636  0.1322E-02  0.8901E-01
    -14.528  0.3512E-02  0.8939E-01
    -14.421  0.1248E-01  0.9073E-01
    -14.313  0.1447E-01  0.9228E-01
    -14.206  0.1417E-01  0.9381E-01
    -14.098  0.1206E-01  0.9510E-01
    -13.991  0.1256E-01  0.9645E-01
    -13.883  0.1856E-01  0.9845E-01
    -13.776  0.2349E-01  0.1010E+00
    -13.668  0.2245E-01  0.1034E+00
    -13.561  0.2149E-01  0.1057E+00
    -13.453  0.2094E-01  0.1079E+00
    -13.346  0.2459E-01  0.1106E+00
    -13.238  0.2311E-01  0.1131E+00
    -13.131  0.1225E-01  0.1144E+00
    -13.023  0.6250E-02  0.1151E+00
    -12.916  0.6861E-02  0.1158E+00
    -12.808  0.1054E-01  0.1169E+00
    -12.701  0.8737E-02  0.1179E+00
    -12.593  0.4682E-02  0.1184E+00
    -12.486  0.5774E-02  0.1190E+00
    -12.378  0.7502E-02  0.1198E+00
    -12.271  0.1001E-01  0.1209E+00
    -12.163  0.1158E-01  0.1221E+00
    -12.056  0.6179E-02  0.1228E+00
    -11.948  0.1027E-01  0.1239E+00
    -11.841  0.1453E-01  0.1255E+00
    -11.733  0.1697E-01  0.1273E+00
    -11.626  0.2323E-01  0.1298E+00
    -11.518  0.2038E-01  0.1320E+00
    -11.411  0.1758E-01  0.1339E+00
    -11.303  0.1658E-01  0.1356E+00
    -11.196  0.1788E-01  0.1376E+00
    -11.088  0.1519E-01  0.1392E+00
    -10.981  0.1102E-01  0.1404E+00
    -10.874  0.5528E-02  0.1410E+00
    -10.766  0.6982E-02  0.1417E+00
    -10.659  0.1433E-01  0.1433E+00
    -10.551  0.1575E-01  0.1450E+00
    -10.444  0.1414E-01  0.1465E+00
    -10.336  0.1434E-01  0.1480E+00
    -10.229  0.1508E-01  0.1496E+00
    -10.121  0.1435E-01  0.1512E+00
    -10.014  0.6908E-02  0.1519E+00
     -9.906  0.2938E-02  0.1522E+00
     -9.799  0.4877E-02  0.1528E+00
     -9.691  0.1050E-01  0.1539E+00
     -9.584  0.1455E-01  0.1555E+00
     -9.476  0.1905E-01  0.1575E+00
     -9.369  0.1865E-01  0.1595E+00
     -9.261  0.2017E-01  0.1617E+00
     -9.154  0.2631E-01  0.1645E+00
     -9.046  0.2527E-01  0.1672E+00
     -8.939  0.2118E-01  0.1695E+00
     -8.831  0.1542E-01  0.1712E+00
     -8.724  0.7381E-02  0.1720E+00
     -8.616  0.5374E-02  0.1725E+00
     -8.509  0.1162E-01  0.1738E+00
     -8.401  0.6117E-02  0.1744E+00
     -8.294  0.4843E-02  0.1750E+00
     -8.186  0.1420E-01  0.1765E+00
     -8.079  0.1542E-01  0.1781E+00
     -7.971  0.1250E-01  0.1795E+00
     -7.864  0.1470E-01  0.1811E+00
     -7.756  0.1174E-01  0.1823E+00
     -7.649  0.1163E-01  0.1836E+00
     -7.541  0.1074E-01  0.1847E+00
     -7.434  0.1933E-01  0.1868E+00
     -7.326  0.2678E-01  0.1897E+00
     -7.219  0.3483E-01  0.1934E+00
     -7.111  0.3286E-01  0.1970E+00
     -7.004  0.2605E-01  0.1998E+00
     -6.896  0.2365E-01  0.2023E+00
     -6.789  0.1673E-01  0.2041E+00
     -6.681  0.1812E-01  0.2061E+00
     -6.574  0.1859E-01  0.2081E+00
     -6.466  0.1744E-01  0.2099E+00
     -6.359  0.1806E-01  0.2119E+00
     -6.251  0.1639E-01  0.2136E+00
     -6.144  0.1450E-01  0.2152E+00
     -6.036  0.9958E-02  0.2163E+00
     -5.929  0.1361E-01  0.2177E+00
     -5.821  0.2089E-01  0.2200E+00
     -5.714  0.2665E-01  0.2228E+00
     -5.606  0.2176E-01  0.2252E+00
     -5.499  0.2175E-01  0.2275E+00
     -5.391  0.2224E-01  0.2299E+00
     -5.284  0.2956E-01  0.2331E+00
     -5.176  0.2833E-01  0.2361E+00
     -5.069  0.2384E-01  0.2387E+00
     -4.961  0.2593E-01  0.2415E+00
     -4.854  0.2793E-01  0.2445E+00
     -4.746  0.3015E-01  0.2477E+00
     -4.639  0.2657E-01  0.2506E+00
     -4.531  0.2379E-01  0.2531E+00
     -4.424  0.2224E-01  0.2555E+00
     -4.316  0.2509E-01  0.2582E+00
     -4.209  0.2584E-01  0.2610E+00
     -4.101  0.1750E-01  0.2629E+00
     -3.994  0.1852E-01  0.2649E+00
     -3.886  0.9788E-02  0.2659E+00
     -3.779  0.6905E-02  0.2667E+00
     -3.671  0.9995E-02  0.2677E+00
     -3.564  0.6633E-02  0.2685E+00
     -3.456  0.1806E-01  0.2704E+00
     -3.349  0.1679E-01  0.2722E+00
     -3.241  0.1230E-01  0.2735E+00
     -3.134  0.9711E-02  0.2746E+00
     -3.026  0.1658E-01  0.2763E+00
     -2.919  0.2244E-01  0.2788E+00
     -2.811  0.1320E-01  0.2802E+00
     -2.704  0.1550E-01  0.2818E+00
     -2.596  0.1626E-01  0.2836E+00
     -2.489  0.3649E-02  0.2840E+00
     -2.381  0.1383E-03  0.2840E+00
     -2.274  0.5755E-04  0.2840E+00
     -2.166  0.1990E-02  0.2842E+00
     -2.059  0.9709E-02  0.2853E+00
     -1.951  0.1063E-01  0.2864E+00
     -1.844  0.1267E-01  0.2878E+00
     -1.736  0.1398E-01  0.2893E+00
     -1.629  0.1355E-01  0.2907E+00
     -1.521  0.1503E-01  0.2923E+00
     -1.414  0.1387E-01  0.2938E+00
     -1.306  0.1278E-01  0.2952E+00
     -1.199  0.1469E-01  0.2968E+00
     -1.091  0.1715E-01  0.2986E+00
     -0.984  0.2111E-01  0.3009E+00
     -0.876  0.1789E-01  0.3028E+00
     -0.769  0.1094E-01  0.3040E+00
     -0.661  0.6717E-02  0.3047E+00
     -0.554  0.9538E-02  0.3057E+00
     -0.446  0.1598E-01  0.3075E+00
     -0.339  0.2131E-01  0.3098E+00
     -0.231  0.1650E-01  0.3115E+00
     -0.124  0.4127E-02  0.3120E+00
     -0.016  0.2487E-03  0.3120E+00
      0.091  0.3131E-05  0.3120E+00
      0.199  0.7724E-04  0.3120E+00
      0.306  0.1833E-02  0.3122E+00
      0.414  0.7449E-02  0.3130E+00
      0.521  0.7463E-02  0.3138E+00
      0.629  0.4985E-02  0.3143E+00
      0.736  0.9967E-02  0.3154E+00
      0.844  0.6781E-02  0.3161E+00
      0.951  0.9455E-02  0.3172E+00
      1.059  0.1012E-01  0.3182E+00
      1.166  0.9692E-02  0.3193E+00
      1.274  0.9181E-02  0.3203E+00
      1.381  0.1806E-01  0.3222E+00
      1.489  0.2631E-01  0.3250E+00
      1.596  0.2254E-01  0.3275E+00
      1.704  0.2076E-01  0.3297E+00
      1.811  0.2036E-01  0.3319E+00
      1.919  0.2006E-01  0.3340E+00
      2.026  0.2043E-01  0.3362E+00
      2.133  0.1795E-01  0.3382E+00
      2.241  0.1865E-01  0.3402E+00
      2.348  0.1490E-01  0.3418E+00
      2.456  0.1440E-01  0.3433E+00
      2.563  0.1809E-01  0.3453E+00
      2.671  0.1656E-01  0.3471E+00
      2.778  0.2003E-01  0.3492E+00
      2.886  0.1816E-01  0.3512E+00
      2.993  0.6826E-02  0.3519E+00
      3.101  0.9879E-03  0.3520E+00
      3.208  0.3203E-04  0.3520E+00
      3.316  0.1452E-06  0.3520E+00
      3.423  0.7567E-10  0.3520E+00
      3.531  0.4217E-14  0.3520E+00
      3.638  0.0000E+00  0.3520E+00
      3.746  0.0000E+00  0.3520E+00
      3.853  0.0000E+00  0.3520E+00
      3.961  0.0000E+00  0.3520E+00
      4.068  0.0000E+00  0.3520E+00
      4.176  0.0000E+00  0.3520E+00
      4.283  0.0000E+00  0.3520E+00
      4.391  0.0000E+00  0.3520E+00
