       N       E                     dE             d eps       ncg     rms          rms(c)
DAV:   1     0.249780810470E+04    0.24978E+04   -0.10343E+05  1592   0.104E+03
DAV:   2    -0.590099392760E+02   -0.25568E+04   -0.24492E+04  2008   0.289E+02
DAV:   3    -0.501723885289E+03   -0.44271E+03   -0.43798E+03  1696   0.132E+02
DAV:   4    -0.515866151412E+03   -0.14142E+02   -0.13756E+02  1608   0.270E+01
DAV:   5    -0.516442570276E+03   -0.57642E+00   -0.56938E+00  1912   0.441E+00    0.442E+01
DAV:   6    -0.489936260359E+03    0.26506E+02   -0.93115E+01  1608   0.258E+01    0.269E+01
DAV:   7    -0.486485605950E+03    0.34507E+01   -0.27861E+01  1584   0.241E+01    0.194E+01
DAV:   8    -0.486451580452E+03    0.34025E-01   -0.36381E+01  1560   0.148E+01    0.134E+01
DAV:   9    -0.484587186036E+03    0.18644E+01   -0.83319E+00  1584   0.107E+01    0.647E+00
DAV:  10    -0.483704011122E+03    0.88317E+00   -0.16515E+00  1640   0.527E+00    0.309E+00
DAV:  11    -0.483525603167E+03    0.17841E+00   -0.14228E+00  1696   0.338E+00    0.263E+00
DAV:  12    -0.483493346846E+03    0.32256E-01   -0.61795E-01  1568   0.136E+00    0.181E+00
DAV:  13    -0.483468393356E+03    0.24953E-01   -0.15056E-01  1592   0.117E+00    0.885E-01
DAV:  14    -0.483468769649E+03   -0.37629E-03   -0.63189E-02  1592   0.814E-01    0.709E-01
DAV:  15    -0.483465934493E+03    0.28352E-02   -0.15839E-02  1536   0.452E-01    0.324E-01
DAV:  16    -0.483469408273E+03   -0.34738E-02   -0.13704E-02  1576   0.256E-01    0.179E-01
DAV:  17    -0.483473888933E+03   -0.44807E-02   -0.37862E-03  1584   0.161E-01    0.945E-02
DAV:  18    -0.483476094657E+03   -0.22057E-02   -0.77378E-04  1624   0.960E-02    0.683E-02
DAV:  19    -0.483481484951E+03   -0.53903E-02   -0.11954E-03  1632   0.750E-02    0.527E-02
DAV:  20    -0.483484173488E+03   -0.26885E-02   -0.36930E-04  1648   0.451E-02    0.295E-02
DAV:  21    -0.483485697051E+03   -0.15236E-02   -0.48795E-04  1456   0.535E-02    0.384E-02
DAV:  22    -0.483486086903E+03   -0.38985E-03   -0.74876E-05  1360   0.219E-02    0.214E-02
DAV:  23    -0.483486488960E+03   -0.40206E-03   -0.11156E-04  1208   0.307E-02    0.168E-02
DAV:  24    -0.483486967894E+03   -0.47893E-03   -0.73029E-05  1400   0.228E-02    0.226E-02
DAV:  25    -0.483487096879E+03   -0.12899E-03   -0.25860E-05  1072   0.168E-02    0.883E-03
DAV:  26    -0.483487346564E+03   -0.24968E-03   -0.37755E-05  1176   0.125E-02    0.854E-03
DAV:  27    -0.483487397750E+03   -0.51186E-04   -0.81576E-06   992   0.967E-03    0.524E-03
DAV:  28    -0.483487482794E+03   -0.85045E-04   -0.55789E-06  1016   0.482E-03    0.239E-03
DAV:  29    -0.483487533087E+03   -0.50293E-04   -0.59507E-06  1016   0.529E-03    0.413E-03
DAV:  30    -0.483487549651E+03   -0.16564E-04   -0.19086E-06   960   0.440E-03    0.206E-03
DAV:  31    -0.483487558280E+03   -0.86286E-05   -0.11599E-06   968   0.184E-03
   1 F= -.48348756E+03 E0= -.48344840E+03  d E =-.483488E+03
       N       E                     dE             d eps       ncg     rms          rms(c)
DAV:   1    -0.483785112643E+03   -0.29756E+00   -0.21397E+01  1440   0.762E+00    0.142E+00
DAV:   2    -0.483811925823E+03   -0.26813E-01   -0.33297E-01  1552   0.117E+00    0.109E+00
DAV:   3    -0.483814270874E+03   -0.23451E-02   -0.12088E-01  1568   0.711E-01    0.105E+00
DAV:   4    -0.483804190870E+03    0.10080E-01   -0.49515E-02  1520   0.508E-01    0.385E-01
DAV:   5    -0.483805125110E+03   -0.93424E-03   -0.82910E-03  1552   0.302E-01    0.240E-01
DAV:   6    -0.483804281526E+03    0.84358E-03   -0.30533E-03  1544   0.211E-01    0.822E-02
DAV:   7    -0.483804180391E+03    0.10114E-03   -0.61890E-04  1560   0.680E-02    0.455E-02
DAV:   8    -0.483804175742E+03    0.46489E-05   -0.19990E-04  1544   0.455E-02    0.267E-02
DAV:   9    -0.483804175156E+03    0.58613E-06   -0.35601E-05  1168   0.211E-02
   2 F= -.48380418E+03 E0= -.48376509E+03  d E =-.316617E+00
       N       E                     dE             d eps       ncg     rms          rms(c)
DAV:   1    -0.483959440576E+03   -0.15526E+00   -0.12482E+02  1440   0.183E+01    0.271E+00
DAV:   2    -0.484101103848E+03   -0.14166E+00   -0.18853E+00  1544   0.276E+00    0.222E+00
DAV:   3    -0.484094749136E+03    0.63547E-02   -0.29805E-01  1552   0.131E+00    0.187E+00
DAV:   4    -0.484074768472E+03    0.19981E-01   -0.12241E-01  1536   0.102E+00    0.101E+00
DAV:   5    -0.484073162796E+03    0.16057E-02   -0.41863E-02  1552   0.608E-01    0.439E-01
DAV:   6    -0.484070970116E+03    0.21927E-02   -0.13342E-02  1552   0.415E-01    0.223E-01
DAV:   7    -0.484070245510E+03    0.72461E-03   -0.23311E-03  1520   0.163E-01    0.864E-02
DAV:   8    -0.484070231085E+03    0.14425E-04   -0.94485E-04  1560   0.723E-02    0.542E-02
DAV:   9    -0.484070232996E+03   -0.19119E-05   -0.26543E-04  1480   0.515E-02    0.342E-02
DAV:  10    -0.484070253584E+03   -0.20588E-04   -0.50737E-05  1184   0.243E-02    0.131E-02
DAV:  11    -0.484070293060E+03   -0.39476E-04   -0.12859E-05  1040   0.922E-03    0.595E-03
DAV:  12    -0.484070325792E+03   -0.32732E-04   -0.40924E-06  1000   0.461E-03    0.320E-03
DAV:  13    -0.484070364727E+03   -0.38935E-04   -0.29865E-06  1040   0.293E-03    0.227E-03
DAV:  14    -0.484070400647E+03   -0.35920E-04   -0.27038E-06  1040   0.242E-03    0.124E-03
DAV:  15    -0.484070426258E+03   -0.25611E-04   -0.25126E-06  1032   0.191E-03    0.804E-04
DAV:  16    -0.484070435504E+03   -0.92454E-05   -0.85041E-07  1016   0.125E-03
   3 F= -.48407044E+03 E0= -.48403068E+03  d E =-.582877E+00
       N       E                     dE             d eps       ncg     rms          rms(c)
DAV:   1    -0.484158232919E+03   -0.87807E-01   -0.12233E+01  1408   0.779E+00    0.101E+00
DAV:   2    -0.484183402984E+03   -0.25170E-01   -0.30824E-01  1592   0.148E+00    0.859E-01
DAV:   3    -0.484173476940E+03    0.99260E-02   -0.94830E-02  1544   0.777E-01    0.568E-01
DAV:   4    -0.484169378934E+03    0.40980E-02   -0.18487E-02  1536   0.353E-01    0.317E-01
DAV:   5    -0.484169696152E+03   -0.31722E-03   -0.71507E-03  1592   0.289E-01    0.263E-01
DAV:   6    -0.484169061655E+03    0.63450E-03   -0.36637E-03  1584   0.213E-01    0.103E-01
DAV:   7    -0.484169026184E+03    0.35470E-04   -0.70108E-04  1560   0.904E-02    0.722E-02
DAV:   8    -0.484168987047E+03    0.39138E-04   -0.24696E-04  1544   0.580E-02    0.319E-02
DAV:   9    -0.484168986891E+03    0.15544E-06   -0.33569E-05  1168   0.210E-02
   4 F= -.48416899E+03 E0= -.48412785E+03  d E =-.985514E-01
       N       E                     dE             d eps       ncg     rms          rms(c)
DAV:   1    -0.484177843250E+03   -0.88562E-02   -0.27568E+00  1424   0.370E+00    0.479E-01
DAV:   2    -0.484183837270E+03   -0.59940E-02   -0.72261E-02  1600   0.707E-01    0.431E-01
DAV:   3    -0.484181202618E+03    0.26347E-02   -0.24994E-02  1552   0.376E-01    0.270E-01
DAV:   4    -0.484180325084E+03    0.87753E-03   -0.42553E-03  1552   0.165E-01    0.153E-01
DAV:   5    -0.484180410322E+03   -0.85238E-04   -0.16922E-03  1592   0.138E-01    0.129E-01
DAV:   6    -0.484180259738E+03    0.15058E-03   -0.87490E-04  1576   0.102E-01    0.491E-02
DAV:   7    -0.484180257942E+03    0.17968E-05   -0.16483E-04  1432   0.435E-02    0.356E-02
DAV:   8    -0.484180250882E+03    0.70593E-05   -0.58224E-05  1232   0.282E-02
   5 F= -.48418025E+03 E0= -.48413866E+03  d E =-.109815E+00
       N       E                     dE             d eps       ncg     rms          rms(c)
DAV:   1    -0.484242317373E+03   -0.62059E-01   -0.12609E+01  1408   0.705E+00    0.930E-01
DAV:   2    -0.484260196341E+03   -0.17879E-01   -0.29625E-01  1568   0.112E+00    0.675E-01
DAV:   3    -0.484257421006E+03    0.27753E-02   -0.86412E-02  1536   0.586E-01    0.567E-01
DAV:   4    -0.484253005348E+03    0.44157E-02   -0.16761E-02  1520   0.365E-01    0.276E-01
DAV:   5    -0.484253145322E+03   -0.13997E-03   -0.40836E-03  1544   0.198E-01    0.186E-01
DAV:   6    -0.484253129658E+03    0.15664E-04   -0.26443E-03  1600   0.162E-01    0.127E-01
DAV:   7    -0.484252972530E+03    0.15713E-03   -0.72729E-04  1448   0.944E-02    0.539E-02
DAV:   8    -0.484252975034E+03   -0.25042E-05   -0.16047E-04  1568   0.436E-02    0.383E-02
DAV:   9    -0.484252967643E+03    0.73912E-05   -0.80579E-05  1232   0.314E-02
   6 F= -.48425297E+03 E0= -.48421112E+03  d E =-.727168E-01
       N       E                     dE             d eps       ncg     rms          rms(c)
DAV:   1    -0.484270516598E+03   -0.17542E-01   -0.21416E+01  1408   0.919E+00    0.119E+00
DAV:   2    -0.484300119729E+03   -0.29603E-01   -0.49940E-01  1560   0.145E+00    0.853E-01
DAV:   3    -0.484296309574E+03    0.38102E-02   -0.13933E-01  1536   0.746E-01    0.737E-01
DAV:   4    -0.484288803339E+03    0.75062E-02   -0.25782E-02  1512   0.470E-01    0.366E-01
DAV:   5    -0.484288783191E+03    0.20148E-04   -0.62579E-03  1552   0.242E-01    0.213E-01
DAV:   6    -0.484288977083E+03   -0.19389E-03   -0.40586E-03  1592   0.198E-01    0.182E-01
DAV:   7    -0.484288652328E+03    0.32475E-03   -0.15568E-03  1584   0.131E-01    0.722E-02
DAV:   8    -0.484288652342E+03   -0.13286E-07   -0.25432E-04  1560   0.528E-02    0.455E-02
DAV:   9    -0.484288645719E+03    0.66231E-05   -0.13202E-04  1232   0.394E-02    0.227E-02
DAV:  10    -0.484288654674E+03   -0.89552E-05   -0.23212E-05  1088   0.163E-02
   7 F= -.48428865E+03 E0= -.48424648E+03  d E =-.108404E+00
       N       E                     dE             d eps       ncg     rms          rms(c)
DAV:   1    -0.484333056070E+03   -0.44410E-01   -0.10593E+01  1416   0.649E+00    0.742E-01
DAV:   2    -0.484352238615E+03   -0.19183E-01   -0.21569E-01  1552   0.105E+00    0.723E-01
DAV:   3    -0.484346567613E+03    0.56710E-02   -0.50664E-02  1520   0.519E-01    0.429E-01
DAV:   4    -0.484345201947E+03    0.13657E-02   -0.62007E-03  1536   0.242E-01    0.261E-01
DAV:   5    -0.484345528826E+03   -0.32688E-03   -0.40117E-03  1568   0.203E-01    0.224E-01
DAV:   6    -0.484345197291E+03    0.33153E-03   -0.27146E-03  1544   0.166E-01    0.910E-02
DAV:   7    -0.484345124915E+03    0.72376E-04   -0.62700E-04  1560   0.775E-02    0.574E-02
DAV:   8    -0.484345113937E+03    0.10979E-04   -0.19304E-04  1536   0.472E-02    0.340E-02
DAV:   9    -0.484345110690E+03    0.32468E-05   -0.54259E-05  1168   0.244E-02
   8 F= -.48434511E+03 E0= -.48430337E+03  d E =-.564560E-01
       N       E                     dE             d eps       ncg     rms          rms(c)
DAV:   1    -0.484348432085E+03   -0.33181E-02   -0.28731E+01  1416   0.107E+01    0.119E+00
DAV:   2    -0.484399197852E+03   -0.50766E-01   -0.57180E-01  1560   0.173E+00    0.118E+00
DAV:   3    -0.484385688792E+03    0.13509E-01   -0.13264E-01  1568   0.834E-01    0.699E-01
DAV:   4    -0.484381717573E+03    0.39712E-02   -0.15089E-02  1528   0.388E-01    0.437E-01
DAV:   5    -0.484382007825E+03   -0.29025E-03   -0.80281E-03  1568   0.285E-01    0.280E-01
DAV:   6    -0.484381753582E+03    0.25424E-03   -0.52678E-03  1544   0.245E-01    0.163E-01
DAV:   7    -0.484381437810E+03    0.31577E-03   -0.17992E-03  1608   0.135E-01    0.755E-02
DAV:   8    -0.484381464207E+03   -0.26397E-04   -0.44809E-04  1528   0.648E-02    0.602E-02
DAV:   9    -0.484381444173E+03    0.20035E-04   -0.19326E-04  1224   0.438E-02    0.229E-02
DAV:  10    -0.484381462854E+03   -0.18681E-04   -0.27909E-05  1080   0.168E-02    0.762E-03
DAV:  11    -0.484381486387E+03   -0.23533E-04   -0.65271E-06   968   0.715E-03    0.331E-03
DAV:  12    -0.484381503029E+03   -0.16641E-04   -0.19410E-06   968   0.341E-03    0.170E-03
DAV:  13    -0.484381522742E+03   -0.19713E-04   -0.16747E-06   944   0.222E-03    0.995E-04
DAV:  14    -0.484381542270E+03   -0.19528E-04   -0.23288E-06  1016   0.191E-03    0.654E-04
DAV:  15    -0.484381550971E+03   -0.87002E-05   -0.84861E-07   952   0.134E-03
   9 F= -.48438155E+03 E0= -.48434077E+03  d E =-.928963E-01
       N       E                     dE             d eps       ncg     rms          rms(c)
DAV:   1    -0.484402342836E+03   -0.20801E-01   -0.68431E+00  1408   0.553E+00    0.556E-01
DAV:   2    -0.484413434685E+03   -0.11092E-01   -0.13152E-01  1544   0.853E-01    0.441E-01
DAV:   3    -0.484412270827E+03    0.11639E-02   -0.20711E-02  1536   0.365E-01    0.359E-01
DAV:   4    -0.484410774796E+03    0.14960E-02   -0.46653E-03  1528   0.218E-01    0.188E-01
DAV:   5    -0.484410834623E+03   -0.59827E-04   -0.18106E-03  1616   0.128E-01    0.108E-01
DAV:   6    -0.484410820158E+03    0.14465E-04   -0.81712E-04  1592   0.100E-01    0.720E-02
DAV:   7    -0.484410773667E+03    0.46491E-04   -0.33335E-04  1536   0.634E-02    0.350E-02
DAV:   8    -0.484410770121E+03    0.35461E-05   -0.47944E-05  1168   0.223E-02
  10 F= -.48441077E+03 E0= -.48437056E+03  d E =-.292192E-01
       N       E                     dE             d eps       ncg     rms          rms(c)
DAV:   1    -0.484412586896E+03   -0.18132E-02   -0.53432E+00  1408   0.489E+00    0.490E-01
DAV:   2    -0.484421269818E+03   -0.86829E-02   -0.10312E-01  1536   0.754E-01    0.388E-01
DAV:   3    -0.484420393910E+03    0.87591E-03   -0.16525E-02  1536   0.327E-01    0.320E-01
DAV:   4    -0.484419222817E+03    0.11711E-02   -0.37049E-03  1512   0.193E-01    0.165E-01
DAV:   5    -0.484419278472E+03   -0.55655E-04   -0.14147E-03  1616   0.114E-01    0.972E-02
DAV:   6    -0.484419269006E+03    0.94661E-05   -0.70134E-04  1600   0.926E-02    0.669E-02
DAV:   7    -0.484419230518E+03    0.38488E-04   -0.26421E-04  1408   0.561E-02    0.312E-02
DAV:   8    -0.484419233096E+03   -0.25784E-05   -0.58215E-05  1200   0.243E-02
  11 F= -.48441923E+03 E0= -.48437956E+03  d E =-.376821E-01
       N       E                     dE             d eps       ncg     rms          rms(c)
DAV:   1    -0.484435353158E+03   -0.16123E-01   -0.57376E+00  1408   0.531E+00    0.520E-01
DAV:   2    -0.484442571396E+03   -0.72182E-02   -0.11117E-01  1528   0.792E-01    0.419E-01
DAV:   3    -0.484441996923E+03    0.57447E-03   -0.18809E-02  1552   0.383E-01    0.339E-01
DAV:   4    -0.484440966258E+03    0.10307E-02   -0.54698E-03  1552   0.229E-01    0.170E-01
DAV:   5    -0.484440873229E+03    0.93030E-04   -0.12080E-03  1584   0.104E-01    0.771E-02
DAV:   6    -0.484440939098E+03   -0.65869E-04   -0.39700E-04  1568   0.617E-02    0.634E-02
DAV:   7    -0.484440892238E+03    0.46860E-04   -0.27243E-04  1376   0.454E-02    0.314E-02
DAV:   8    -0.484440893131E+03   -0.89268E-06   -0.38880E-05  1080   0.174E-02
  12 F= -.48444089E+03 E0= -.48440188E+03  d E =-.216600E-01
       N       E                     dE             d eps       ncg     rms          rms(c)
DAV:   1    -0.484442665165E+03   -0.17729E-02   -0.56139E+00  1408   0.525E+00    0.515E-01
DAV:   2    -0.484449784962E+03   -0.71198E-02   -0.10872E-01  1528   0.788E-01    0.429E-01
DAV:   3    -0.484449124322E+03    0.66064E-03   -0.18538E-02  1560   0.386E-01    0.335E-01
DAV:   4    -0.484448116486E+03    0.10078E-02   -0.51890E-03  1544   0.225E-01    0.167E-01
DAV:   5    -0.484448024027E+03    0.92459E-04   -0.11838E-03  1576   0.102E-01    0.721E-02
DAV:   6    -0.484448061800E+03   -0.37773E-04   -0.28760E-04  1552   0.530E-02    0.462E-02
DAV:   7    -0.484448057087E+03    0.47132E-05   -0.19807E-04  1272   0.378E-02    0.361E-02
DAV:   8    -0.484448049216E+03    0.78712E-05   -0.54985E-05  1096   0.200E-02
  13 F= -.48444805E+03 E0= -.48440971E+03  d E =-.288161E-01
       N       E                     dE             d eps       ncg     rms          rms(c)
DAV:   1    -0.484462537342E+03   -0.14480E-01   -0.39763E+00  1408   0.443E+00    0.413E-01
DAV:   2    -0.484468010379E+03   -0.54730E-02   -0.72559E-02  1544   0.669E-01    0.434E-01
DAV:   3    -0.484467119898E+03    0.89048E-03   -0.11479E-02  1584   0.326E-01    0.246E-01
DAV:   4    -0.484466587757E+03    0.53214E-03   -0.27014E-03  1536   0.153E-01    0.142E-01
DAV:   5    -0.484466631972E+03   -0.44215E-04   -0.13054E-03  1584   0.864E-02    0.918E-02
DAV:   6    -0.484466567629E+03    0.64343E-04   -0.10085E-03  1560   0.819E-02    0.632E-02
DAV:   7    -0.484466536146E+03    0.31484E-04   -0.18888E-04  1280   0.424E-02    0.201E-02
DAV:   8    -0.484466541104E+03   -0.49584E-05   -0.17893E-05  1080   0.133E-02
  14 F= -.48446654E+03 E0= -.48442880E+03  d E =-.184919E-01
       N       E                     dE             d eps       ncg     rms          rms(c)
DAV:   1    -0.484456250198E+03    0.10286E-01   -0.35796E+01  1408   0.133E+01    0.126E+00
DAV:   2    -0.484506225403E+03   -0.49975E-01   -0.65121E-01  1552   0.201E+00    0.133E+00
DAV:   3    -0.484498367604E+03    0.78578E-02   -0.10444E-01  1576   0.988E-01    0.753E-01
DAV:   4    -0.484493261684E+03    0.51059E-02   -0.26851E-02  1544   0.458E-01    0.437E-01
DAV:   5    -0.484493633196E+03   -0.37151E-03   -0.14257E-02  1568   0.286E-01    0.343E-01
DAV:   6    -0.484492465914E+03    0.11673E-02   -0.10234E-02  1544   0.272E-01    0.175E-01
DAV:   7    -0.484492296366E+03    0.16955E-03   -0.15352E-03  1512   0.125E-01    0.574E-02
DAV:   8    -0.484492311307E+03   -0.14941E-04   -0.13998E-04  1528   0.358E-02    0.287E-02
DAV:   9    -0.484492340559E+03   -0.29252E-04   -0.58220E-05  1224   0.257E-02    0.230E-02
DAV:  10    -0.484492351053E+03   -0.10494E-04   -0.34865E-05  1168   0.207E-02    0.911E-03
DAV:  11    -0.484492366248E+03   -0.15194E-04   -0.42189E-06   944   0.733E-03    0.347E-03
DAV:  12    -0.484492384715E+03   -0.18467E-04   -0.20285E-06   968   0.287E-03    0.156E-03
DAV:  13    -0.484492400186E+03   -0.15472E-04   -0.10562E-06   960   0.189E-03    0.942E-04
DAV:  14    -0.484492414958E+03   -0.14772E-04   -0.12763E-06   984   0.168E-03    0.729E-04
DAV:  15    -0.484492423895E+03   -0.89362E-05   -0.85526E-07   976   0.123E-03
  15 F= -.48449242E+03 E0= -.48445667E+03  d E =-.443747E-01
       N       E                     dE             d eps       ncg     rms          rms(c)
DAV:   1    -0.484505379057E+03   -0.12964E-01   -0.96194E+00  1440   0.697E+00    0.542E-01
DAV:   2    -0.484519404987E+03   -0.14026E-01   -0.16585E-01  1528   0.100E+00    0.523E-01
DAV:   3    -0.484517770388E+03    0.16346E-02   -0.22289E-02  1568   0.421E-01    0.334E-01
DAV:   4    -0.484516771439E+03    0.99895E-03   -0.45854E-03  1576   0.215E-01    0.196E-01
DAV:   5    -0.484517024641E+03   -0.25320E-03   -0.27657E-03  1584   0.153E-01    0.192E-01
DAV:   6    -0.484516759560E+03    0.26508E-03   -0.17364E-03  1584   0.128E-01    0.626E-02
DAV:   7    -0.484516746241E+03    0.13319E-04   -0.29061E-04  1496   0.498E-02    0.447E-02
DAV:   8    -0.484516732634E+03    0.13607E-04   -0.93627E-05  1184   0.336E-02    0.227E-02
DAV:   9    -0.484516731199E+03    0.14347E-05   -0.23715E-05  1096   0.163E-02
  16 F= -.48451673E+03 E0= -.48448228E+03  d E =-.243073E-01
       N       E                     dE             d eps       ncg     rms          rms(c)
DAV:   1    -0.484511283233E+03    0.54494E-02   -0.13121E+01  1440   0.814E+00    0.630E-01
DAV:   2    -0.484530119957E+03   -0.18837E-01   -0.22354E-01  1520   0.116E+00    0.586E-01
DAV:   3    -0.484528275848E+03    0.18441E-02   -0.27608E-02  1560   0.477E-01    0.387E-01
DAV:   4    -0.484526916608E+03    0.13592E-02   -0.61501E-03  1552   0.253E-01    0.228E-01
DAV:   5    -0.484527213826E+03   -0.29722E-03   -0.35628E-03  1560   0.174E-01    0.213E-01
DAV:   6    -0.484526896984E+03    0.31684E-03   -0.21772E-03  1552   0.145E-01    0.748E-02
DAV:   7    -0.484526882602E+03    0.14382E-04   -0.38736E-04  1520   0.584E-02    0.546E-02
DAV:   8    -0.484526860990E+03    0.21611E-04   -0.12650E-04  1208   0.391E-02    0.249E-02
DAV:   9    -0.484526862766E+03   -0.17758E-05   -0.28460E-05  1080   0.175E-02
  17 F= -.48452686E+03 E0= -.48449389E+03  d E =-.344389E-01
       N       E                     dE             d eps       ncg     rms          rms(c)
DAV:   1    -0.484536936652E+03   -0.10076E-01   -0.10263E+01  1440   0.707E+00    0.515E-01
DAV:   2    -0.484551772777E+03   -0.14836E-01   -0.16893E-01  1520   0.997E-01    0.498E-01
DAV:   3    -0.484550333823E+03    0.14390E-02   -0.18496E-02  1552   0.388E-01    0.316E-01
DAV:   4    -0.484549540888E+03    0.79294E-03   -0.36414E-03  1552   0.193E-01    0.193E-01
DAV:   5    -0.484549835635E+03   -0.29475E-03   -0.28036E-03  1576   0.153E-01    0.190E-01
DAV:   6    -0.484549522201E+03    0.31343E-03   -0.16340E-03  1576   0.126E-01    0.569E-02
DAV:   7    -0.484549522910E+03   -0.70874E-06   -0.25206E-04  1376   0.479E-02    0.502E-02
DAV:   8    -0.484549501209E+03    0.21701E-04   -0.85200E-05  1168   0.318E-02    0.189E-02
DAV:   9    -0.484549504436E+03   -0.32269E-05   -0.19542E-05  1088   0.121E-02
  18 F= -.48454950E+03 E0= -.48451774E+03  d E =-.226417E-01
       N       E                     dE             d eps       ncg     rms          rms(c)
DAV:   1    -0.484525996374E+03    0.23505E-01   -0.34294E+01  1440   0.129E+01    0.937E-01
DAV:   2    -0.484574378172E+03   -0.48382E-01   -0.55596E-01  1520   0.180E+00    0.833E-01
DAV:   3    -0.484571278802E+03    0.30994E-02   -0.51463E-02  1584   0.664E-01    0.570E-01
DAV:   4    -0.484568616347E+03    0.26625E-02   -0.11874E-02  1544   0.358E-01    0.352E-01
DAV:   5    -0.484568966462E+03   -0.35011E-03   -0.74385E-03  1568   0.250E-01    0.256E-01
DAV:   6    -0.484568460751E+03    0.50571E-03   -0.36652E-03  1584   0.198E-01    0.104E-01
DAV:   7    -0.484568446005E+03    0.14746E-04   -0.68410E-04  1512   0.793E-02    0.902E-02
DAV:   8    -0.484568381541E+03    0.64464E-04   -0.25161E-04  1400   0.518E-02    0.341E-02
DAV:   9    -0.484568387743E+03   -0.62021E-05   -0.56843E-05  1136   0.204E-02
  19 F= -.48456839E+03 E0= -.48453879E+03  d E =-.415250E-01
       N       E                     dE             d eps       ncg     rms          rms(c)
DAV:   1    -0.484578125149E+03   -0.97436E-02   -0.16462E+01  1432   0.894E+00    0.674E-01
DAV:   2    -0.484601862900E+03   -0.23738E-01   -0.27555E-01  1544   0.129E+00    0.724E-01
DAV:   3    -0.484599688677E+03    0.21742E-02   -0.29556E-02  1576   0.531E-01    0.451E-01
DAV:   4    -0.484598024676E+03    0.16640E-02   -0.63423E-03  1568   0.246E-01    0.259E-01
DAV:   5    -0.484598391047E+03   -0.36637E-03   -0.49760E-03  1576   0.197E-01    0.235E-01
DAV:   6    -0.484597681561E+03    0.70949E-03   -0.32008E-03  1528   0.165E-01    0.634E-02
DAV:   7    -0.484597713431E+03   -0.31871E-04   -0.31537E-04  1528   0.564E-02    0.362E-02
DAV:   8    -0.484597719746E+03   -0.63148E-05   -0.64771E-05  1200   0.295E-02
  20 F= -.48459772E+03 E0= -.48456895E+03  d E =-.293320E-01
       N       E                     dE             d eps       ncg     rms          rms(c)
DAV:   1    -0.484592586961E+03    0.51265E-02   -0.11764E+01  1432   0.755E+00    0.567E-01
DAV:   2    -0.484609716015E+03   -0.17129E-01   -0.19605E-01  1576   0.109E+00    0.614E-01
DAV:   3    -0.484608136914E+03    0.15791E-02   -0.20574E-02  1584   0.445E-01    0.383E-01
DAV:   4    -0.484606921645E+03    0.12153E-02   -0.43351E-03  1568   0.205E-01    0.214E-01
DAV:   5    -0.484607153541E+03   -0.23190E-03   -0.33308E-03  1568   0.164E-01    0.184E-01
DAV:   6    -0.484606719002E+03    0.43454E-03   -0.20728E-03  1528   0.136E-01    0.528E-02
DAV:   7    -0.484606743478E+03   -0.24476E-04   -0.20974E-04  1528   0.472E-02    0.312E-02
DAV:   8    -0.484606750189E+03   -0.67103E-05   -0.46765E-05  1144   0.254E-02
  21 F= -.48460675E+03 E0= -.48457869E+03  d E =-.383624E-01
       N       E                     dE             d eps       ncg     rms          rms(c)
DAV:   1    -0.484614152456E+03   -0.74090E-02   -0.18670E+01  1440   0.928E+00    0.764E-01
DAV:   2    -0.484642142349E+03   -0.27990E-01   -0.31662E-01  1488   0.137E+00    0.970E-01
DAV:   3    -0.484636590465E+03    0.55519E-02   -0.39811E-02  1576   0.614E-01    0.468E-01
DAV:   4    -0.484634556130E+03    0.20343E-02   -0.68961E-03  1512   0.251E-01    0.268E-01
DAV:   5    -0.484634778255E+03   -0.22212E-03   -0.55151E-03  1568   0.216E-01    0.216E-01
DAV:   6    -0.484634241699E+03    0.53656E-03   -0.29105E-03  1560   0.173E-01    0.708E-02
DAV:   7    -0.484634232773E+03    0.89259E-05   -0.28750E-04  1544   0.580E-02    0.375E-02
DAV:   8    -0.484634249675E+03   -0.16902E-04   -0.59869E-05  1168   0.239E-02    0.185E-02
DAV:   9    -0.484634261299E+03   -0.11624E-04   -0.29634E-05  1120   0.184E-02    0.127E-02
DAV:  10    -0.484634270204E+03   -0.89051E-05   -0.89924E-06  1016   0.103E-02
  22 F= -.48463427E+03 E0= -.48460689E+03  d E =-.275200E-01
       N       E                     dE             d eps       ncg     rms          rms(c)
DAV:   1    -0.484620961687E+03    0.13300E-01   -0.24859E+01  1440   0.107E+01    0.883E-01
DAV:   2    -0.484658552829E+03   -0.37591E-01   -0.41977E-01  1520   0.158E+00    0.113E+00
DAV:   3    -0.484650710384E+03    0.78424E-02   -0.52886E-02  1568   0.713E-01    0.539E-01
DAV:   4    -0.484647960627E+03    0.27498E-02   -0.87881E-03  1512   0.287E-01    0.305E-01
DAV:   5    -0.484648216167E+03   -0.25554E-03   -0.70915E-03  1568   0.253E-01    0.245E-01
DAV:   6    -0.484647538324E+03    0.67784E-03   -0.35560E-03  1544   0.198E-01    0.802E-02
DAV:   7    -0.484647521686E+03    0.16638E-04   -0.36445E-04  1528   0.659E-02    0.431E-02
DAV:   8    -0.484647542216E+03   -0.20530E-04   -0.90162E-05  1256   0.307E-02    0.276E-02
DAV:   9    -0.484647548096E+03   -0.58798E-05   -0.45759E-05  1152   0.227E-02
  23 F= -.48464755E+03 E0= -.48462064E+03  d E =-.407979E-01
       N       E                     dE             d eps       ncg     rms          rms(c)
DAV:   1    -0.484657939723E+03   -0.10398E-01   -0.15672E+01  1424   0.836E+00    0.722E-01
DAV:   2    -0.484682941654E+03   -0.25002E-01   -0.26839E-01  1496   0.127E+00    0.992E-01
DAV:   3    -0.484676280250E+03    0.66614E-02   -0.37231E-02  1544   0.603E-01    0.415E-01
DAV:   4    -0.484674705887E+03    0.15744E-02   -0.54300E-03  1528   0.227E-01    0.247E-01
DAV:   5    -0.484674875677E+03   -0.16979E-03   -0.43472E-03  1560   0.201E-01    0.196E-01
DAV:   6    -0.484674474163E+03    0.40151E-03   -0.20108E-03  1528   0.152E-01    0.583E-02
DAV:   7    -0.484674478453E+03   -0.42901E-05   -0.21864E-04  1408   0.511E-02    0.376E-02
DAV:   8    -0.484674491186E+03   -0.12733E-04   -0.70271E-05  1184   0.280E-02    0.255E-02
DAV:   9    -0.484674495587E+03   -0.44017E-05   -0.30898E-05  1096   0.176E-02
  24 F= -.48467450E+03 E0= -.48464825E+03  d E =-.269475E-01
       N       E                     dE             d eps       ncg     rms          rms(c)
DAV:   1    -0.484651345616E+03    0.23146E-01   -0.41847E+01  1424   0.137E+01    0.119E+00
DAV:   2    -0.484717863781E+03   -0.66518E-01   -0.71381E-01  1528   0.208E+00    0.159E+00
DAV:   3    -0.484700675716E+03    0.17188E-01   -0.96435E-02  1544   0.987E-01    0.681E-01
DAV:   4    -0.484696336470E+03    0.43392E-02   -0.13993E-02  1520   0.373E-01    0.400E-01
DAV:   5    -0.484696643247E+03   -0.30678E-03   -0.10846E-02  1568   0.327E-01    0.316E-01
DAV:   6    -0.484695638196E+03    0.10051E-02   -0.50221E-03  1552   0.244E-01    0.969E-02
DAV:   7    -0.484695631838E+03    0.63575E-05   -0.62669E-04  1520   0.871E-02    0.630E-02
DAV:   8    -0.484695649870E+03   -0.18031E-04   -0.19970E-04  1440   0.475E-02    0.411E-02
DAV:   9    -0.484695652354E+03   -0.24845E-05   -0.77211E-05  1168   0.272E-02
  25 F= -.48469565E+03 E0= -.48467018E+03  d E =-.481043E-01
       N       E                     dE             d eps       ncg     rms          rms(c)
DAV:   1    -0.484693972141E+03    0.16777E-02   -0.24331E+00  1424   0.329E+00    0.279E-01
DAV:   2    -0.484697810334E+03   -0.38382E-02   -0.41328E-02  1544   0.500E-01    0.374E-01
DAV:   3    -0.484696829736E+03    0.98060E-03   -0.54950E-03  1544   0.233E-01    0.162E-01
DAV:   4    -0.484696599606E+03    0.23013E-03   -0.80112E-04  1528   0.890E-02    0.957E-02
DAV:   5    -0.484696628378E+03   -0.28772E-04   -0.63591E-04  1520   0.750E-02    0.681E-02
DAV:   6    -0.484696588341E+03    0.40038E-04   -0.24690E-04  1384   0.551E-02    0.212E-02
DAV:   7    -0.484696596873E+03   -0.85320E-05   -0.26727E-05  1136   0.181E-02
  26 F= -.48469660E+03 E0= -.48467131E+03  d E =-.490488E-01
       N       E                     dE             d eps       ncg     rms          rms(c)
DAV:   1    -0.484694083281E+03    0.25051E-02   -0.24561E+01  1408   0.103E+01    0.921E-01
DAV:   2    -0.484734302486E+03   -0.40219E-01   -0.42573E-01  1544   0.163E+00    0.131E+00
DAV:   3    -0.484723220555E+03    0.11082E-01   -0.57823E-02  1544   0.778E-01    0.510E-01
DAV:   4    -0.484720981112E+03    0.22394E-02   -0.82673E-03  1520   0.288E-01    0.341E-01
DAV:   5    -0.484721290123E+03   -0.30901E-03   -0.74049E-03  1552   0.273E-01    0.291E-01
DAV:   6    -0.484720399113E+03    0.89101E-03   -0.37330E-03  1528   0.205E-01    0.660E-02
DAV:   7    -0.484720436517E+03   -0.37404E-04   -0.37687E-04  1520   0.639E-02    0.514E-02
DAV:   8    -0.484720443222E+03   -0.67046E-05   -0.12068E-04  1216   0.361E-02    0.322E-02
DAV:   9    -0.484720449098E+03   -0.58758E-05   -0.41812E-05  1120   0.196E-02
  27 F= -.48472045E+03 E0= -.48469484E+03  d E =-.238522E-01
       N       E                     dE             d eps       ncg     rms          rms(c)
DAV:   1    -0.484716499631E+03    0.39436E-02   -0.72859E+00  1408   0.563E+00    0.494E-01
DAV:   2    -0.484728341139E+03   -0.11842E-01   -0.12579E-01  1528   0.881E-01    0.696E-01
DAV:   3    -0.484725107892E+03    0.32332E-02   -0.16889E-02  1544   0.418E-01    0.277E-01
DAV:   4    -0.484724459219E+03    0.64867E-03   -0.24446E-03  1520   0.157E-01    0.185E-01
DAV:   5    -0.484724549409E+03   -0.90190E-04   -0.21913E-03  1544   0.147E-01    0.152E-01
DAV:   6    -0.484724313941E+03    0.23547E-03   -0.10426E-03  1536   0.110E-01    0.350E-02
DAV:   7    -0.484724332246E+03   -0.18304E-04   -0.10064E-04  1200   0.328E-02    0.274E-02
DAV:   8    -0.484724338458E+03   -0.62120E-05   -0.37898E-05  1176   0.204E-02
  28 F= -.48472434E+03 E0= -.48469869E+03  d E =-.277416E-01
       N       E                     dE             d eps       ncg     rms          rms(c)
DAV:   1    -0.484732667570E+03   -0.83353E-02   -0.10026E+01  1408   0.666E+00    0.625E-01
DAV:   2    -0.484750468801E+03   -0.17801E-01   -0.18385E-01  1552   0.109E+00    0.952E-01
DAV:   3    -0.484743823862E+03    0.66449E-02   -0.28345E-02  1544   0.545E-01    0.329E-01
DAV:   4    -0.484742984581E+03    0.83928E-03   -0.38910E-03  1504   0.203E-01    0.232E-01
DAV:   5    -0.484743012424E+03   -0.27843E-04   -0.31299E-03  1560   0.190E-01    0.186E-01
DAV:   6    -0.484742707201E+03    0.30522E-03   -0.13527E-03  1536   0.128E-01    0.414E-02
DAV:   7    -0.484742735790E+03   -0.28589E-04   -0.19649E-04  1336   0.455E-02    0.420E-02
DAV:   8    -0.484742727745E+03    0.80445E-05   -0.68994E-05  1184   0.278E-02
  29 F= -.48474273E+03 E0= -.48471685E+03  d E =-.183893E-01
       N       E                     dE             d eps       ncg     rms          rms(c)
DAV:   1    -0.484741914467E+03    0.82132E-03   -0.60709E+00  1408   0.518E+00    0.482E-01
DAV:   2    -0.484752539394E+03   -0.10625E-01   -0.11089E-01  1552   0.849E-01    0.724E-01
DAV:   3    -0.484748705502E+03    0.38339E-02   -0.16829E-02  1544   0.420E-01    0.257E-01
DAV:   4    -0.484748201759E+03    0.50374E-03   -0.23501E-03  1512   0.159E-01    0.180E-01
DAV:   5    -0.484748227804E+03   -0.26045E-04   -0.19012E-03  1560   0.148E-01    0.143E-01
DAV:   6    -0.484748049236E+03    0.17857E-03   -0.81001E-04  1504   0.997E-02    0.316E-02
DAV:   7    -0.484748070083E+03   -0.20847E-04   -0.10996E-04  1184   0.341E-02    0.316E-02
DAV:   8    -0.484748067556E+03    0.25266E-05   -0.41105E-05  1184   0.215E-02
  30 F= -.48474807E+03 E0= -.48472198E+03  d E =-.237291E-01
       N       E                     dE             d eps       ncg     rms          rms(c)
DAV:   1    -0.484754155134E+03   -0.60851E-02   -0.10507E+01  1408   0.701E+00    0.597E-01
DAV:   2    -0.484768838785E+03   -0.14684E-01   -0.17891E-01  1568   0.105E+00    0.648E-01
DAV:   3    -0.484766759984E+03    0.20788E-02   -0.19201E-02  1584   0.445E-01    0.366E-01
DAV:   4    -0.484765740078E+03    0.10199E-02   -0.43815E-03  1520   0.220E-01    0.230E-01
DAV:   5    -0.484765784928E+03   -0.44850E-04   -0.33209E-03  1568   0.194E-01    0.189E-01
DAV:   6    -0.484765460091E+03    0.32484E-03   -0.14888E-03  1552   0.132E-01    0.427E-02
DAV:   7    -0.484765476748E+03   -0.16657E-04   -0.18615E-04  1384   0.444E-02    0.369E-02
DAV:   8    -0.484765472185E+03    0.45632E-05   -0.61483E-05  1168   0.266E-02
  31 F= -.48476547E+03 E0= -.48473949E+03  d E =-.174046E-01
       N       E                     dE             d eps       ncg     rms          rms(c)
DAV:   1    -0.484764695245E+03    0.78150E-03   -0.37086E+00  1408   0.417E+00    0.353E-01
DAV:   2    -0.484769869036E+03   -0.51738E-02   -0.63105E-02  1568   0.620E-01    0.377E-01
DAV:   3    -0.484769172213E+03    0.69682E-03   -0.66284E-03  1584   0.261E-01    0.218E-01
DAV:   4    -0.484768820007E+03    0.35221E-03   -0.15430E-03  1528   0.131E-01    0.136E-01
DAV:   5    -0.484768846465E+03   -0.26458E-04   -0.11737E-03  1568   0.115E-01    0.111E-01
DAV:   6    -0.484768735749E+03    0.11072E-03   -0.51805E-04  1528   0.780E-02    0.250E-02
DAV:   7    -0.484768745452E+03   -0.97031E-05   -0.61594E-05  1176   0.256E-02
  32 F= -.48476875E+03 E0= -.48474258E+03  d E =-.206779E-01
       N       E                     dE             d eps       ncg     rms          rms(c)
DAV:   1    -0.484768634027E+03    0.10172E-03   -0.12925E+01  1408   0.795E+00    0.613E-01
DAV:   2    -0.484785883619E+03   -0.17250E-01   -0.21058E-01  1568   0.110E+00    0.489E-01
DAV:   3    -0.484785144966E+03    0.73865E-03   -0.14809E-02  1632   0.392E-01    0.365E-01
DAV:   4    -0.484784352055E+03    0.79291E-03   -0.39057E-03  1584   0.217E-01    0.239E-01
DAV:   5    -0.484784667794E+03   -0.31574E-03   -0.35488E-03  1576   0.197E-01    0.228E-01
DAV:   6    -0.484784174367E+03    0.49343E-03   -0.19708E-03  1552   0.149E-01    0.468E-02
DAV:   7    -0.484784197868E+03   -0.23501E-04   -0.22929E-04  1384   0.476E-02    0.377E-02
DAV:   8    -0.484784186181E+03    0.11687E-04   -0.73844E-05  1216   0.287E-02    0.200E-02
DAV:   9    -0.484784192401E+03   -0.62203E-05   -0.20820E-05  1080   0.128E-02
  33 F= -.48478419E+03 E0= -.48475822E+03  d E =-.154469E-01
       N       E                     dE             d eps       ncg     rms          rms(c)
DAV:   1    -0.484782990463E+03    0.11957E-02   -0.24944E+00  1408   0.349E+00    0.266E-01
DAV:   2    -0.484786287733E+03   -0.32973E-02   -0.40484E-02  1568   0.482E-01    0.212E-01
DAV:   3    -0.484786137438E+03    0.15029E-03   -0.27899E-03  1632   0.169E-01    0.158E-01
DAV:   4    -0.484785993456E+03    0.14398E-03   -0.75615E-04  1584   0.946E-02    0.105E-01
DAV:   5    -0.484786057560E+03   -0.64105E-04   -0.69368E-04  1568   0.865E-02    0.984E-02
DAV:   6    -0.484785964744E+03    0.92817E-04   -0.37134E-04  1400   0.648E-02    0.201E-02
DAV:   7    -0.484785972748E+03   -0.80039E-05   -0.40254E-05  1120   0.201E-02
  34 F= -.48478597E+03 E0= -.48475995E+03  d E =-.172273E-01
       N       E                     dE             d eps       ncg     rms          rms(c)
DAV:   1    -0.484781723650E+03    0.42411E-02   -0.13728E+01  1424   0.836E+00    0.612E-01
DAV:   2    -0.484799763004E+03   -0.18039E-01   -0.22022E-01  1536   0.114E+00    0.497E-01
DAV:   3    -0.484799136795E+03    0.62621E-03   -0.16387E-02  1608   0.405E-01    0.347E-01
DAV:   4    -0.484798558542E+03    0.57825E-03   -0.52104E-03  1592   0.246E-01    0.264E-01
DAV:   5    -0.484798689642E+03   -0.13110E-03   -0.35179E-03  1568   0.184E-01    0.221E-01
DAV:   6    -0.484798261939E+03    0.42770E-03   -0.15526E-03  1552   0.135E-01    0.475E-02
DAV:   7    -0.484798298091E+03   -0.36152E-04   -0.25007E-04  1576   0.486E-02    0.426E-02
DAV:   8    -0.484798283692E+03    0.14399E-04   -0.80655E-05  1152   0.315E-02    0.220E-02
DAV:   9    -0.484798286270E+03   -0.25779E-05   -0.20311E-05  1096   0.139E-02
  35 F= -.48479829E+03 E0= -.48477217E+03  d E =-.123135E-01
       N       E                     dE             d eps       ncg     rms          rms(c)
DAV:   1    -0.484798192121E+03    0.91571E-04   -0.28398E-01  1416   0.120E+00    0.873E-02
DAV:   2    -0.484798568752E+03   -0.37663E-03   -0.45943E-03  1584   0.164E-01    0.715E-02
DAV:   3    -0.484798556142E+03    0.12610E-04   -0.33519E-04  1568   0.578E-02    0.495E-02
DAV:   4    -0.484798547395E+03    0.87467E-05   -0.10669E-04  1264   0.354E-02    0.376E-02
DAV:   5    -0.484798552762E+03   -0.53663E-05   -0.77175E-05  1192   0.276E-02
  36 F= -.48479855E+03 E0= -.48477266E+03  d E =-.125800E-01
       N       E                     dE             d eps       ncg     rms          rms(c)
DAV:   1    -0.484797854610E+03    0.69279E-03   -0.64458E+00  1432   0.590E+00    0.444E-01
DAV:   2    -0.484806708055E+03   -0.88534E-02   -0.10624E-01  1576   0.817E-01    0.409E-01
DAV:   3    -0.484806212926E+03    0.49513E-03   -0.11334E-02  1552   0.334E-01    0.294E-01
DAV:   4    -0.484805574585E+03    0.63834E-03   -0.27825E-03  1560   0.177E-01    0.174E-01
DAV:   5    -0.484805705207E+03   -0.13062E-03   -0.14834E-03  1552   0.134E-01    0.147E-01
DAV:   6    -0.484805553666E+03    0.15154E-03   -0.74934E-04  1568   0.102E-01    0.349E-02
DAV:   7    -0.484805568535E+03   -0.14869E-04   -0.11833E-04  1376   0.365E-02    0.307E-02
DAV:   8    -0.484805558229E+03    0.10307E-04   -0.44126E-05  1160   0.237E-02    0.141E-02
DAV:   9    -0.484805559235E+03   -0.10070E-05   -0.98094E-06  1008   0.943E-03
  37 F= -.48480556E+03 E0= -.48477927E+03  d E =-.700647E-02
       N       E                     dE             d eps       ncg     rms          rms(c)
DAV:   1    -0.484805563512E+03   -0.52834E-05   -0.54471E-03  1472   0.172E-01    0.128E-02
DAV:   2    -0.484805572828E+03   -0.93165E-05   -0.94339E-05  1416   0.247E-02
  38 F= -.48480557E+03 E0= -.48477921E+03  d E =-.702007E-02
       N       E                     dE             d eps       ncg     rms          rms(c)
DAV:   1    -0.484807014649E+03   -0.14511E-02   -0.34305E+00  1432   0.441E+00    0.337E-01
DAV:   2    -0.484811399758E+03   -0.43851E-02   -0.56333E-02  1552   0.591E-01    0.249E-01
DAV:   3    -0.484811261271E+03    0.13849E-03   -0.40680E-03  1592   0.200E-01    0.187E-01
DAV:   4    -0.484811106274E+03    0.15500E-03   -0.13025E-03  1552   0.122E-01    0.130E-01
DAV:   5    -0.484811166886E+03   -0.60612E-04   -0.95234E-04  1544   0.106E-01    0.108E-01
DAV:   6    -0.484811069657E+03    0.97229E-04   -0.40810E-04  1528   0.727E-02    0.228E-02
DAV:   7    -0.484811076322E+03   -0.66651E-05   -0.34769E-05  1128   0.188E-02
  39 F= -.48481108E+03 E0= -.48478491E+03  d E =-.550349E-02
       N       E                     dE             d eps       ncg     rms          rms(c)
DAV:   1    -0.484811060864E+03    0.87928E-05   -0.40472E-01  1432   0.152E+00    0.116E-01
DAV:   2    -0.484811593677E+03   -0.53281E-03   -0.67339E-03  1576   0.204E-01    0.863E-02
DAV:   3    -0.484811582793E+03    0.10884E-04   -0.49890E-04  1600   0.696E-02    0.667E-02
DAV:   4    -0.484811560851E+03    0.21942E-04   -0.15742E-04  1320   0.425E-02    0.441E-02
DAV:   5    -0.484811570885E+03   -0.10035E-04   -0.10952E-04  1248   0.366E-02    0.361E-02
DAV:   6    -0.484811561315E+03    0.95705E-05   -0.46417E-05  1144   0.254E-02
  40 F= -.48481156E+03 E0= -.48478543E+03  d E =-.598849E-02
       N       E                     dE             d eps       ncg     rms          rms(c)
DAV:   1    -0.484812288243E+03   -0.71736E-03   -0.30030E+00  1440   0.420E+00    0.293E-01
DAV:   2    -0.484815980936E+03   -0.36927E-02   -0.48409E-02  1544   0.540E-01    0.186E-01
DAV:   3    -0.484815872475E+03    0.10846E-03   -0.20708E-03  1680   0.133E-01    0.121E-01
DAV:   4    -0.484815946995E+03   -0.74519E-04   -0.77948E-04  1568   0.102E-01    0.101E-01
DAV:   5    -0.484815878232E+03    0.68762E-04   -0.40541E-04  1536   0.735E-02    0.347E-02
DAV:   6    -0.484815892377E+03   -0.14145E-04   -0.10511E-04  1336   0.351E-02    0.260E-02
DAV:   7    -0.484815887407E+03    0.49707E-05   -0.36304E-05  1136   0.227E-02
  41 F= -.48481589E+03 E0= -.48478973E+03  d E =-.432609E-02
       N       E                     dE             d eps       ncg     rms          rms(c)
DAV:   1    -0.484815883741E+03    0.86366E-05   -0.86770E-02  1432   0.715E-01    0.509E-02
DAV:   2    -0.484815997783E+03   -0.11404E-03   -0.14423E-03  1568   0.935E-02    0.351E-02
DAV:   3    -0.484815999703E+03   -0.19206E-05   -0.89287E-05  1328   0.308E-02
  42 F= -.48481600E+03 E0= -.48479000E+03  d E =-.443839E-02
       N       E                     dE             d eps       ncg     rms          rms(c)
DAV:   1    -0.484816879933E+03   -0.88215E-03   -0.25403E+00  1464   0.384E+00    0.272E-01
DAV:   2    -0.484819966511E+03   -0.30866E-02   -0.40680E-02  1576   0.494E-01    0.181E-01
DAV:   3    -0.484819973915E+03   -0.74034E-05   -0.23167E-03  1576   0.146E-01    0.155E-01
DAV:   4    -0.484819884094E+03    0.89821E-04   -0.10780E-03  1568   0.107E-01    0.111E-01
DAV:   5    -0.484819878685E+03    0.54091E-05   -0.39937E-04  1536   0.682E-02    0.517E-02
DAV:   6    -0.484819894836E+03   -0.16151E-04   -0.18899E-04  1448   0.509E-02    0.384E-02
DAV:   7    -0.484819883302E+03    0.11534E-04   -0.50497E-05  1184   0.272E-02    0.975E-03
DAV:   8    -0.484819884376E+03   -0.10737E-05   -0.59257E-06   952   0.728E-03
  43 F= -.48481988E+03 E0= -.48479396E+03  d E =-.388467E-02
       N       E                     dE             d eps       ncg     rms          rms(c)
DAV:   1    -0.484819575196E+03    0.30811E-03   -0.67445E-01  1464   0.198E+00    0.137E-01
DAV:   2    -0.484820402072E+03   -0.82688E-03   -0.10825E-02  1592   0.254E-01    0.868E-02
DAV:   3    -0.484820390369E+03    0.11703E-04   -0.47021E-04  1624   0.647E-02    0.626E-02
DAV:   4    -0.484820413024E+03   -0.22655E-04   -0.25606E-04  1496   0.511E-02    0.596E-02
DAV:   5    -0.484820390326E+03    0.22698E-04   -0.13313E-04  1256   0.378E-02    0.263E-02
DAV:   6    -0.484820395822E+03   -0.54955E-05   -0.46478E-05  1184   0.249E-02
  44 F= -.48482040E+03 E0= -.48479465E+03  d E =-.439612E-02
       N       E                     dE             d eps       ncg     rms          rms(c)
DAV:   1    -0.484821087871E+03   -0.69754E-03   -0.24691E+00  1472   0.378E+00    0.274E-01
DAV:   2    -0.484824220151E+03   -0.31323E-02   -0.40439E-02  1560   0.492E-01    0.197E-01
DAV:   3    -0.484824243333E+03   -0.23183E-04   -0.29360E-03  1576   0.167E-01    0.178E-01
DAV:   4    -0.484824001947E+03    0.24139E-03   -0.11339E-03  1536   0.113E-01    0.100E-01
DAV:   5    -0.484824037188E+03   -0.35241E-04   -0.38189E-04  1576   0.663E-02    0.504E-02
DAV:   6    -0.484824040283E+03   -0.30952E-05   -0.17648E-04  1432   0.493E-02    0.313E-02
DAV:   7    -0.484824033446E+03    0.68375E-05   -0.37580E-05  1136   0.226E-02
  45 F= -.48482403E+03 E0= -.48479815E+03  d E =-.363762E-02
       N       E                     dE             d eps       ncg     rms          rms(c)
DAV:   1    -0.484823544322E+03    0.49596E-03   -0.93287E-01  1472   0.233E+00    0.168E-01
DAV:   2    -0.484824733201E+03   -0.11889E-02   -0.15338E-02  1576   0.303E-01    0.122E-01
DAV:   3    -0.484824745047E+03   -0.11845E-04   -0.11288E-03  1584   0.104E-01    0.109E-01
DAV:   4    -0.484824653407E+03    0.91640E-04   -0.42880E-04  1536   0.699E-02    0.617E-02
DAV:   5    -0.484824674120E+03   -0.20713E-04   -0.15287E-04  1560   0.422E-02    0.364E-02
DAV:   6    -0.484824670955E+03    0.31649E-05   -0.75332E-05  1232   0.326E-02
  46 F= -.48482467E+03 E0= -.48479866E+03  d E =-.427513E-02
       N       E                     dE             d eps       ncg     rms          rms(c)
DAV:   1    -0.484825080025E+03   -0.40590E-03   -0.26591E+00  1456   0.394E+00    0.281E-01
DAV:   2    -0.484828544162E+03   -0.34641E-02   -0.44066E-02  1584   0.522E-01    0.234E-01
DAV:   3    -0.484828436300E+03    0.10786E-03   -0.41366E-03  1568   0.197E-01    0.187E-01
DAV:   4    -0.484828151866E+03    0.28443E-03   -0.11575E-03  1528   0.116E-01    0.101E-01
DAV:   5    -0.484828246887E+03   -0.95020E-04   -0.54395E-04  1560   0.821E-02    0.846E-02
DAV:   6    -0.484828198171E+03    0.48715E-04   -0.27743E-04  1456   0.627E-02    0.232E-02
DAV:   7    -0.484828198661E+03   -0.49022E-06   -0.27928E-05  1096   0.177E-02
  47 F= -.48482820E+03 E0= -.48480239E+03  d E =-.352771E-02
       N       E                     dE             d eps       ncg     rms          rms(c)
DAV:   1    -0.484827621063E+03    0.57711E-03   -0.10282E+00  1456   0.245E+00    0.175E-01
DAV:   2    -0.484828968365E+03   -0.13473E-02   -0.17116E-02  1584   0.325E-01    0.146E-01
DAV:   3    -0.484828918076E+03    0.50289E-04   -0.16117E-03  1568   0.122E-01    0.116E-01
DAV:   4    -0.484828814326E+03    0.10375E-03   -0.44407E-04  1536   0.718E-02    0.635E-02
DAV:   5    -0.484828859567E+03   -0.45242E-04   -0.22320E-04  1576   0.533E-02    0.556E-02
DAV:   6    -0.484828836089E+03    0.23478E-04   -0.11017E-04  1216   0.397E-02    0.138E-02
DAV:   7    -0.484828838292E+03   -0.22029E-05   -0.11285E-05   976   0.114E-02
  48 F= -.48482884E+03 E0= -.48480306E+03  d E =-.416734E-02
       N       E                     dE             d eps       ncg     rms          rms(c)
DAV:   1    -0.484828828937E+03    0.71517E-05   -0.25802E+00  1456   0.393E+00    0.266E-01
DAV:   2    -0.484832241093E+03   -0.34122E-02   -0.42447E-02  1520   0.510E-01    0.196E-01
DAV:   3    -0.484832205983E+03    0.35110E-04   -0.27764E-03  1600   0.166E-01    0.154E-01
DAV:   4    -0.484832091183E+03    0.11480E-03   -0.10843E-03  1552   0.109E-01    0.107E-01
DAV:   5    -0.484832134884E+03   -0.43701E-04   -0.54256E-04  1544   0.789E-02    0.895E-02
DAV:   6    -0.484832082358E+03    0.52526E-04   -0.25439E-04  1568   0.597E-02    0.228E-02
DAV:   7    -0.484832085450E+03   -0.30920E-05   -0.38632E-05  1192   0.217E-02
  49 F= -.48483209E+03 E0= -.48480667E+03  d E =-.324716E-02
       N       E                     dE             d eps       ncg     rms          rms(c)
DAV:   1    -0.484831689109E+03    0.39325E-03   -0.71807E-01  1456   0.207E+00    0.142E-01
DAV:   2    -0.484832647883E+03   -0.95877E-03   -0.11867E-02  1528   0.268E-01    0.103E-01
DAV:   3    -0.484832645454E+03    0.24289E-05   -0.75550E-04  1608   0.854E-02    0.804E-02
DAV:   4    -0.484832615529E+03    0.29925E-04   -0.30701E-04  1464   0.575E-02    0.561E-02
DAV:   5    -0.484832633310E+03   -0.17781E-04   -0.14599E-04  1376   0.419E-02    0.473E-02
DAV:   6    -0.484832619156E+03    0.14154E-04   -0.69437E-05  1192   0.316E-02    0.120E-02
DAV:   7    -0.484832620324E+03   -0.11680E-05   -0.92869E-06  1008   0.111E-02
  50 F= -.48483262E+03 E0= -.48480731E+03  d E =-.378203E-02
       N       E                     dE             d eps       ncg     rms          rms(c)
DAV:   1    -0.484832829857E+03   -0.21070E-03   -0.21393E+00  1424   0.365E+00    0.254E-01
DAV:   2    -0.484835796507E+03   -0.29666E-02   -0.36381E-02  1544   0.481E-01    0.190E-01
DAV:   3    -0.484835723705E+03    0.72801E-04   -0.21619E-03  1592   0.156E-01    0.137E-01
DAV:   4    -0.484835680854E+03    0.42851E-04   -0.71422E-04  1576   0.101E-01    0.107E-01
DAV:   5    -0.484835725394E+03   -0.44539E-04   -0.45184E-04  1560   0.754E-02    0.810E-02
DAV:   6    -0.484835675050E+03    0.50343E-04   -0.28003E-04  1424   0.588E-02    0.260E-02
DAV:   7    -0.484835676166E+03   -0.11160E-05   -0.41984E-05  1064   0.210E-02
  51 F= -.48483568E+03 E0= -.48481041E+03  d E =-.305584E-02
       N       E                     dE             d eps       ncg     rms          rms(c)
DAV:   1    -0.484834986923E+03    0.68813E-03   -0.93477E-01  1424   0.241E+00    0.170E-01
DAV:   2    -0.484836294037E+03   -0.13071E-02   -0.15977E-02  1552   0.318E-01    0.126E-01
DAV:   3    -0.484836266150E+03    0.27886E-04   -0.95715E-04  1600   0.105E-01    0.897E-02
DAV:   4    -0.484836249534E+03    0.16616E-04   -0.31661E-04  1568   0.680E-02    0.692E-02
DAV:   5    -0.484836272069E+03   -0.22535E-04   -0.17553E-04  1480   0.477E-02    0.513E-02
DAV:   6    -0.484836254358E+03    0.17711E-04   -0.11576E-04  1232   0.380E-02    0.193E-02
DAV:   7    -0.484836254438E+03   -0.79490E-07   -0.21154E-05  1024   0.150E-02
  52 F= -.48483625E+03 E0= -.48481095E+03  d E =-.363411E-02
       N       E                     dE             d eps       ncg     rms          rms(c)
DAV:   1    -0.484835671024E+03    0.58333E-03   -0.23424E+00  1408   0.389E+00    0.268E-01
DAV:   2    -0.484838959920E+03   -0.32889E-02   -0.40405E-02  1520   0.508E-01    0.195E-01
DAV:   3    -0.484838875918E+03    0.84002E-04   -0.25173E-03  1632   0.169E-01    0.140E-01
DAV:   4    -0.484838817221E+03    0.58697E-04   -0.90546E-04  1568   0.108E-01    0.996E-02
DAV:   5    -0.484838873146E+03   -0.55925E-04   -0.52822E-04  1552   0.770E-02    0.882E-02
DAV:   6    -0.484838803326E+03    0.69820E-04   -0.25870E-04  1560   0.546E-02    0.258E-02
DAV:   7    -0.484838811053E+03   -0.77266E-05   -0.43934E-05  1192   0.234E-02
  53 F= -.48483881E+03 E0= -.48481364E+03  d E =-.255662E-02
       N       E                     dE             d eps       ncg     rms          rms(c)
DAV:   1    -0.484838500300E+03    0.30303E-03   -0.47686E-01  1408   0.175E+00    0.122E-01
DAV:   2    -0.484839176723E+03   -0.67642E-03   -0.82743E-03  1560   0.229E-01    0.883E-02
DAV:   3    -0.484839163983E+03    0.12740E-04   -0.51439E-04  1624   0.762E-02    0.629E-02
DAV:   4    -0.484839154106E+03    0.98770E-05   -0.18517E-04  1392   0.489E-02    0.441E-02
DAV:   5    -0.484839167375E+03   -0.13269E-04   -0.10004E-04  1240   0.335E-02    0.356E-02
DAV:   6    -0.484839156129E+03    0.11246E-04   -0.49375E-05  1192   0.239E-02    0.129E-02
DAV:   7    -0.484839157890E+03   -0.17612E-05   -0.97032E-06  1016   0.116E-02
  54 F= -.48483916E+03 E0= -.48481402E+03  d E =-.290345E-02
       N       E                     dE             d eps       ncg     rms          rms(c)
DAV:   1    -0.484839353968E+03   -0.19784E-03   -0.17762E+00  1424   0.345E+00    0.253E-01
DAV:   2    -0.484841858939E+03   -0.25050E-02   -0.31915E-02  1552   0.458E-01    0.210E-01
DAV:   3    -0.484841823266E+03    0.35673E-04   -0.29529E-03  1624   0.183E-01    0.180E-01
DAV:   4    -0.484841578480E+03    0.24479E-03   -0.88425E-04  1552   0.104E-01    0.875E-02
DAV:   5    -0.484841616127E+03   -0.37647E-04   -0.30088E-04  1576   0.588E-02    0.516E-02
DAV:   6    -0.484841611582E+03    0.45441E-05   -0.16535E-04  1416   0.482E-02    0.257E-02
DAV:   7    -0.484841607034E+03    0.45488E-05   -0.33143E-05  1152   0.215E-02
  55 F= -.48484161E+03 E0= -.48481671E+03  d E =-.244914E-02
       N       E                     dE             d eps       ncg     rms          rms(c)
DAV:   1    -0.484841321148E+03    0.29043E-03   -0.49977E-01  1432   0.183E+00    0.135E-01
DAV:   2    -0.484842029328E+03   -0.70818E-03   -0.89723E-03  1560   0.243E-01    0.111E-01
DAV:   3    -0.484842019123E+03    0.10205E-04   -0.84093E-04  1624   0.958E-02    0.954E-02
DAV:   4    -0.484841951450E+03    0.67673E-04   -0.25123E-04  1512   0.550E-02    0.467E-02
DAV:   5    -0.484841968807E+03   -0.17357E-04   -0.95182E-05  1432   0.344E-02    0.325E-02
DAV:   6    -0.484841963380E+03    0.54272E-05   -0.55912E-05  1200   0.280E-02
  56 F= -.48484196E+03 E0= -.48481704E+03  d E =-.280549E-02
       N       E                     dE             d eps       ncg     rms          rms(c)
DAV:   1    -0.484842255336E+03   -0.28653E-03   -0.14398E+00  1416   0.312E+00    0.228E-01
DAV:   2    -0.484844278197E+03   -0.20229E-02   -0.25689E-02  1552   0.408E-01    0.182E-01
DAV:   3    -0.484844276076E+03    0.21213E-05   -0.23118E-03  1616   0.163E-01    0.165E-01
DAV:   4    -0.484844084361E+03    0.19171E-03   -0.70194E-04  1576   0.933E-02    0.803E-02
DAV:   5    -0.484844125799E+03   -0.41438E-04   -0.21066E-04  1592   0.485E-02    0.428E-02
DAV:   6    -0.484844132488E+03   -0.66884E-05   -0.12736E-04  1400   0.421E-02    0.260E-02
DAV:   7    -0.484844127097E+03    0.53904E-05   -0.29809E-05  1144   0.208E-02
  57 F= -.48484413E+03 E0= -.48481934E+03  d E =-.216372E-02
       N       E                     dE             d eps       ncg     rms          rms(c)
DAV:   1    -0.484842412734E+03    0.17198E-02   -0.20527E+00  1416   0.373E+00    0.273E-01
DAV:   2    -0.484845310955E+03   -0.28982E-02   -0.36724E-02  1552   0.488E-01    0.217E-01
DAV:   3    -0.484845303882E+03    0.70727E-05   -0.33390E-03  1608   0.193E-01    0.196E-01
DAV:   4    -0.484845021990E+03    0.28189E-03   -0.10128E-03  1568   0.111E-01    0.959E-02
DAV:   5    -0.484845084626E+03   -0.62636E-04   -0.32417E-04  1600   0.619E-02    0.577E-02
DAV:   6    -0.484845087198E+03   -0.25712E-05   -0.21325E-04  1416   0.539E-02    0.318E-02
DAV:   7    -0.484845078868E+03    0.83296E-05   -0.43724E-05  1168   0.244E-02
  58 F= -.48484508E+03 E0= -.48482032E+03  d E =-.311549E-02
       N       E                     dE             d eps       ncg     rms          rms(c)
DAV:   1    -0.484845089238E+03   -0.20403E-05   -0.16348E+00  1416   0.333E+00    0.233E-01
DAV:   2    -0.484847334050E+03   -0.22448E-02   -0.28465E-02  1552   0.420E-01    0.146E-01
DAV:   3    -0.484847282008E+03    0.52042E-04   -0.10941E-03  1728   0.973E-02    0.975E-02
DAV:   4    -0.484847388106E+03   -0.10610E-03   -0.51237E-04  1576   0.735E-02    0.914E-02
DAV:   5    -0.484847324912E+03    0.63194E-04   -0.35672E-04  1512   0.597E-02    0.433E-02
DAV:   6    -0.484847342754E+03   -0.17841E-04   -0.12104E-04  1144   0.397E-02    0.362E-02
DAV:   7    -0.484847331299E+03    0.11454E-04   -0.36526E-05  1184   0.241E-02    0.101E-02
DAV:   8    -0.484847332135E+03   -0.83586E-06   -0.63377E-06   912   0.924E-03
  59 F= -.48484733E+03 E0= -.48482249E+03  d E =-.225327E-02
       N       E                     dE             d eps       ncg     rms          rms(c)
DAV:   1    -0.484846636522E+03    0.69478E-03   -0.10804E+00  1416   0.271E+00    0.189E-01
DAV:   2    -0.484848117779E+03   -0.14813E-02   -0.18812E-02  1552   0.342E-01    0.120E-01
DAV:   3    -0.484848081474E+03    0.36305E-04   -0.75449E-04  1680   0.845E-02    0.813E-02
DAV:   4    -0.484848131187E+03   -0.49713E-04   -0.32867E-04  1560   0.614E-02    0.687E-02
DAV:   5    -0.484848110144E+03    0.21043E-04   -0.20806E-04  1424   0.459E-02    0.368E-02
DAV:   6    -0.484848117140E+03   -0.69956E-05   -0.96083E-05  1120   0.342E-02
  60 F= -.48484812E+03 E0= -.48482317E+03  d E =-.303827E-02
       N       E                     dE             d eps       ncg     rms          rms(c)
DAV:   1    -0.484847963315E+03    0.14683E-03   -0.13478E-01  1416   0.957E-01    0.693E-02
DAV:   2    -0.484848153976E+03   -0.19066E-03   -0.23699E-03  1568   0.122E-01    0.455E-02
DAV:   3    -0.484848154623E+03   -0.64688E-06   -0.12255E-04  1504   0.372E-02    0.381E-02
DAV:   4    -0.484848154626E+03   -0.23101E-08   -0.49546E-05  1208   0.263E-02
  61 F= -.48484815E+03 E0= -.48482314E+03  d E =-.307576E-02
       N       E                     dE             d eps       ncg     rms          rms(c)
DAV:   1    -0.484847820881E+03    0.33374E-03   -0.17890E+00  1424   0.347E+00    0.252E-01
DAV:   2    -0.484850096151E+03   -0.22753E-02   -0.31059E-02  1536   0.444E-01    0.167E-01
DAV:   3    -0.484850097021E+03   -0.86977E-06   -0.16276E-03  1640   0.134E-01    0.135E-01
DAV:   4    -0.484850087290E+03    0.97307E-05   -0.68911E-04  1576   0.944E-02    0.107E-01
DAV:   5    -0.484850121110E+03   -0.33820E-04   -0.39803E-04  1568   0.710E-02    0.682E-02
DAV:   6    -0.484850094993E+03    0.26117E-04   -0.21681E-04  1384   0.527E-02    0.256E-02
DAV:   7    -0.484850096977E+03   -0.19841E-05   -0.33947E-05  1088   0.209E-02
  62 F= -.48485010E+03 E0= -.48482526E+03  d E =-.194235E-02
       N       E                     dE             d eps       ncg     rms          rms(c)
DAV:   1    -0.484849058504E+03    0.10365E-02   -0.11993E+00  1424   0.284E+00    0.205E-01
DAV:   2    -0.484850646881E+03   -0.15884E-02   -0.21013E-02  1552   0.364E-01    0.140E-01
DAV:   3    -0.484850678781E+03   -0.31900E-04   -0.12210E-03  1616   0.118E-01    0.130E-01
DAV:   4    -0.484850612137E+03    0.66644E-04   -0.51725E-04  1560   0.809E-02    0.810E-02
DAV:   5    -0.484850637565E+03   -0.25428E-04   -0.21772E-04  1552   0.511E-02    0.421E-02
DAV:   6    -0.484850636212E+03    0.13530E-05   -0.12642E-04  1312   0.390E-02    0.236E-02
DAV:   7    -0.484850634556E+03    0.16557E-05   -0.26075E-05  1048   0.190E-02
  63 F= -.48485063E+03 E0= -.48482591E+03  d E =-.247993E-02
       N       E                     dE             d eps       ncg     rms          rms(c)
DAV:   1    -0.484849906848E+03    0.72936E-03   -0.23846E+00  1416   0.402E+00    0.307E-01
DAV:   2    -0.484853027889E+03   -0.31210E-02   -0.43209E-02  1568   0.527E-01    0.241E-01
DAV:   3    -0.484853038415E+03   -0.10526E-04   -0.39262E-03  1608   0.206E-01    0.220E-01
DAV:   4    -0.484852709539E+03    0.32888E-03   -0.12807E-03  1536   0.124E-01    0.103E-01
DAV:   5    -0.484852803723E+03   -0.94184E-04   -0.47551E-04  1592   0.783E-02    0.668E-02
DAV:   6    -0.484852785126E+03    0.18597E-04   -0.21197E-04  1432   0.557E-02    0.240E-02
DAV:   7    -0.484852787417E+03   -0.22910E-05   -0.34437E-05  1136   0.204E-02
  64 F= -.48485279E+03 E0= -.48482822E+03  d E =-.215286E-02
       N       E                     dE             d eps       ncg     rms          rms(c)
DAV:   1    -0.484852521346E+03    0.26378E-03   -0.38563E-01  1416   0.161E+00    0.124E-01
DAV:   2    -0.484853036590E+03   -0.51524E-03   -0.70522E-03  1584   0.213E-01    0.975E-02
DAV:   3    -0.484853034527E+03    0.20624E-05   -0.69706E-04  1576   0.840E-02    0.870E-02
DAV:   4    -0.484852980288E+03    0.54240E-04   -0.21096E-04  1432   0.496E-02    0.419E-02
DAV:   5    -0.484853005714E+03   -0.25426E-04   -0.87780E-05  1304   0.345E-02    0.346E-02
DAV:   6    -0.484852999342E+03    0.63718E-05   -0.47297E-05  1176   0.265E-02
  65 F= -.48485300E+03 E0= -.48482833E+03  d E =-.236479E-02
       N       E                     dE             d eps       ncg     rms          rms(c)
DAV:   1    -0.484851914657E+03    0.10911E-02   -0.22943E+00  1416   0.394E+00    0.300E-01
DAV:   2    -0.484854789602E+03   -0.28749E-02   -0.41127E-02  1568   0.514E-01    0.210E-01
DAV:   3    -0.484854844309E+03   -0.54707E-04   -0.27942E-03  1600   0.180E-01    0.193E-01
DAV:   4    -0.484854662585E+03    0.18172E-03   -0.11159E-03  1536   0.117E-01    0.111E-01
DAV:   5    -0.484854740676E+03   -0.78090E-04   -0.53011E-04  1568   0.814E-02    0.751E-02
DAV:   6    -0.484854712075E+03    0.28600E-04   -0.26888E-04  1416   0.603E-02    0.263E-02
DAV:   7    -0.484854717660E+03   -0.55851E-05   -0.39957E-05  1112   0.234E-02
  66 F= -.48485472E+03 E0= -.48483005E+03  d E =-.171832E-02
       N       E                     dE             d eps       ncg     rms          rms(c)
DAV:   1    -0.484854641247E+03    0.70829E-04   -0.10556E-01  1408   0.846E-01    0.650E-02
DAV:   2    -0.484854781075E+03   -0.13983E-03   -0.19238E-03  1600   0.112E-01    0.476E-02
DAV:   3    -0.484854784599E+03   -0.35241E-05   -0.13997E-04  1488   0.428E-02    0.423E-02
DAV:   4    -0.484854778484E+03    0.61151E-05   -0.47003E-05  1200   0.262E-02
  67 F= -.48485478E+03 E0= -.48483026E+03  d E =-.177914E-02
       N       E                     dE             d eps       ncg     rms          rms(c)
DAV:   1    -0.484854337763E+03    0.44684E-03   -0.14850E+00  1416   0.320E+00    0.236E-01
DAV:   2    -0.484856302709E+03   -0.19649E-02   -0.26629E-02  1600   0.409E-01    0.164E-01
DAV:   3    -0.484856345492E+03   -0.42783E-04   -0.15226E-03  1624   0.134E-01    0.152E-01
DAV:   4    -0.484856254713E+03    0.90778E-04   -0.73894E-04  1552   0.951E-02    0.956E-02
DAV:   5    -0.484856279611E+03   -0.24898E-04   -0.24691E-04  1528   0.534E-02    0.330E-02
DAV:   6    -0.484856299038E+03   -0.19427E-04   -0.10599E-04  1344   0.347E-02    0.263E-02
DAV:   7    -0.484856291983E+03    0.70554E-05   -0.35040E-05  1080   0.215E-02
  68 F= -.48485629E+03 E0= -.48483169E+03  d E =-.151350E-02
       N       E                     dE             d eps       ncg     rms          rms(c)
DAV:   1    -0.484855983443E+03    0.31559E-03   -0.38711E-01  1416   0.164E+00    0.119E-01
DAV:   2    -0.484856507990E+03   -0.52455E-03   -0.69919E-03  1592   0.209E-01    0.795E-02
DAV:   3    -0.484856505250E+03    0.27396E-05   -0.32673E-04  1624   0.637E-02    0.625E-02
DAV:   4    -0.484856507680E+03   -0.24298E-05   -0.15086E-04  1384   0.473E-02    0.507E-02
DAV:   5    -0.484856517376E+03   -0.96961E-05   -0.73069E-05  1192   0.311E-02
  69 F= -.48485652E+03 E0= -.48483169E+03  d E =-.173889E-02
       N       E                     dE             d eps       ncg     rms          rms(c)
DAV:   1    -0.484855995214E+03    0.51247E-03   -0.15141E+00  1408   0.327E+00    0.254E-01
DAV:   2    -0.484858080872E+03   -0.20857E-02   -0.28810E-02  1656   0.436E-01    0.215E-01
DAV:   3    -0.484858036481E+03    0.44391E-04   -0.25459E-03  1576   0.177E-01    0.175E-01
DAV:   4    -0.484857867552E+03    0.16893E-03   -0.81022E-04  1536   0.103E-01    0.937E-02
DAV:   5    -0.484857951313E+03   -0.83761E-04   -0.38561E-04  1536   0.671E-02    0.638E-02
DAV:   6    -0.484857931691E+03    0.19622E-04   -0.22537E-04  1416   0.528E-02    0.249E-02
DAV:   7    -0.484857934843E+03   -0.31516E-05   -0.37298E-05  1120   0.222E-02
  70 F= -.48485793E+03 E0= -.48483321E+03  d E =-.141747E-02
       N       E                     dE             d eps       ncg     rms          rms(c)
DAV:   1    -0.484857733235E+03    0.19846E-03   -0.26959E-01  1408   0.138E+00    0.107E-01
DAV:   2    -0.484858124994E+03   -0.39176E-03   -0.51991E-03  1656   0.186E-01    0.963E-02
DAV:   3    -0.484858109486E+03    0.15508E-04   -0.50489E-04  1592   0.786E-02    0.741E-02
DAV:   4    -0.484858077953E+03    0.31533E-04   -0.13688E-04  1312   0.422E-02    0.375E-02
DAV:   5    -0.484858095359E+03   -0.17406E-04   -0.55372E-05  1112   0.248E-02    0.210E-02
DAV:   6    -0.484858095739E+03   -0.37940E-06   -0.34339E-05  1120   0.207E-02
  71 F= -.48485810E+03 E0= -.48483344E+03  d E =-.157836E-02
       N       E                     dE             d eps       ncg     rms          rms(c)
DAV:   1    -0.484857564346E+03    0.53101E-03   -0.14918E+00  1408   0.327E+00    0.257E-01
DAV:   2    -0.484859593420E+03   -0.20291E-02   -0.28819E-02  1640   0.429E-01    0.194E-01
DAV:   3    -0.484859620714E+03   -0.27295E-04   -0.21560E-03  1600   0.168E-01    0.173E-01
DAV:   4    -0.484859453656E+03    0.16706E-03   -0.83227E-04  1560   0.105E-01    0.971E-02
DAV:   5    -0.484859522252E+03   -0.68595E-04   -0.32465E-04  1536   0.580E-02    0.557E-02
DAV:   6    -0.484859519676E+03    0.25752E-05   -0.22716E-04  1344   0.501E-02    0.312E-02
DAV:   7    -0.484859515857E+03    0.38190E-05   -0.45387E-05  1096   0.249E-02
  72 F= -.48485952E+03 E0= -.48483471E+03  d E =-.142012E-02
       N       E                     dE             d eps       ncg     rms          rms(c)
DAV:   1    -0.484859227891E+03    0.29179E-03   -0.34850E-01  1408   0.158E+00    0.124E-01
DAV:   2    -0.484859711444E+03   -0.48355E-03   -0.67696E-03  1624   0.209E-01    0.972E-02
DAV:   3    -0.484859715413E+03   -0.39689E-05   -0.53153E-04  1616   0.839E-02    0.846E-02
DAV:   4    -0.484859677044E+03    0.38368E-04   -0.19205E-04  1408   0.506E-02    0.465E-02
DAV:   5    -0.484859696480E+03   -0.19436E-04   -0.80552E-05  1216   0.287E-02    0.287E-02
DAV:   6    -0.484859693111E+03    0.33693E-05   -0.56727E-05  1096   0.253E-02
  73 F= -.48485969E+03 E0= -.48483490E+03  d E =-.159737E-02
       N       E                     dE             d eps       ncg     rms          rms(c)
DAV:   1    -0.484858680908E+03    0.10156E-02   -0.16919E+00  1408   0.350E+00    0.290E-01
DAV:   2    -0.484861328526E+03   -0.26476E-02   -0.34120E-02  1640   0.480E-01    0.267E-01
DAV:   3    -0.484861089043E+03    0.23948E-03   -0.38742E-03  1552   0.215E-01    0.195E-01
DAV:   4    -0.484860819369E+03    0.26967E-03   -0.97837E-04  1528   0.113E-01    0.956E-02
DAV:   5    -0.484860892901E+03   -0.73533E-04   -0.29705E-04  1616   0.547E-02    0.390E-02
DAV:   6    -0.484860912461E+03   -0.19559E-04   -0.11909E-04  1400   0.383E-02    0.270E-02
DAV:   7    -0.484860907694E+03    0.47667E-05   -0.40457E-05  1152   0.239E-02
  74 F= -.48486091E+03 E0= -.48483598E+03  d E =-.121458E-02
       N       E                     dE             d eps       ncg     rms          rms(c)
DAV:   1    -0.484860850791E+03    0.61670E-04   -0.74718E-02  1408   0.736E-01    0.617E-02
DAV:   2    -0.484860973199E+03   -0.12241E-03   -0.15285E-03  1656   0.103E-01    0.594E-02
DAV:   3    -0.484860961820E+03    0.11379E-04   -0.17500E-04  1456   0.474E-02    0.407E-02
DAV:   4    -0.484860951594E+03    0.10226E-04   -0.41765E-05  1160   0.238E-02    0.201E-02
DAV:   5    -0.484860958525E+03   -0.69311E-05   -0.18486E-05   976   0.142E-02
  75 F= -.48486096E+03 E0= -.48483590E+03  d E =-.126541E-02
       N       E                     dE             d eps       ncg     rms          rms(c)
DAV:   1    -0.484860541120E+03    0.41047E-03   -0.12772E+00  1408   0.305E+00    0.268E-01
DAV:   2    -0.484862650051E+03   -0.21089E-02   -0.26905E-02  1648   0.438E-01    0.286E-01
DAV:   3    -0.484862188595E+03    0.46146E-03   -0.36469E-03  1560   0.210E-01    0.165E-01
DAV:   4    -0.484862012286E+03    0.17631E-03   -0.75859E-04  1480   0.100E-01    0.857E-02
DAV:   5    -0.484862070522E+03   -0.58236E-04   -0.27271E-04  1600   0.541E-02    0.393E-02
DAV:   6    -0.484862077125E+03   -0.66031E-05   -0.11607E-04  1360   0.395E-02    0.253E-02
DAV:   7    -0.484862074644E+03    0.24813E-05   -0.31709E-05  1120   0.221E-02
  76 F= -.48486207E+03 E0= -.48483703E+03  d E =-.111612E-02
       N       E                     dE             d eps       ncg     rms          rms(c)
DAV:   1    -0.484861974182E+03    0.10294E-03   -0.15913E-01  1408   0.108E+00    0.944E-02
DAV:   2    -0.484862239785E+03   -0.26560E-03   -0.33606E-03  1640   0.156E-01    0.101E-01
DAV:   3    -0.484862186241E+03    0.53543E-04   -0.44790E-04  1560   0.747E-02    0.579E-02
DAV:   4    -0.484862166172E+03    0.20069E-04   -0.92043E-05  1232   0.349E-02    0.302E-02
DAV:   5    -0.484862177062E+03   -0.10890E-04   -0.37216E-05  1088   0.196E-02    0.157E-02
DAV:   6    -0.484862177468E+03   -0.40565E-06   -0.21185E-05  1040   0.161E-02
  77 F= -.48486218E+03 E0= -.48483714E+03  d E =-.121894E-02
       N       E                     dE             d eps       ncg     rms          rms(c)
DAV:   1    -0.484861595860E+03    0.58120E-03   -0.12669E+00  1440   0.304E+00    0.245E-01
DAV:   2    -0.484863391968E+03   -0.17961E-02   -0.24613E-02  1616   0.413E-01    0.231E-01
DAV:   3    -0.484863231362E+03    0.16061E-03   -0.27109E-03  1608   0.184E-01    0.160E-01
DAV:   4    -0.484863064215E+03    0.16715E-03   -0.70655E-04  1536   0.967E-02    0.853E-02
DAV:   5    -0.484863133341E+03   -0.69126E-04   -0.31051E-04  1648   0.545E-02    0.461E-02
DAV:   6    -0.484863122715E+03    0.10625E-04   -0.16694E-04  1360   0.433E-02    0.239E-02
DAV:   7    -0.484863122337E+03    0.37846E-06   -0.29431E-05  1128   0.207E-02
  78 F= -.48486312E+03 E0= -.48483808E+03  d E =-.944869E-03
