<?xml version="1.0" encoding="ISO-8859-1"?>
<modeling>
 <generator>
  <i name="program" type="string">vasp </i>
  <i name="version" type="string">6.3.2  </i>
  <i name="subversion" type="string">27Jun22 (build May 04 2024 18:40:40) complex                          parallel </i>
  <i name="platform" type="string">LinuxIFC </i>
  <i name="date" type="string">2024 09 03 </i>
  <i name="time" type="string">05:26:31 </i>
 </generator>
 <incar>
  <i type="string" name="SYSTEM">slab_Cel1-OPT</i>
  <i type="int" name="ISTART">     0</i>
  <i type="string" name="PREC">N</i>
  <i type="string" name="ALGO">N</i>
  <i type="int" name="ICHARG">     2</i>
  <i type="int" name="NELM">   200</i>
  <i type="int" name="IBRION">     2</i>
  <i name="EDIFF">      0.00001000</i>
  <i name="EDIFFG">     -0.05000000</i>
  <i type="int" name="NSW">  1000</i>
  <i type="int" name="ISIF">     3</i>
  <i name="ENCUT">    400.00000000</i>
  <i name="POTIM">      0.10000000</i>
  <i type="string" name="LREAL">AUTO</i>
  <i type="int" name="ISMEAR">     0</i>
  <i name="SIGMA">      0.10000000</i>
  <i type="logical" name="LWAVE"> F  </i>
  <i type="logical" name="LCHARG"> F  </i>
  <i type="logical" name="LELF"> F  </i>
  <i type="logical" name="LAECHG"> F  </i>
  <i type="logical" name="LDIPOL"> T  </i>
  <i type="int" name="IDIPOL">     3</i>
 </incar>
 <primitive_cell>
  <structure name="primitive_cell" >
   <crystal>
    <varray name="basis" >
     <v>      13.75970367       0.00000000       0.00000000 </v>
     <v>       0.00000000      11.28669971       0.00000000 </v>
     <v>       0.00000000       0.00000000      15.00000000 </v>
    </varray>
    <i name="volume">   2329.52465126 </i>
    <varray name="rec_basis" >
     <v>       0.07267598       0.00000000       0.00000000 </v>
     <v>       0.00000000       0.08859986       0.00000000 </v>
     <v>       0.00000000       0.00000000       0.06666667 </v>
    </varray>
   </crystal>
   <varray name="positions" >
    <v>       0.07054120       0.38816457       0.22227495 </v>
    <v>       0.98151180       0.21832942       0.16785344 </v>
    <v>       0.22877304       0.39667288       0.18904348 </v>
    <v>       0.82472337       0.57572318       0.18403191 </v>
    <v>       0.14970601       0.24663792       0.12277753 </v>
    <v>       0.90758628       0.38434512       0.21811946 </v>
    <v>       0.56886571       0.39316130       0.23173729 </v>
    <v>       0.47768100       0.22391730       0.18017943 </v>
    <v>       0.73035049       0.39802658       0.19909345 </v>
    <v>       0.31101118       0.58132963       0.17977696 </v>
    <v>       0.64681854       0.25040749       0.13377315 </v>
    <v>       0.40275100       0.39355427       0.22106508 </v>
    <v>       0.81808056       0.88988957       0.05647519 </v>
    <v>       0.73319531       0.72568325       0.12448457 </v>
    <v>       0.97932824       0.89597624       0.07999408 </v>
    <v>       0.06867909       0.07698375       0.09423854 </v>
    <v>       0.90528082       0.74258583       0.14719628 </v>
    <v>       0.65472406       0.89333727       0.07691603 </v>
    <v>       0.31825350       0.89473226       0.05377466 </v>
    <v>       0.22716619       0.72126926       0.10084126 </v>
    <v>       0.47498917       0.90396535       0.09489577 </v>
    <v>       0.56592959       0.08075138       0.11024766 </v>
    <v>       0.38612516       0.76037560       0.16363174 </v>
    <v>       0.15509033       0.88950396       0.05271529 </v>
    <v>       0.98784551       0.43883046       0.24713656 </v>
    <v>       0.89991795       0.26975381       0.19549767 </v>
    <v>       0.15759857       0.43325808       0.24240148 </v>
    <v>       0.14788829       0.14353661       0.08017307 </v>
    <v>       0.98633649       0.10796021       0.13653167 </v>
    <v>       0.22915942       0.31533454       0.12527490 </v>
    <v>       0.06735802       0.28598388       0.16888911 </v>
    <v>       0.82274912       0.45552252       0.21014877 </v>
    <v>       0.48493735       0.44793349       0.25146232 </v>
    <v>       0.39648714       0.27665554       0.20625030 </v>
    <v>       0.65756919       0.43524210       0.25419888 </v>
    <v>       0.64488604       0.14640144       0.09374788 </v>
    <v>       0.48286722       0.11321356       0.15081376 </v>
    <v>       0.72606390       0.31870920       0.13454719 </v>
    <v>       0.56470606       0.29135323       0.18008364 </v>
    <v>       0.31888640       0.46086995       0.20329135 </v>
    <v>       0.73287748       0.94248397       0.03965616 </v>
    <v>       0.64891188       0.78317499       0.11254597 </v>
    <v>       0.90382696       0.93469024       0.03189926 </v>
    <v>       0.90701680       0.63807548       0.18754912 </v>
    <v>       0.73647441       0.61699787       0.15934394 </v>
    <v>       0.98321706       0.81212363       0.14197152 </v>
    <v>       0.81925020       0.78400528       0.10639513 </v>
    <v>       0.56804185       0.96074410       0.08520074 </v>
    <v>       0.23699719       0.94478449       0.02657725 </v>
    <v>       0.14820250       0.77173059       0.06843984 </v>
    <v>       0.40793432       0.93556381       0.03646331 </v>
    <v>       0.38047481       0.65838217       0.20939239 </v>
    <v>       0.23501053       0.60894863       0.12850628 </v>
    <v>       0.46527775       0.83024755       0.16578047 </v>
    <v>       0.31113112       0.79334051       0.10891910 </v>
    <v>       0.06990262       0.95754122       0.06514651 </v>
    <v>       0.57736557       0.77647674       0.24193941 </v>
    <v>       0.65582252       0.60772566       0.29790490 </v>
    <v>       0.48700699       0.61617049       0.29396059 </v>
   </varray>
  </structure>
  <varray name="primitive_index" >
   <v type="int" >        1 </v>
   <v type="int" >        2 </v>
   <v type="int" >        3 </v>
   <v type="int" >        4 </v>
   <v type="int" >        5 </v>
   <v type="int" >        6 </v>
   <v type="int" >        7 </v>
   <v type="int" >        8 </v>
   <v type="int" >        9 </v>
   <v type="int" >       10 </v>
   <v type="int" >       11 </v>
   <v type="int" >       12 </v>
   <v type="int" >       13 </v>
   <v type="int" >       14 </v>
   <v type="int" >       15 </v>
   <v type="int" >       16 </v>
   <v type="int" >       17 </v>
   <v type="int" >       18 </v>
   <v type="int" >       19 </v>
   <v type="int" >       20 </v>
   <v type="int" >       21 </v>
   <v type="int" >       22 </v>
   <v type="int" >       23 </v>
   <v type="int" >       24 </v>
   <v type="int" >       25 </v>
   <v type="int" >       26 </v>
   <v type="int" >       27 </v>
   <v type="int" >       28 </v>
   <v type="int" >       29 </v>
   <v type="int" >       30 </v>
   <v type="int" >       31 </v>
   <v type="int" >       32 </v>
   <v type="int" >       33 </v>
   <v type="int" >       34 </v>
   <v type="int" >       35 </v>
   <v type="int" >       36 </v>
   <v type="int" >       37 </v>
   <v type="int" >       38 </v>
   <v type="int" >       39 </v>
   <v type="int" >       40 </v>
   <v type="int" >       41 </v>
   <v type="int" >       42 </v>
   <v type="int" >       43 </v>
   <v type="int" >       44 </v>
   <v type="int" >       45 </v>
   <v type="int" >       46 </v>
   <v type="int" >       47 </v>
   <v type="int" >       48 </v>
   <v type="int" >       49 </v>
   <v type="int" >       50 </v>
   <v type="int" >       51 </v>
   <v type="int" >       52 </v>
   <v type="int" >       53 </v>
   <v type="int" >       54 </v>
   <v type="int" >       55 </v>
   <v type="int" >       56 </v>
   <v type="int" >       57 </v>
   <v type="int" >       58 </v>
   <v type="int" >       59 </v>
  </varray>
 </primitive_cell>
 <kpoints>
  <generation param="Gamma">
   <v type="int" name="divisions">       2        2        1 </v>
   <v name="usershift">      0.00000000       0.00000000       0.00000000 </v>
   <v name="genvec1">      0.50000000       0.00000000       0.00000000 </v>
   <v name="genvec2">      0.00000000       0.50000000       0.00000000 </v>
   <v name="genvec3">      0.00000000       0.00000000       1.00000000 </v>
   <v name="shift">      0.00000000       0.00000000       0.00000000 </v>
  </generation>
  <varray name="kpointlist" >
   <v>       0.00000000       0.00000000       0.00000000 </v>
   <v>       0.50000000       0.00000000       0.00000000 </v>
   <v>       0.00000000       0.50000000       0.00000000 </v>
   <v>       0.50000000       0.50000000       0.00000000 </v>
  </varray>
  <varray name="weights" >
   <v>       0.25000000 </v>
   <v>       0.25000000 </v>
   <v>       0.25000000 </v>
   <v>       0.25000000 </v>
  </varray>
 </kpoints>
 <parameters>
  <separator name="general" >
   <i type="string" name="SYSTEM">slab_Cel1-OPT</i>
   <i type="logical" name="LCOMPAT"> F  </i>
  </separator>
  <separator name="electronic" >
   <i type="string" name="PREC">n</i>
   <i name="ENMAX">    400.00000000</i>
   <i name="ENAUG">    644.87300000</i>
   <i name="EDIFF">      0.00001000</i>
   <i type="int" name="IALGO">    38</i>
   <i type="int" name="IWAVPR">    11</i>
   <i type="int" name="NBANDS">   176</i>
   <i type="int" name="NBANDSLOW">    -1</i>
   <i type="int" name="NBANDSHIGH">    -1</i>
   <i name="NELECT">    286.00000000</i>
   <i type="int" name="TURBO">     0</i>
   <i type="int" name="IRESTART">     0</i>
   <i type="int" name="NREBOOT">     0</i>
   <i type="int" name="NMIN">     0</i>
   <i name="EREF">      0.00000000</i>
   <separator name="electronic smearing" >
    <i type="int" name="ISMEAR">     0</i>
    <i name="SIGMA">      0.10000000</i>
    <i name="KSPACING">      0.50000000</i>
    <i type="logical" name="KGAMMA"> T  </i>
    <i type="logical" name="KBLOWUP"> T  </i>
   </separator>
   <separator name="electronic projectors" >
    <i type="logical" name="LREAL"> T  </i>
    <v name="ROPT">     -0.00050000     -0.00050000     -0.00050000</v>
    <i type="int" name="LMAXPAW">  -100</i>
    <i type="int" name="LMAXMIX">     2</i>
    <i type="logical" name="NLSPLINE"> F  </i>
   </separator>
   <separator name="electronic startup" >
    <i type="int" name="ISTART">     0</i>
    <i type="int" name="ICHARG">     2</i>
    <i type="int" name="INIWAV">     1</i>
   </separator>
   <separator name="electronic spin" >
    <i type="int" name="ISPIN">     1</i>
    <i type="logical" name="LNONCOLLINEAR"> F  </i>
    <v name="MAGMOM">      1.00000000      1.00000000      1.00000000      1.00000000      1.00000000      1.00000000      1.00000000      1.00000000      1.00000000      1.00000000      1.00000000      1.00000000      1.00000000      1.00000000      1.00000000      1.00000000      1.00000000      1.00000000      1.00000000      1.00000000
      1.00000000      1.00000000      1.00000000      1.00000000      1.00000000      1.00000000      1.00000000      1.00000000      1.00000000      1.00000000      1.00000000      1.00000000      1.00000000      1.00000000      1.00000000      1.00000000      1.00000000      1.00000000      1.00000000      1.00000000
      1.00000000      1.00000000      1.00000000      1.00000000      1.00000000      1.00000000      1.00000000      1.00000000      1.00000000      1.00000000      1.00000000      1.00000000      1.00000000      1.00000000      1.00000000      1.00000000      1.00000000      1.00000000      1.00000000</v>
    <i name="NUPDOWN">     -1.00000000</i>
    <i type="logical" name="LSORBIT"> F  </i>
    <v name="SAXIS">      0.00000000      0.00000000      1.00000000</v>
    <i type="logical" name="LSPIRAL"> F  </i>
    <v name="QSPIRAL">      0.00000000      0.00000000      0.00000000</v>
    <i type="logical" name="LZEROZ"> F  </i>
   </separator>
   <separator name="electronic exchange-correlation" >
    <i type="logical" name="LASPH"> F  </i>
    <i type="logical" name="LMETAGGA"> F  </i>
   </separator>
   <separator name="electronic convergence" >
    <i type="int" name="NELM">   200</i>
    <i type="int" name="NELMDL">    -5</i>
    <i type="int" name="NELMIN">     2</i>
    <i name="ENINI">    400.00000000</i>
    <separator name="electronic convergence detail" >
     <i type="logical" name="LDIAG"> T  </i>
     <i type="logical" name="LSUBROT"> F  </i>
     <i name="WEIMIN">      0.00100000</i>
     <i name="EBREAK">      0.00000001</i>
     <i name="DEPER">      0.30000000</i>
     <i type="int" name="NRMM">     4</i>
     <i name="TIME">      0.40000000</i>
    </separator>
   </separator>
   <separator name="electronic mixer" >
    <i name="AMIX">      0.40000000</i>
    <i name="BMIX">      1.00000000</i>
    <i name="AMIN">      0.10000000</i>
    <i name="AMIX_MAG">      1.60000000</i>
    <i name="BMIX_MAG">      1.00000000</i>
    <separator name="electronic mixer details" >
     <i type="int" name="IMIX">     4</i>
     <i type="logical" name="MIXFIRST"> F  </i>
     <i type="int" name="MAXMIX">   -45</i>
     <i name="WC">    100.00000000</i>
     <i type="int" name="INIMIX">     1</i>
     <i type="int" name="MIXPRE">     1</i>
     <i type="int" name="MREMOVE">     5</i>
    </separator>
   </separator>
   <separator name="electronic dipolcorrection" >
    <i type="logical" name="LDIPOL"> T  </i>
    <i type="logical" name="LMONO"> F  </i>
    <i type="int" name="IDIPOL">     3</i>
    <i name="EPSILON">      1.00000000</i>
    <v name="DIPOL">   -100.00000000   -100.00000000   -100.00000000</v>
    <i name="EFIELD">      0.00000000</i>
   </separator>
  </separator>
  <separator name="grids" >
   <i type="int" name="NGX">    70</i>
   <i type="int" name="NGY">    56</i>
   <i type="int" name="NGZ">    80</i>
   <i type="int" name="NGXF">   140</i>
   <i type="int" name="NGYF">   112</i>
   <i type="int" name="NGZF">   160</i>
   <i type="logical" name="ADDGRID"> F  </i>
  </separator>
  <separator name="ionic" >
   <i type="int" name="NSW">  1000</i>
   <i type="int" name="IBRION">     2</i>
   <i type="int" name="MDALGO">     0</i>
   <i type="int" name="ISIF">     3</i>
   <i name="PSTRESS">      0.00000000</i>
   <i name="EDIFFG">     -0.05000000</i>
   <i type="int" name="NFREE">     1</i>
   <i name="POTIM">      0.10000000</i>
   <i name="SMASS">     -3.00000000</i>
   <i name="SCALEE">      1.00000000</i>
  </separator>
  <separator name="ionic md" >
   <i name="TEBEG">      0.00010000</i>
   <i name="TEEND">      0.00010000</i>
   <i type="int" name="NBLOCK">     1</i>
   <i type="int" name="KBLOCK">  1000</i>
   <i type="int" name="NPACO">   256</i>
   <i name="APACO">     10.00000000</i>
  </separator>
  <separator name="symmetry" >
   <i type="int" name="ISYM">     2</i>
   <i name="SYMPREC">      0.00001000</i>
  </separator>
  <separator name="dos" >
   <i type="int" name="LORBIT">     0</i>
   <v name="RWIGS">     -1.00000000     -1.00000000     -1.00000000</v>
   <i type="int" name="NEDOS">   301</i>
   <i name="EMIN">     10.00000000</i>
   <i name="EMAX">    -10.00000000</i>
   <i name="EFERMI">      0.00000000</i>
  </separator>
  <separator name="writing" >
   <i type="int" name="NWRITE">     2</i>
   <i type="logical" name="LWAVE"> F  </i>
   <i type="logical" name="LDOWNSAMPLE"> F  </i>
   <i type="logical" name="LCHARG"> F  </i>
   <i type="logical" name="LPARD"> F  </i>
   <i type="logical" name="LVTOT"> F  </i>
   <i type="logical" name="LVHAR"> F  </i>
   <i type="logical" name="LELF"> F  </i>
   <i type="logical" name="LOPTICS"> F  </i>
   <v name="STM">      0.00000000      0.00000000      0.00000000      0.00000000      0.00000000      0.00000000      0.00000000</v>
  </separator>
  <separator name="performance" >
   <i type="int" name="NPAR">     4</i>
   <i type="int" name="NSIM">     4</i>
   <i type="int" name="NBLK">    -1</i>
   <i type="logical" name="LPLANE"> T  </i>
   <i type="logical" name="LSCALAPACK"> T  </i>
   <i type="logical" name="LSCAAWARE"> F  </i>
   <i type="logical" name="LSCALU"> F  </i>
   <i type="logical" name="LASYNC"> F  </i>
   <i type="logical" name="LORBITALREAL"> F  </i>
  </separator>
  <separator name="miscellaneous" >
   <i type="int" name="IDIOT">     3</i>
   <i type="int" name="PHON_NSTRUCT">    -1</i>
   <i type="logical" name="LMUSIC"> F  </i>
   <v name="POMASS">     12.01100000     14.00100000    106.42000000</v>
   <v name="DARWINR">      0.00000000      0.00000000      0.00000000</v>
   <v name="DARWINV">      1.00000000      1.00000000      1.00000000</v>
   <i type="logical" name="LCORR"> T  </i>
  </separator>
  <i type="logical" name="GGA_COMPAT"> T  </i>
  <i type="logical" name="LBERRY"> F  </i>
  <i type="int" name="ICORELEVEL">     0</i>
  <i type="logical" name="LDAU"> F  </i>
  <i type="int" name="I_CONSTRAINED_M">     0</i>
  <separator name="electronic exchange-correlation" >
   <i type="string" name="GGA">--</i>
   <i type="int" name="VOSKOWN">     0</i>
   <i type="logical" name="LHFCALC"> F  </i>
   <i type="string" name="PRECFOCK"></i>
   <i type="logical" name="LSYMGRAD"> F  </i>
   <i type="logical" name="LHFONE"> F  </i>
   <i type="logical" name="LRHFCALC"> F  </i>
   <i type="logical" name="LTHOMAS"> F  </i>
   <i type="logical" name="LMODELHF"> F  </i>
   <i type="logical" name="LFOCKACE"> F  </i>
   <i name="ENCUT4O">     -1.00000000</i>
   <i type="int" name="EXXOEP">     0</i>
   <i type="int" name="FOURORBIT">     0</i>
   <i name="AEXX">      0.00000000</i>
   <i name="HFALPHA">      0.00000000</i>
   <i name="MCALPHA">      0.00000000</i>
   <i name="ALDAX">      1.00000000</i>
   <i name="AGGAX">      1.00000000</i>
   <i name="ALDAC">      1.00000000</i>
   <i name="AGGAC">      1.00000000</i>
   <i type="int" name="NKREDX">     1</i>
   <i type="int" name="NKREDY">     1</i>
   <i type="int" name="NKREDZ">     1</i>
   <i type="logical" name="SHIFTRED"> F  </i>
   <i type="logical" name="ODDONLY"> F  </i>
   <i type="logical" name="EVENONLY"> F  </i>
   <i type="int" name="LMAXFOCK">     0</i>
   <i type="int" name="NMAXFOCKAE">     0</i>
   <i type="logical" name="LFOCKAEDFT"> F  </i>
   <i name="HFSCREEN">      0.00000000</i>
   <i name="HFSCREENC">      0.00000000</i>
   <i type="int" name="NBANDSGWLOW">     0</i>
  </separator>
  <separator name="vdW DFT" >
   <i type="logical" name="LUSE_VDW"> F  </i>
   <i name="Zab_VDW">     -0.84910000</i>
   <i name="PARAM1">      0.12340000</i>
   <i name="PARAM2">      1.00000000</i>
   <i name="PARAM3">      0.00000000</i>
  </separator>
  <separator name="model GW" >
   <i type="int" name="MODEL_GW">     0</i>
   <i name="MODEL_EPS0">     23.69008120</i>
   <i name="MODEL_ALPHA">      1.00000000</i>
  </separator>
  <separator name="linear response parameters" >
   <i type="logical" name="LEPSILON"> F  </i>
   <i type="logical" name="LRPA"> F  </i>
   <i type="logical" name="LNABLA"> F  </i>
   <i type="logical" name="LVEL"> F  </i>
   <i name="CSHIFT">      0.10000000</i>
   <i name="OMEGAMAX">     -1.00000000</i>
   <i name="DEG_THRESHOLD">      0.00200000</i>
   <i name="RTIME">     -0.10000000</i>
   <i name="WPLASMAI">      0.00000000</i>
   <v name="DFIELD">      0.00000000      0.00000000      0.00000000</v>
   <v name="WPLASMA">      0.00000000      0.00000000      0.00000000      0.00000000      0.00000000      0.00000000      0.00000000      0.00000000      0.00000000</v>
  </separator>
  <separator name="orbital magnetization" >
   <i type="logical" name="NUCIND"> F  </i>
   <v name="MAGPOS">      0.00000000      0.00000000      0.00000000</v>
   <i type="logical" name="LNICSALL"> T  </i>
   <i type="logical" name="ORBITALMAG"> F  </i>
   <i type="logical" name="LMAGBLOCH"> F  </i>
   <i type="logical" name="LCHIMAG"> F  </i>
   <i type="logical" name="LGAUGE"> T  </i>
   <i type="int" name="MAGATOM">     0</i>
   <v name="MAGDIPOL">      0.00000000      0.00000000      0.00000000</v>
   <v name="AVECCONST">      0.00000000      0.00000000      0.00000000</v>
  </separator>
  <separator name="response functions" >
   <i type="logical" name="LFINITE_TEMPERATURE"> F  </i>
   <i type="logical" name="LADDER"> F  </i>
   <i type="logical" name="LRPAFORCE"> F  </i>
   <i type="logical" name="LFXC"> F  </i>
   <i type="logical" name="LHARTREE"> T  </i>
   <i type="int" name="IBSE">     0</i>
   <v type="int" name="KPOINT">    -1     0     0     0</v>
   <i type="logical" name="LTCTC"> F  </i>
   <i type="logical" name="LTCTE"> F  </i>
   <i type="logical" name="LTETE"> F  </i>
   <i type="logical" name="LTRIPLET"> F  </i>
   <i type="logical" name="LFXCEPS"> F  </i>
   <i type="logical" name="LFXHEG"> F  </i>
   <i type="int" name="NATURALO">     2</i>
   <i type="logical" name="LHOLEGF"> F  </i>
   <i type="logical" name="L2ORDER"> F  </i>
   <i type="logical" name="LDMP1"> F  </i>
   <i type="logical" name="LMP2LT"> F  </i>
   <i type="logical" name="LSMP2LT"> F  </i>
   <i type="logical" name="LGWLF"> F  </i>
   <i name="ENCUTGW">     -2.00000000</i>
   <i name="ENCUTGWSOFT">     -2.00000000</i>
   <i name="ENCUTLF">     -1.00000000</i>
   <i type="logical" name="LESF_SPLINES"> F  </i>
   <i type="int" name="LMAXMP2">    -1</i>
   <i name="SCISSOR">      0.00000000</i>
   <i type="int" name="NOMEGA">     0</i>
   <i type="int" name="NOMEGAR">     0</i>
   <i type="int" name="NBANDSGW">    -1</i>
   <i type="int" name="NBANDSO">    -1</i>
   <i type="int" name="NBANDSV">    -1</i>
   <i type="int" name="NELMGW">     1</i>
   <i type="int" name="NELMHF">     1</i>
   <i type="int" name="DIM">     3</i>
   <i type="int" name="IESPILON">     4</i>
   <i type="int" name="ANTIRES">     0</i>
   <i name="OMEGAMAX">    -30.00000000</i>
   <i name="OMEGAMIN">    -30.00000000</i>
   <i name="OMEGATL">   -200.00000000</i>
   <i type="int" name="OMEGAGRID">     0</i>
   <i name="CSHIFT">     -0.10000000</i>
   <i type="logical" name="LSELFENERGY"> F  </i>
   <i type="logical" name="LSPECTRAL"> F  </i>
   <i type="logical" name="LSPECTRALGW"> F  </i>
   <i type="logical" name="LSINGLES"> F  </i>
   <i type="logical" name="LFERMIGW"> F  </i>
   <i type="logical" name="ODDONLYGW"> F  </i>
   <i type="logical" name="EVENONLYGW"> F  </i>
   <i type="int" name="NKREDLFX">     1</i>
   <i type="int" name="NKREDLFY">     1</i>
   <i type="int" name="NKREDLFZ">     1</i>
   <i type="int" name="MAXMEM">  2800</i>
   <i type="int" name="TELESCOPE">     0</i>
   <i type="int" name="NTAUPAR">    -1</i>
   <i type="int" name="NOMEGAPAR">    -1</i>
   <i name="DAMP_NEWTON">      0.80000001</i>
   <i name="LAMBDA">      1.00000000</i>
  </separator>
  <separator name="External order field" >
   <i name="OFIELD_KAPPA">      0.00000000</i>
   <v name="OFIELD_K">      0.00000000      0.00000000      0.00000000</v>
   <i name="OFIELD_Q6_NEAR">      0.00000000</i>
   <i name="OFIELD_Q6_FAR">      0.00000000</i>
   <i name="OFIELD_A">      0.00000000</i>
  </separator>
  <separator name="optional k-points parameters" >
   <i type="int" name="KPOINTS_OPT_MODE">     1</i>
   <i type="logical" name="LKPOINTS_OPT"> F  </i>
  </separator>
  <separator name="solvation model" >
   <i type="logical" name="LSOL"> F  </i>
  </separator>
 </parameters>
 <atominfo>
  <atoms>      59 </atoms>
  <types>       3 </types>
  <array name="atoms" >
   <dimension dim="1">ion</dimension>
   <field type="string">element</field>
   <field type="int">atomtype</field>
   <set>
    <rc><c>C </c><c>   1</c></rc>
    <rc><c>C </c><c>   1</c></rc>
    <rc><c>C </c><c>   1</c></rc>
    <rc><c>C </c><c>   1</c></rc>
    <rc><c>C </c><c>   1</c></rc>
    <rc><c>C </c><c>   1</c></rc>
    <rc><c>C </c><c>   1</c></rc>
    <rc><c>C </c><c>   1</c></rc>
    <rc><c>C </c><c>   1</c></rc>
    <rc><c>C </c><c>   1</c></rc>
    <rc><c>C </c><c>   1</c></rc>
    <rc><c>C </c><c>   1</c></rc>
    <rc><c>C </c><c>   1</c></rc>
    <rc><c>C </c><c>   1</c></rc>
    <rc><c>C </c><c>   1</c></rc>
    <rc><c>C </c><c>   1</c></rc>
    <rc><c>C </c><c>   1</c></rc>
    <rc><c>C </c><c>   1</c></rc>
    <rc><c>C </c><c>   1</c></rc>
    <rc><c>C </c><c>   1</c></rc>
    <rc><c>C </c><c>   1</c></rc>
    <rc><c>C </c><c>   1</c></rc>
    <rc><c>C </c><c>   1</c></rc>
    <rc><c>C </c><c>   1</c></rc>
    <rc><c>N </c><c>   2</c></rc>
    <rc><c>N </c><c>   2</c></rc>
    <rc><c>N </c><c>   2</c></rc>
    <rc><c>N </c><c>   2</c></rc>
    <rc><c>N </c><c>   2</c></rc>
    <rc><c>N </c><c>   2</c></rc>
    <rc><c>N </c><c>   2</c></rc>
    <rc><c>N </c><c>   2</c></rc>
    <rc><c>N </c><c>   2</c></rc>
    <rc><c>N </c><c>   2</c></rc>
    <rc><c>N </c><c>   2</c></rc>
    <rc><c>N </c><c>   2</c></rc>
    <rc><c>N </c><c>   2</c></rc>
    <rc><c>N </c><c>   2</c></rc>
    <rc><c>N </c><c>   2</c></rc>
    <rc><c>N </c><c>   2</c></rc>
    <rc><c>N </c><c>   2</c></rc>
    <rc><c>N </c><c>   2</c></rc>
    <rc><c>N </c><c>   2</c></rc>
    <rc><c>N </c><c>   2</c></rc>
    <rc><c>N </c><c>   2</c></rc>
    <rc><c>N </c><c>   2</c></rc>
    <rc><c>N </c><c>   2</c></rc>
    <rc><c>N </c><c>   2</c></rc>
    <rc><c>N </c><c>   2</c></rc>
    <rc><c>N </c><c>   2</c></rc>
    <rc><c>N </c><c>   2</c></rc>
    <rc><c>N </c><c>   2</c></rc>
    <rc><c>N </c><c>   2</c></rc>
    <rc><c>N </c><c>   2</c></rc>
    <rc><c>N </c><c>   2</c></rc>
    <rc><c>N </c><c>   2</c></rc>
    <rc><c>Pd</c><c>   3</c></rc>
    <rc><c>Pd</c><c>   3</c></rc>
    <rc><c>Pd</c><c>   3</c></rc>
   </set>
  </array>
  <array name="atomtypes" >
   <dimension dim="1">type</dimension>
   <field type="int">atomspertype</field>
   <field type="string">element</field>
   <field>mass</field>
   <field>valence</field>
   <field type="string">pseudopotential</field>
   <set>
    <rc><c>  24</c><c>C </c><c>     12.01100000</c><c>      4.00000000</c><c>  PAW_PBE C 08Apr2002                   </c></rc>
    <rc><c>  32</c><c>N </c><c>     14.00100000</c><c>      5.00000000</c><c>  PAW_PBE N 08Apr2002                   </c></rc>
    <rc><c>   3</c><c>Pd</c><c>    106.42000000</c><c>     10.00000000</c><c>  PAW_PBE Pd 04Jan2005                  </c></rc>
   </set>
  </array>
 </atominfo>
 <structure name="initialpos" >
  <crystal>
   <varray name="basis" >
    <v>      13.75970367       0.00000000       0.00000000 </v>
    <v>       0.00000000      11.28669971       0.00000000 </v>
    <v>       0.00000000       0.00000000      15.00000000 </v>
   </varray>
   <i name="volume">   2329.52465126 </i>
   <varray name="rec_basis" >
    <v>       0.07267598       0.00000000       0.00000000 </v>
    <v>       0.00000000       0.08859986       0.00000000 </v>
    <v>       0.00000000       0.00000000       0.06666667 </v>
   </varray>
  </crystal>
  <varray name="positions" >
   <v>       0.07054120       0.38816457       0.22227495 </v>
   <v>       0.98151180       0.21832942       0.16785344 </v>
   <v>       0.22877304       0.39667288       0.18904348 </v>
   <v>       0.82472337       0.57572318       0.18403191 </v>
   <v>       0.14970601       0.24663792       0.12277753 </v>
   <v>       0.90758628       0.38434512       0.21811946 </v>
   <v>       0.56886571       0.39316130       0.23173729 </v>
   <v>       0.47768100       0.22391730       0.18017943 </v>
   <v>       0.73035049       0.39802658       0.19909345 </v>
   <v>       0.31101118       0.58132963       0.17977696 </v>
   <v>       0.64681854       0.25040749       0.13377315 </v>
   <v>       0.40275100       0.39355427       0.22106508 </v>
   <v>       0.81808056       0.88988957       0.05647519 </v>
   <v>       0.73319531       0.72568325       0.12448457 </v>
   <v>       0.97932824       0.89597624       0.07999408 </v>
   <v>       0.06867909       0.07698375       0.09423854 </v>
   <v>       0.90528082       0.74258583       0.14719628 </v>
   <v>       0.65472406       0.89333727       0.07691603 </v>
   <v>       0.31825350       0.89473226       0.05377466 </v>
   <v>       0.22716619       0.72126926       0.10084126 </v>
   <v>       0.47498917       0.90396535       0.09489577 </v>
   <v>       0.56592959       0.08075138       0.11024766 </v>
   <v>       0.38612516       0.76037560       0.16363174 </v>
   <v>       0.15509033       0.88950396       0.05271529 </v>
   <v>       0.98784551       0.43883046       0.24713656 </v>
   <v>       0.89991795       0.26975381       0.19549767 </v>
   <v>       0.15759857       0.43325808       0.24240148 </v>
   <v>       0.14788829       0.14353661       0.08017307 </v>
   <v>       0.98633649       0.10796021       0.13653167 </v>
   <v>       0.22915942       0.31533454       0.12527490 </v>
   <v>       0.06735802       0.28598388       0.16888911 </v>
   <v>       0.82274912       0.45552252       0.21014877 </v>
   <v>       0.48493735       0.44793349       0.25146232 </v>
   <v>       0.39648714       0.27665554       0.20625030 </v>
   <v>       0.65756919       0.43524210       0.25419888 </v>
   <v>       0.64488604       0.14640144       0.09374788 </v>
   <v>       0.48286722       0.11321356       0.15081376 </v>
   <v>       0.72606390       0.31870920       0.13454719 </v>
   <v>       0.56470606       0.29135323       0.18008364 </v>
   <v>       0.31888640       0.46086995       0.20329135 </v>
   <v>       0.73287748       0.94248397       0.03965616 </v>
   <v>       0.64891188       0.78317499       0.11254597 </v>
   <v>       0.90382696       0.93469024       0.03189926 </v>
   <v>       0.90701680       0.63807548       0.18754912 </v>
   <v>       0.73647441       0.61699787       0.15934394 </v>
   <v>       0.98321706       0.81212363       0.14197152 </v>
   <v>       0.81925020       0.78400528       0.10639513 </v>
   <v>       0.56804185       0.96074410       0.08520074 </v>
   <v>       0.23699719       0.94478449       0.02657725 </v>
   <v>       0.14820250       0.77173059       0.06843984 </v>
   <v>       0.40793432       0.93556381       0.03646331 </v>
   <v>       0.38047481       0.65838217       0.20939239 </v>
   <v>       0.23501053       0.60894863       0.12850628 </v>
   <v>       0.46527775       0.83024755       0.16578047 </v>
   <v>       0.31113112       0.79334051       0.10891910 </v>
   <v>       0.06990262       0.95754122       0.06514651 </v>
   <v>       0.57736557       0.77647674       0.24193941 </v>
   <v>       0.65582252       0.60772566       0.29790490 </v>
   <v>       0.48700699       0.61617049       0.29396059 </v>
  </varray>
 </structure>
 <calculation>
  <scstep>
   <time name="dav">    1.64    1.65</time>
   <time name="total">    1.68    1.69</time>
   <dipole>
    <v name="dipole">      0.00000000       0.00000000       0.00002191 </v>
    <i name="Tr[quadrupol]">  -8013.25487142 </i>
    <i name="Echarged">      0.00000000 </i>
    <i name="Edipol_quadrupol">      0.00000000 </i>
    <i name="Eion">      0.00000000 </i>
   </dipole>
   <energy>
    <i name="alphaZ">    169.17729459 </i>
    <i name="ewald">  28505.50458751 </i>
    <i name="hartreedc"> -40434.43339614 </i>
    <i name="XCdc">    868.04271633 </i>
    <i name="pawpsdc">  11582.59146832 </i>
    <i name="pawaedc"> -11447.70182851 </i>
    <i name="eentropy">     -0.10936765 </i>
    <i name="bandstr">  -1168.74849765 </i>
    <i name="atom">  14423.48512790 </i>
    <i name="e_fr_energy">   2497.80810470 </i>
    <i name="e_wo_entrp">   2497.91747235 </i>
    <i name="e_0_energy">   2497.86278852 </i>
   </energy>
  </scstep>
  <scstep>
   <time name="dav">    1.91    1.92</time>
   <time name="total">    1.91    1.92</time>
   <dipole>
    <v name="dipole">      0.00000000       0.00000000       0.00002191 </v>
    <i name="Tr[quadrupol]">  -8013.25487142 </i>
    <i name="Echarged">      0.00000000 </i>
    <i name="Edipol_quadrupol">      0.00000000 </i>
    <i name="Eion">      0.00000000 </i>
   </dipole>
   <energy>
    <i name="e_fr_energy">    -59.00993928 </i>
    <i name="e_wo_entrp">    -59.00993928 </i>
    <i name="e_0_energy">    -59.00993928 </i>
   </energy>
  </scstep>
  <scstep>
   <time name="dav">    1.66    1.66</time>
   <time name="total">    1.66    1.66</time>
   <dipole>
    <v name="dipole">      0.00000000       0.00000000       0.00002191 </v>
    <i name="Tr[quadrupol]">  -8013.25487142 </i>
    <i name="Echarged">      0.00000000 </i>
    <i name="Edipol_quadrupol">      0.00000000 </i>
    <i name="Eion">      0.00000000 </i>
   </dipole>
   <energy>
    <i name="e_fr_energy">   -501.72388529 </i>
    <i name="e_wo_entrp">   -501.63551330 </i>
    <i name="e_0_energy">   -501.67969929 </i>
   </energy>
  </scstep>
  <scstep>
   <time name="dav">    1.64    1.64</time>
   <time name="total">    1.64    1.64</time>
   <dipole>
    <v name="dipole">      0.00000000       0.00000000       0.00002191 </v>
    <i name="Tr[quadrupol]">  -8013.25487142 </i>
    <i name="Echarged">      0.00000000 </i>
    <i name="Edipol_quadrupol">      0.00000000 </i>
    <i name="Eion">      0.00000000 </i>
   </dipole>
   <energy>
    <i name="e_fr_energy">   -515.86615141 </i>
    <i name="e_wo_entrp">   -515.76636398 </i>
    <i name="e_0_energy">   -515.81625769 </i>
   </energy>
  </scstep>
  <scstep>
   <time name="dav">    1.81    1.82</time>
   <time name="total">    1.87    1.88</time>
   <dipole>
    <v name="dipole">      0.00000000       0.00000000       0.00002191 </v>
    <i name="Tr[quadrupol]">  -8013.25487142 </i>
    <i name="Echarged">      0.00000000 </i>
    <i name="Edipol_quadrupol">      0.00000000 </i>
    <i name="Eion">      0.00000000 </i>
   </dipole>
   <energy>
    <i name="e_fr_energy">   -516.44257028 </i>
    <i name="e_wo_entrp">   -516.34249335 </i>
    <i name="e_0_energy">   -516.39253181 </i>
   </energy>
  </scstep>
  <scstep>
   <time name="dav">    1.66    1.66</time>
   <time name="total">    1.74    1.74</time>
   <dipole>
    <v name="dipole">      0.00000000       0.00000000      -0.45225923 </v>
    <i name="Tr[quadrupol]">  -8014.59370174 </i>
    <i name="Echarged">      0.00000000 </i>
    <i name="Edipol_quadrupol">      0.00000000 </i>
    <i name="Eion">      0.00000000 </i>
   </dipole>
   <energy>
    <i name="e_fr_energy">   -489.93626036 </i>
    <i name="e_wo_entrp">   -489.92984451 </i>
    <i name="e_0_energy">   -489.93305243 </i>
   </energy>
  </scstep>
  <scstep>
   <time name="dav">    1.57    1.58</time>
   <time name="total">    1.65    1.65</time>
   <dipole>
    <v name="dipole">      0.00000000       0.00000000      -0.04530369 </v>
    <i name="Tr[quadrupol]">  -8014.81325819 </i>
    <i name="Echarged">      0.00000000 </i>
    <i name="Edipol_quadrupol">      0.00000000 </i>
    <i name="Eion">      0.00000000 </i>
   </dipole>
   <energy>
    <i name="e_fr_energy">   -486.48560595 </i>
    <i name="e_wo_entrp">   -486.39375597 </i>
    <i name="e_0_energy">   -486.43968096 </i>
   </energy>
  </scstep>
  <scstep>
   <time name="dav">    1.60    1.61</time>
   <time name="total">    1.68    1.69</time>
   <dipole>
    <v name="dipole">      0.00000000       0.00000000      -0.39960783 </v>
    <i name="Tr[quadrupol]">  -8015.85857719 </i>
    <i name="Echarged">      0.00000000 </i>
    <i name="Edipol_quadrupol">      0.00000000 </i>
    <i name="Eion">      0.00000000 </i>
   </dipole>
   <energy>
    <i name="e_fr_energy">   -486.45158045 </i>
    <i name="e_wo_entrp">   -486.44988111 </i>
    <i name="e_0_energy">   -486.45073078 </i>
   </energy>
  </scstep>
  <scstep>
   <time name="dav">    1.56    1.56</time>
   <time name="total">    1.64    1.64</time>
   <dipole>
    <v name="dipole">      0.00000000       0.00000000      -0.24865798 </v>
    <i name="Tr[quadrupol]">  -8016.28881997 </i>
    <i name="Echarged">      0.00000000 </i>
    <i name="Edipol_quadrupol">      0.00000000 </i>
    <i name="Eion">      0.00000000 </i>
   </dipole>
   <energy>
    <i name="e_fr_energy">   -484.58718604 </i>
    <i name="e_wo_entrp">   -484.58592473 </i>
    <i name="e_0_energy">   -484.58655538 </i>
   </energy>
  </scstep>
  <scstep>
   <time name="dav">    1.62    1.62</time>
   <time name="total">    1.69    1.69</time>
   <dipole>
    <v name="dipole">      0.00000000       0.00000000      -0.15473194 </v>
    <i name="Tr[quadrupol]">  -8016.35156485 </i>
    <i name="Echarged">      0.00000000 </i>
    <i name="Edipol_quadrupol">      0.00000000 </i>
    <i name="Eion">      0.00000000 </i>
   </dipole>
   <energy>
    <i name="e_fr_energy">   -483.70401112 </i>
    <i name="e_wo_entrp">   -483.66492868 </i>
    <i name="e_0_energy">   -483.68446990 </i>
   </energy>
  </scstep>
  <scstep>
   <time name="dav">    1.66    1.66</time>
   <time name="total">    1.74    1.74</time>
   <dipole>
    <v name="dipole">      0.00000000       0.00000000      -0.06814211 </v>
    <i name="Tr[quadrupol]">  -8016.46119592 </i>
    <i name="Echarged">      0.00000000 </i>
    <i name="Edipol_quadrupol">      0.00000000 </i>
    <i name="Eion">      0.00000000 </i>
   </dipole>
   <energy>
    <i name="e_fr_energy">   -483.52560317 </i>
    <i name="e_wo_entrp">   -483.43802337 </i>
    <i name="e_0_energy">   -483.48181327 </i>
   </energy>
  </scstep>
  <scstep>
   <time name="dav">    1.55    1.55</time>
   <time name="total">    1.63    1.63</time>
   <dipole>
    <v name="dipole">      0.00000000       0.00000000      -0.09912329 </v>
    <i name="Tr[quadrupol]">  -8016.68701169 </i>
    <i name="Echarged">      0.00000000 </i>
    <i name="Edipol_quadrupol">      0.00000000 </i>
    <i name="Eion">      0.00000000 </i>
   </dipole>
   <energy>
    <i name="e_fr_energy">   -483.49334685 </i>
    <i name="e_wo_entrp">   -483.43798645 </i>
    <i name="e_0_energy">   -483.46566665 </i>
   </energy>
  </scstep>
  <scstep>
   <time name="dav">    1.58    1.58</time>
   <time name="total">    1.66    1.66</time>
   <dipole>
    <v name="dipole">      0.00000000       0.00000000      -0.05353871 </v>
    <i name="Tr[quadrupol]">  -8017.01730758 </i>
    <i name="Echarged">      0.00000000 </i>
    <i name="Edipol_quadrupol">      0.00000000 </i>
    <i name="Eion">      0.00000000 </i>
   </dipole>
   <energy>
    <i name="e_fr_energy">   -483.46839336 </i>
    <i name="e_wo_entrp">   -483.38799674 </i>
    <i name="e_0_energy">   -483.42819505 </i>
   </energy>
  </scstep>
  <scstep>
   <time name="dav">    1.57    1.58</time>
   <time name="total">    1.65    1.66</time>
   <dipole>
    <v name="dipole">      0.00000000       0.00000000      -0.05029947 </v>
    <i name="Tr[quadrupol]">  -8017.25011357 </i>
    <i name="Echarged">      0.00000000 </i>
    <i name="Edipol_quadrupol">      0.00000000 </i>
    <i name="Eion">      0.00000000 </i>
   </dipole>
   <energy>
    <i name="e_fr_energy">   -483.46876965 </i>
    <i name="e_wo_entrp">   -483.39630835 </i>
    <i name="e_0_energy">   -483.43253900 </i>
   </energy>
  </scstep>
  <scstep>
   <time name="dav">    1.58    1.58</time>
   <time name="total">    1.65    1.65</time>
   <dipole>
    <v name="dipole">      0.00000000       0.00000000      -0.03815687 </v>
    <i name="Tr[quadrupol]">  -8017.43887455 </i>
    <i name="Echarged">      0.00000000 </i>
    <i name="Edipol_quadrupol">      0.00000000 </i>
    <i name="Eion">      0.00000000 </i>
   </dipole>
   <energy>
    <i name="e_fr_energy">   -483.46593449 </i>
    <i name="e_wo_entrp">   -483.39179015 </i>
    <i name="e_0_energy">   -483.42886232 </i>
   </energy>
  </scstep>
  <scstep>
   <time name="dav">    1.57    1.58</time>
   <time name="total">    1.65    1.66</time>
   <dipole>
    <v name="dipole">      0.00000000       0.00000000      -0.01947003 </v>
    <i name="Tr[quadrupol]">  -8017.72283329 </i>
    <i name="Echarged">      0.00000000 </i>
    <i name="Edipol_quadrupol">      0.00000000 </i>
    <i name="Eion">      0.00000000 </i>
   </dipole>
   <energy>
    <i name="e_fr_energy">   -483.46940827 </i>
    <i name="e_wo_entrp">   -483.38863777 </i>
    <i name="e_0_energy">   -483.42902302 </i>
   </energy>
  </scstep>
  <scstep>
   <time name="dav">    1.56    1.56</time>
   <time name="total">    1.64    1.64</time>
   <dipole>
    <v name="dipole">      0.00000000       0.00000000      -0.00789329 </v>
    <i name="Tr[quadrupol]">  -8018.06398698 </i>
    <i name="Echarged">      0.00000000 </i>
    <i name="Edipol_quadrupol">      0.00000000 </i>
    <i name="Eion">      0.00000000 </i>
   </dipole>
   <energy>
    <i name="e_fr_energy">   -483.47388893 </i>
    <i name="e_wo_entrp">   -483.39561421 </i>
    <i name="e_0_energy">   -483.43475157 </i>
   </energy>
  </scstep>
  <scstep>
   <time name="dav">    1.60    1.60</time>
   <time name="total">    1.68    1.68</time>
   <dipole>
    <v name="dipole">      0.00000000       0.00000000      -0.00625626 </v>
    <i name="Tr[quadrupol]">  -8018.20665622 </i>
    <i name="Echarged">      0.00000000 </i>
    <i name="Edipol_quadrupol">      0.00000000 </i>
    <i name="Eion">      0.00000000 </i>
   </dipole>
   <energy>
    <i name="e_fr_energy">   -483.47609466 </i>
    <i name="e_wo_entrp">   -483.39715292 </i>
    <i name="e_0_energy">   -483.43662379 </i>
   </energy>
  </scstep>
  <scstep>
   <time name="dav">    1.61    1.61</time>
   <time name="total">    1.69    1.69</time>
   <dipole>
    <v name="dipole">      0.00000000       0.00000000       0.00374290 </v>
    <i name="Tr[quadrupol]">  -8018.54425716 </i>
    <i name="Echarged">      0.00000000 </i>
    <i name="Edipol_quadrupol">      0.00000000 </i>
    <i name="Eion">      0.00000000 </i>
   </dipole>
   <energy>
    <i name="e_fr_energy">   -483.48148495 </i>
    <i name="e_wo_entrp">   -483.40403098 </i>
    <i name="e_0_energy">   -483.44275797 </i>
   </energy>
  </scstep>
  <scstep>
   <time name="dav">    1.62    1.63</time>
   <time name="total">    1.71    1.72</time>
   <dipole>
    <v name="dipole">      0.00000000       0.00000000       0.01459817 </v>
    <i name="Tr[quadrupol]">  -8018.74858429 </i>
    <i name="Echarged">      0.00000000 </i>
    <i name="Edipol_quadrupol">      0.00000000 </i>
    <i name="Eion">      0.00000000 </i>
   </dipole>
   <energy>
    <i name="e_fr_energy">   -483.48417349 </i>
    <i name="e_wo_entrp">   -483.40605691 </i>
    <i name="e_0_energy">   -483.44511520 </i>
   </energy>
  </scstep>
  <scstep>
   <time name="dav">    1.46    1.47</time>
   <time name="total">    1.54    1.54</time>
   <dipole>
    <v name="dipole">      0.00000000       0.00000000       0.04828155 </v>
    <i name="Tr[quadrupol]">  -8018.96517500 </i>
    <i name="Echarged">      0.00000000 </i>
    <i name="Edipol_quadrupol">      0.00000000 </i>
    <i name="Eion">      0.00000000 </i>
   </dipole>
   <energy>
    <i name="e_fr_energy">   -483.48569705 </i>
    <i name="e_wo_entrp">   -483.40674480 </i>
    <i name="e_0_energy">   -483.44622092 </i>
   </energy>
  </scstep>
  <scstep>
   <time name="dav">    1.41    1.41</time>
   <time name="total">    1.50    1.50</time>
   <dipole>
    <v name="dipole">      0.00000000       0.00000000       0.05500732 </v>
    <i name="Tr[quadrupol]">  -8019.03368449 </i>
    <i name="Echarged">      0.00000000 </i>
    <i name="Edipol_quadrupol">      0.00000000 </i>
    <i name="Eion">      0.00000000 </i>
   </dipole>
   <energy>
    <i name="e_fr_energy">   -483.48608690 </i>
    <i name="e_wo_entrp">   -483.40742565 </i>
    <i name="e_0_energy">   -483.44675628 </i>
   </energy>
  </scstep>
  <scstep>
   <time name="dav">    1.28    1.28</time>
   <time name="total">    1.36    1.36</time>
   <dipole>
    <v name="dipole">      0.00000000       0.00000000       0.05113815 </v>
    <i name="Tr[quadrupol]">  -8019.08689384 </i>
    <i name="Echarged">      0.00000000 </i>
    <i name="Edipol_quadrupol">      0.00000000 </i>
    <i name="Eion">      0.00000000 </i>
   </dipole>
   <energy>
    <i name="e_fr_energy">   -483.48648896 </i>
    <i name="e_wo_entrp">   -483.40842640 </i>
    <i name="e_0_energy">   -483.44745768 </i>
   </energy>
  </scstep>
  <scstep>
   <time name="dav">    1.42    1.42</time>
   <time name="total">    1.50    1.50</time>
   <dipole>
    <v name="dipole">      0.00000000       0.00000000       0.04354655 </v>
    <i name="Tr[quadrupol]">  -8019.13656058 </i>
    <i name="Echarged">      0.00000000 </i>
    <i name="Edipol_quadrupol">      0.00000000 </i>
    <i name="Eion">      0.00000000 </i>
   </dipole>
   <energy>
    <i name="e_fr_energy">   -483.48696789 </i>
    <i name="e_wo_entrp">   -483.40902164 </i>
    <i name="e_0_energy">   -483.44799477 </i>
   </energy>
  </scstep>
  <scstep>
   <time name="dav">    1.19    1.19</time>
   <time name="total">    1.27    1.27</time>
   <dipole>
    <v name="dipole">      0.00000000       0.00000000       0.04218824 </v>
    <i name="Tr[quadrupol]">  -8019.15434028 </i>
    <i name="Echarged">      0.00000000 </i>
    <i name="Edipol_quadrupol">      0.00000000 </i>
    <i name="Eion">      0.00000000 </i>
   </dipole>
   <energy>
    <i name="e_fr_energy">   -483.48709688 </i>
    <i name="e_wo_entrp">   -483.40889890 </i>
    <i name="e_0_energy">   -483.44799789 </i>
   </energy>
  </scstep>
  <scstep>
   <time name="dav">    1.30    1.30</time>
   <time name="total">    1.38    1.38</time>
   <dipole>
    <v name="dipole">      0.00000000       0.00000000       0.03651163 </v>
    <i name="Tr[quadrupol]">  -8019.17823567 </i>
    <i name="Echarged">      0.00000000 </i>
    <i name="Edipol_quadrupol">      0.00000000 </i>
    <i name="Eion">      0.00000000 </i>
   </dipole>
   <energy>
    <i name="e_fr_energy">   -483.48734656 </i>
    <i name="e_wo_entrp">   -483.40891123 </i>
    <i name="e_0_energy">   -483.44812890 </i>
   </energy>
  </scstep>
  <scstep>
   <time name="dav">    1.13    1.13</time>
   <time name="total">    1.20    1.22</time>
   <dipole>
    <v name="dipole">      0.00000000       0.00000000       0.03400373 </v>
    <i name="Tr[quadrupol]">  -8019.17967098 </i>
    <i name="Echarged">      0.00000000 </i>
    <i name="Edipol_quadrupol">      0.00000000 </i>
    <i name="Eion">      0.00000000 </i>
   </dipole>
   <energy>
    <i name="e_fr_energy">   -483.48739775 </i>
    <i name="e_wo_entrp">   -483.40909825 </i>
    <i name="e_0_energy">   -483.44824800 </i>
   </energy>
  </scstep>
  <scstep>
   <time name="dav">    1.14    1.14</time>
   <time name="total">    1.22    1.22</time>
   <dipole>
    <v name="dipole">      0.00000000       0.00000000       0.03164857 </v>
    <i name="Tr[quadrupol]">  -8019.18736029 </i>
    <i name="Echarged">      0.00000000 </i>
    <i name="Edipol_quadrupol">      0.00000000 </i>
    <i name="Eion">      0.00000000 </i>
   </dipole>
   <energy>
    <i name="e_fr_energy">   -483.48748279 </i>
    <i name="e_wo_entrp">   -483.40913864 </i>
    <i name="e_0_energy">   -483.44831072 </i>
   </energy>
  </scstep>
  <scstep>
   <time name="dav">    1.15    1.15</time>
   <time name="total">    1.23    1.23</time>
   <dipole>
    <v name="dipole">      0.00000000       0.00000000       0.02921990 </v>
    <i name="Tr[quadrupol]">  -8019.18963514 </i>
    <i name="Echarged">      0.00000000 </i>
    <i name="Edipol_quadrupol">      0.00000000 </i>
    <i name="Eion">      0.00000000 </i>
   </dipole>
   <energy>
    <i name="e_fr_energy">   -483.48753309 </i>
    <i name="e_wo_entrp">   -483.40928550 </i>
    <i name="e_0_energy">   -483.44840929 </i>
   </energy>
  </scstep>
  <scstep>
   <time name="dav">    1.10    1.10</time>
   <time name="total">    1.18    1.18</time>
   <dipole>
    <v name="dipole">      0.00000000       0.00000000       0.02887560 </v>
    <i name="Tr[quadrupol]">  -8019.18930121 </i>
    <i name="Echarged">      0.00000000 </i>
    <i name="Edipol_quadrupol">      0.00000000 </i>
    <i name="Eion">      0.00000000 </i>
   </dipole>
   <energy>
    <i name="e_fr_energy">   -483.48754965 </i>
    <i name="e_wo_entrp">   -483.40926578 </i>
    <i name="e_0_energy">   -483.44840772 </i>
   </energy>
  </scstep>
  <scstep>
   <time name="dav">    1.10    1.10</time>
   <time name="total">    1.14    1.14</time>
   <dipole>
    <v name="dipole">      0.00000000       0.00000000       0.02872608 </v>
    <i name="Tr[quadrupol]">  -8019.18740641 </i>
    <i name="Echarged">      0.00000000 </i>
    <i name="Edipol_quadrupol">      0.00000000 </i>
    <i name="Eion">      0.00000000 </i>
   </dipole>
   <energy>
    <i name="alphaZ">    169.29995078 </i>
    <i name="ewald">  28505.50458751 </i>
    <i name="hartreedc"> -41091.20663588 </i>
    <i name="XCdc">    899.41957753 </i>
    <i name="pawpsdc">  30551.15465454 </i>
    <i name="pawaedc"> -30435.24436174 </i>
    <i name="eentropy">     -0.07830950 </i>
    <i name="bandstr">  -3505.82214942 </i>
    <i name="atom">  14423.48512790 </i>
    <i name="e_fr_energy">   -483.48755828 </i>
    <i name="e_wo_entrp">   -483.40924878 </i>
    <i name="e_0_energy">   -483.44840353 </i>
   </energy>
  </scstep>
  <structure>
   <crystal>
    <varray name="basis" >
     <v>      13.75970367       0.00000000       0.00000000 </v>
     <v>       0.00000000      11.28669971       0.00000000 </v>
     <v>       0.00000000       0.00000000      15.00000000 </v>
    </varray>
    <i name="volume">   2329.52465126 </i>
    <varray name="rec_basis" >
     <v>       0.07267598       0.00000000       0.00000000 </v>
     <v>       0.00000000       0.08859986       0.00000000 </v>
     <v>       0.00000000       0.00000000       0.06666667 </v>
    </varray>
   </crystal>
   <varray name="positions" >
    <v>       0.07054120       0.38816457       0.22227495 </v>
    <v>       0.98151180       0.21832942       0.16785344 </v>
    <v>       0.22877304       0.39667288       0.18904348 </v>
    <v>       0.82472337       0.57572318       0.18403191 </v>
    <v>       0.14970601       0.24663792       0.12277753 </v>
    <v>       0.90758628       0.38434512       0.21811946 </v>
    <v>       0.56886571       0.39316130       0.23173729 </v>
    <v>       0.47768100       0.22391730       0.18017943 </v>
    <v>       0.73035049       0.39802658       0.19909345 </v>
    <v>       0.31101118       0.58132963       0.17977696 </v>
    <v>       0.64681854       0.25040749       0.13377315 </v>
    <v>       0.40275100       0.39355427       0.22106508 </v>
    <v>       0.81808056       0.88988957       0.05647519 </v>
    <v>       0.73319531       0.72568325       0.12448457 </v>
    <v>       0.97932824       0.89597624       0.07999408 </v>
    <v>       0.06867909       0.07698375       0.09423854 </v>
    <v>       0.90528082       0.74258583       0.14719628 </v>
    <v>       0.65472406       0.89333727       0.07691603 </v>
    <v>       0.31825350       0.89473226       0.05377466 </v>
    <v>       0.22716619       0.72126926       0.10084126 </v>
    <v>       0.47498917       0.90396535       0.09489577 </v>
    <v>       0.56592959       0.08075138       0.11024766 </v>
    <v>       0.38612516       0.76037560       0.16363174 </v>
    <v>       0.15509033       0.88950396       0.05271529 </v>
    <v>       0.98784551       0.43883046       0.24713656 </v>
    <v>       0.89991795       0.26975381       0.19549767 </v>
    <v>       0.15759857       0.43325808       0.24240148 </v>
    <v>       0.14788829       0.14353661       0.08017307 </v>
    <v>       0.98633649       0.10796021       0.13653167 </v>
    <v>       0.22915942       0.31533454       0.12527490 </v>
    <v>       0.06735802       0.28598388       0.16888911 </v>
    <v>       0.82274912       0.45552252       0.21014877 </v>
    <v>       0.48493735       0.44793349       0.25146232 </v>
    <v>       0.39648714       0.27665554       0.20625030 </v>
    <v>       0.65756919       0.43524210       0.25419888 </v>
    <v>       0.64488604       0.14640144       0.09374788 </v>
    <v>       0.48286722       0.11321356       0.15081376 </v>
    <v>       0.72606390       0.31870920       0.13454719 </v>
    <v>       0.56470606       0.29135323       0.18008364 </v>
    <v>       0.31888640       0.46086995       0.20329135 </v>
    <v>       0.73287748       0.94248397       0.03965616 </v>
    <v>       0.64891188       0.78317499       0.11254597 </v>
    <v>       0.90382696       0.93469024       0.03189926 </v>
    <v>       0.90701680       0.63807548       0.18754912 </v>
    <v>       0.73647441       0.61699787       0.15934394 </v>
    <v>       0.98321706       0.81212363       0.14197152 </v>
    <v>       0.81925020       0.78400528       0.10639513 </v>
    <v>       0.56804185       0.96074410       0.08520074 </v>
    <v>       0.23699719       0.94478449       0.02657725 </v>
    <v>       0.14820250       0.77173059       0.06843984 </v>
    <v>       0.40793432       0.93556381       0.03646331 </v>
    <v>       0.38047481       0.65838217       0.20939239 </v>
    <v>       0.23501053       0.60894863       0.12850628 </v>
    <v>       0.46527775       0.83024755       0.16578047 </v>
    <v>       0.31113112       0.79334051       0.10891910 </v>
    <v>       0.06990262       0.95754122       0.06514651 </v>
    <v>       0.57736557       0.77647674       0.24193941 </v>
    <v>       0.65582252       0.60772566       0.29790490 </v>
    <v>       0.48700699       0.61617049       0.29396059 </v>
   </varray>
  </structure>
  <varray name="forces" >
   <v>      -0.08547965      -0.05144049      -0.05088488 </v>
   <v>       0.02896829       0.13177469       0.03991541 </v>
   <v>      -0.09133697      -0.00470646      -0.03779950 </v>
   <v>       0.37440621       0.01915502       0.27475896 </v>
   <v>      -0.07248077       0.05824844       0.07043714 </v>
   <v>      -0.11956745       0.08859498      -0.05534008 </v>
   <v>       0.00498478      -0.45179785      -0.28893769 </v>
   <v>       0.23076260       0.04105544      -0.04626820 </v>
   <v>       0.26293034       0.02526917      -0.05170650 </v>
   <v>      -0.15406351      -0.00581353      -0.03558174 </v>
   <v>       0.03920834       0.23032334       0.07748591 </v>
   <v>      -0.18000745      -0.10205849      -0.01069837 </v>
   <v>       0.17684525       0.03275275      -0.02520866 </v>
   <v>       0.36416790       0.32140447       0.00599065 </v>
   <v>       0.02430925       0.00976196      -0.00107448 </v>
   <v>      -0.02956543       0.06110411       0.00048662 </v>
   <v>       0.16092234       0.08978278       0.05119914 </v>
   <v>       0.14891102       0.27097477      -0.04681479 </v>
   <v>       0.00937129      -0.09777294       0.07416054 </v>
   <v>       0.06309735       0.21121096      -0.03891837 </v>
   <v>       0.26215535       0.21571687      -0.12874579 </v>
   <v>       0.17296725       0.15275991      -0.11925444 </v>
   <v>      -0.27318307       0.14675945      -0.30061058 </v>
   <v>      -0.04419034       0.08827694      -0.03630622 </v>
   <v>       0.05880374      -0.03235647      -0.00703732 </v>
   <v>       0.00383227      -0.02838743       0.02077010 </v>
   <v>       0.13915349       0.00443078      -0.01045448 </v>
   <v>      -0.02777037      -0.02898170      -0.01118487 </v>
   <v>       0.10263626      -0.05112653      -0.05391137 </v>
   <v>       0.05286172       0.00297992      -0.02980630 </v>
   <v>       0.03594650      -0.00558151       0.02620466 </v>
   <v>      -0.01219673      -0.23587354      -0.05391981 </v>
   <v>      -0.20859927      -1.02275442      -0.11431132 </v>
   <v>       0.00638188       0.20475497      -0.03428577 </v>
   <v>      -0.07347491      -0.72611712      -0.06982575 </v>
   <v>      -0.20396810      -0.29728622      -0.04304334 </v>
   <v>      -0.02383033      -0.05656409       0.00618925 </v>
   <v>      -0.15201425      -0.12061209      -0.01357890 </v>
   <v>      -0.14114825      -0.03206727       0.06671226 </v>
   <v>       0.01058013      -0.11451056       0.05329832 </v>
   <v>      -0.09732209      -0.02561907       0.05963697 </v>
   <v>       0.11399106      -0.04492604      -0.61544060 </v>
   <v>      -0.10886780       0.00379679       0.02762525 </v>
   <v>      -0.11516502      -0.08848147       0.02191637 </v>
   <v>      -0.25374896      -0.13914523      -0.00893947 </v>
   <v>      -0.03687375      -0.10565802      -0.03377386 </v>
   <v>      -0.24859212      -0.16583759       0.06645883 </v>
   <v>      -0.14105354      -0.11704404      -0.10660432 </v>
   <v>      -0.09144120       0.02660736       0.03297666 </v>
   <v>      -0.01285506       0.01074347      -0.02331100 </v>
   <v>      -0.01397945      -0.06176960       0.09572092 </v>
   <v>      -1.08594911       0.15215750      -0.41193577 </v>
   <v>       0.17258378      -0.05381806       0.03744825 </v>
   <v>      -0.61520763       0.25482603      -0.24124468 </v>
   <v>      -0.03180563      -0.05546802      -0.05441759 </v>
   <v>      -0.01009315      -0.09855483      -0.02255865 </v>
   <v>       0.27772862       3.32115093      -0.41572638 </v>
   <v>       3.62460378      -0.92728523       1.27234986 </v>
   <v>      -2.16727949      -0.82695788       1.26771982 </v>
  </varray>
  <varray name="stress" >
   <v>       2.31673375       3.75005130       1.63818749 </v>
   <v>       3.75005130       1.22065128      -1.90268872 </v>
   <v>       1.63818746      -1.90268871     -10.30246553 </v>
  </varray>
  <energy>
   <i name="e_fr_energy">   -483.48755828 </i>
   <i name="e_wo_entrp">   -483.40924878 </i>
   <i name="e_0_energy">   -483.44840353 </i>
  </energy>
  <time name="totalsc">   49.61   49.72</time>
 </calculation>
 <calculation>
  <scstep>
   <time name="dav">    1.46    1.46</time>
   <time name="total">    1.53    1.53</time>
   <dipole>
    <v name="dipole">      0.00000000       0.00000000       0.02890366 </v>
    <i name="Tr[quadrupol]">  -8017.67410260 </i>
    <i name="Echarged">      0.00000000 </i>
    <i name="Edipol_quadrupol">      0.00000000 </i>
    <i name="Eion">      0.00000000 </i>
   </dipole>
   <energy>
    <i name="alphaZ">    169.15816317 </i>
    <i name="ewald">  28429.92346051 </i>
    <i name="hartreedc"> -41014.42981555 </i>
    <i name="XCdc">    899.03198387 </i>
    <i name="pawpsdc">  30551.10126715 </i>
    <i name="pawaedc"> -30435.19098588 </i>
    <i name="eentropy">     -0.08172990 </i>
    <i name="bandstr">  -3506.78258390 </i>
    <i name="atom">  14423.48512790 </i>
    <i name="e_fr_energy">   -483.78511264 </i>
    <i name="e_wo_entrp">   -483.70338274 </i>
    <i name="e_0_energy">   -483.74424769 </i>
   </energy>
  </scstep>
  <scstep>
   <time name="dav">    1.54    1.54</time>
   <time name="total">    1.61    1.62</time>
   <dipole>
    <v name="dipole">      0.00000000       0.00000000       0.01226831 </v>
    <i name="Tr[quadrupol]">  -8017.70954189 </i>
    <i name="Echarged">      0.00000000 </i>
    <i name="Edipol_quadrupol">      0.00000000 </i>
    <i name="Eion">      0.00000000 </i>
   </dipole>
   <energy>
    <i name="e_fr_energy">   -483.81192582 </i>
    <i name="e_wo_entrp">   -483.74498190 </i>
    <i name="e_0_energy">   -483.77845386 </i>
   </energy>
  </scstep>
  <scstep>
   <time name="dav">    1.58    1.58</time>
   <time name="total">    1.66    1.66</time>
   <dipole>
    <v name="dipole">      0.00000000       0.00000000       0.03273089 </v>
    <i name="Tr[quadrupol]">  -8017.68611145 </i>
    <i name="Echarged">      0.00000000 </i>
    <i name="Edipol_quadrupol">      0.00000000 </i>
    <i name="Eion">      0.00000000 </i>
   </dipole>
   <energy>
    <i name="e_fr_energy">   -483.81427087 </i>
    <i name="e_wo_entrp">   -483.72816170 </i>
    <i name="e_0_energy">   -483.77121629 </i>
   </energy>
  </scstep>
  <scstep>
   <time name="dav">    1.52    1.52</time>
   <time name="total">    1.60    1.60</time>
   <dipole>
    <v name="dipole">      0.00000000       0.00000000       0.01440154 </v>
    <i name="Tr[quadrupol]">  -8017.72029678 </i>
    <i name="Echarged">      0.00000000 </i>
    <i name="Edipol_quadrupol">      0.00000000 </i>
    <i name="Eion">      0.00000000 </i>
   </dipole>
   <energy>
    <i name="e_fr_energy">   -483.80419087 </i>
    <i name="e_wo_entrp">   -483.72802705 </i>
    <i name="e_0_energy">   -483.76610896 </i>
   </energy>
  </scstep>
  <scstep>
   <time name="dav">    1.54    1.54</time>
   <time name="total">    1.61    1.61</time>
   <dipole>
    <v name="dipole">      0.00000000       0.00000000       0.01571306 </v>
    <i name="Tr[quadrupol]">  -8017.72444103 </i>
    <i name="Echarged">      0.00000000 </i>
    <i name="Edipol_quadrupol">      0.00000000 </i>
    <i name="Eion">      0.00000000 </i>
   </dipole>
   <energy>
    <i name="e_fr_energy">   -483.80512511 </i>
    <i name="e_wo_entrp">   -483.72651879 </i>
    <i name="e_0_energy">   -483.76582195 </i>
   </energy>
  </scstep>
  <scstep>
   <time name="dav">    1.54    1.54</time>
   <time name="total">    1.62    1.62</time>
   <dipole>
    <v name="dipole">      0.00000000       0.00000000       0.01416458 </v>
    <i name="Tr[quadrupol]">  -8017.72872249 </i>
    <i name="Echarged">      0.00000000 </i>
    <i name="Edipol_quadrupol">      0.00000000 </i>
    <i name="Eion">      0.00000000 </i>
   </dipole>
   <energy>
    <i name="e_fr_energy">   -483.80428153 </i>
    <i name="e_wo_entrp">   -483.72615371 </i>
    <i name="e_0_energy">   -483.76521762 </i>
   </energy>
  </scstep>
  <scstep>
   <time name="dav">    1.55    1.55</time>
   <time name="total">    1.62    1.63</time>
   <dipole>
    <v name="dipole">      0.00000000       0.00000000       0.01457815 </v>
    <i name="Tr[quadrupol]">  -8017.72967357 </i>
    <i name="Echarged">      0.00000000 </i>
    <i name="Edipol_quadrupol">      0.00000000 </i>
    <i name="Eion">      0.00000000 </i>
   </dipole>
   <energy>
    <i name="e_fr_energy">   -483.80418039 </i>
    <i name="e_wo_entrp">   -483.72581305 </i>
    <i name="e_0_energy">   -483.76499672 </i>
   </energy>
  </scstep>
  <scstep>
   <time name="dav">    1.55    1.55</time>
   <time name="total">    1.62    1.63</time>
   <dipole>
    <v name="dipole">      0.00000000       0.00000000       0.01383303 </v>
    <i name="Tr[quadrupol]">  -8017.73212423 </i>
    <i name="Echarged">      0.00000000 </i>
    <i name="Edipol_quadrupol">      0.00000000 </i>
    <i name="Eion">      0.00000000 </i>
   </dipole>
   <energy>
    <i name="e_fr_energy">   -483.80417574 </i>
    <i name="e_wo_entrp">   -483.72604518 </i>
    <i name="e_0_energy">   -483.76511046 </i>
   </energy>
  </scstep>
  <scstep>
   <time name="dav">    1.25    1.25</time>
   <time name="total">    1.29    1.29</time>
   <dipole>
    <v name="dipole">      0.00000000       0.00000000       0.01329790 </v>
    <i name="Tr[quadrupol]">  -8017.73473810 </i>
    <i name="Echarged">      0.00000000 </i>
    <i name="Edipol_quadrupol">      0.00000000 </i>
    <i name="Eion">      0.00000000 </i>
   </dipole>
   <energy>
    <i name="alphaZ">    169.12039612 </i>
    <i name="ewald">  28429.92346051 </i>
    <i name="hartreedc"> -41019.02900051 </i>
    <i name="XCdc">    899.17660225 </i>
    <i name="pawpsdc">  30488.95805968 </i>
    <i name="pawaedc"> -30372.36462482 </i>
    <i name="eentropy">     -0.07817602 </i>
    <i name="bandstr">  -3502.99602027 </i>
    <i name="atom">  14423.48512790 </i>
    <i name="e_fr_energy">   -483.80417516 </i>
    <i name="e_wo_entrp">   -483.72599914 </i>
    <i name="e_0_energy">   -483.76508715 </i>
   </energy>
  </scstep>
  <structure>
   <crystal>
    <varray name="basis" >
     <v>      13.76728336       0.00000000       0.00000000 </v>
     <v>       0.00000000      11.28997556       0.00000000 </v>
     <v>       0.00000000       0.00000000      15.00000000 </v>
    </varray>
    <i name="volume">   2331.48438963 </i>
    <varray name="rec_basis" >
     <v>       0.07263597       0.00000000       0.00000000 </v>
     <v>       0.00000000       0.08857415       0.00000000 </v>
     <v>       0.00000000       0.00000000       0.06666667 </v>
    </varray>
   </crystal>
   <varray name="positions" >
    <v>       0.07048126       0.38812060       0.22224222 </v>
    <v>       0.98153211       0.21844207       0.16787911 </v>
    <v>       0.22870899       0.39666886       0.18901917 </v>
    <v>       0.82498591       0.57573955       0.18420865 </v>
    <v>       0.14965519       0.24668771       0.12282284 </v>
    <v>       0.90750244       0.38442085       0.21808386 </v>
    <v>       0.56886921       0.39277508       0.23155144 </v>
    <v>       0.47784282       0.22395239       0.18014967 </v>
    <v>       0.73053486       0.39804818       0.19906019 </v>
    <v>       0.31090315       0.58132466       0.17975407 </v>
    <v>       0.64684604       0.25060438       0.13382299 </v>
    <v>       0.40262477       0.39346702       0.22105819 </v>
    <v>       0.81820457       0.88991757       0.05645898 </v>
    <v>       0.73345067       0.72595800       0.12448842 </v>
    <v>       0.97934528       0.89598458       0.07999339 </v>
    <v>       0.06865836       0.07703599       0.09423885 </v>
    <v>       0.90539366       0.74266258       0.14722921 </v>
    <v>       0.65482848       0.89356892       0.07688592 </v>
    <v>       0.31826007       0.89464868       0.05382236 </v>
    <v>       0.22721043       0.72144982       0.10081623 </v>
    <v>       0.47517300       0.90414976       0.09481295 </v>
    <v>       0.56605088       0.08088197       0.11017095 </v>
    <v>       0.38593360       0.76050105       0.16343837 </v>
    <v>       0.15505934       0.88957942       0.05269193 </v>
    <v>       0.98788675       0.43880280       0.24713203 </v>
    <v>       0.89992063       0.26972955       0.19551103 </v>
    <v>       0.15769614       0.43326187       0.24239476 </v>
    <v>       0.14786881       0.14351184       0.08016588 </v>
    <v>       0.98640846       0.10791651       0.13649699 </v>
    <v>       0.22919649       0.31533709       0.12525573 </v>
    <v>       0.06738322       0.28597911       0.16890597 </v>
    <v>       0.82274057       0.45532088       0.21011409 </v>
    <v>       0.48479108       0.44705918       0.25138879 </v>
    <v>       0.39649162       0.27683058       0.20622825 </v>
    <v>       0.65751767       0.43462137       0.25415397 </v>
    <v>       0.64474302       0.14614730       0.09372020 </v>
    <v>       0.48285051       0.11316521       0.15081774 </v>
    <v>       0.72595730       0.31860609       0.13453846 </v>
    <v>       0.56460709       0.29132582       0.18012655 </v>
    <v>       0.31889382       0.46077206       0.20332564 </v>
    <v>       0.73280924       0.94246206       0.03969452 </v>
    <v>       0.64899181       0.78313658       0.11215009 </v>
    <v>       0.90375062       0.93469349       0.03191703 </v>
    <v>       0.90693604       0.63799984       0.18756322 </v>
    <v>       0.73629648       0.61687892       0.15933819 </v>
    <v>       0.98319121       0.81203331       0.14194980 </v>
    <v>       0.81907588       0.78386351       0.10643788 </v>
    <v>       0.56794294       0.96064405       0.08513216 </v>
    <v>       0.23693307       0.94480724       0.02659846 </v>
    <v>       0.14819349       0.77173978       0.06842485 </v>
    <v>       0.40792452       0.93551101       0.03652488 </v>
    <v>       0.37971333       0.65851225       0.20912742 </v>
    <v>       0.23513155       0.60890263       0.12853037 </v>
    <v>       0.46484636       0.83046539       0.16562530 </v>
    <v>       0.31110882       0.79329309       0.10888410 </v>
    <v>       0.06989554       0.95745697       0.06513200 </v>
    <v>       0.57756032       0.77931585       0.24167200 </v>
    <v>       0.65836415       0.60693296       0.29872332 </v>
    <v>       0.48548725       0.61546356       0.29477603 </v>
   </varray>
  </structure>
  <varray name="forces" >
   <v>       0.01491155       0.00279522      -0.02580469 </v>
   <v>       0.02311106       0.03480249       0.00393672 </v>
   <v>      -0.02456957      -0.00067753      -0.03747372 </v>
   <v>       0.07439808       0.02853395       0.20367144 </v>
   <v>      -0.00328106       0.01963557       0.01837847 </v>
   <v>      -0.04586861       0.01476916      -0.04356742 </v>
   <v>      -0.05379799      -0.32057779      -0.18896081 </v>
   <v>       0.04052552       0.00097626      -0.01996569 </v>
   <v>       0.13192007      -0.06807973      -0.08088922 </v>
   <v>      -0.21559383      -0.07037329      -0.07539653 </v>
   <v>      -0.03014509      -0.01739679      -0.03551414 </v>
   <v>      -0.15841470      -0.14406445      -0.03881772 </v>
   <v>       0.00483514       0.02746413      -0.01324295 </v>
   <v>       0.14707270       0.11298939       0.06641752 </v>
   <v>       0.02724577       0.00982821      -0.01932817 </v>
   <v>       0.00136299       0.02790266      -0.02133255 </v>
   <v>       0.05861071       0.00498969       0.07084392 </v>
   <v>       0.07563173       0.14415704      -0.03633774 </v>
   <v>      -0.03456564      -0.01941204       0.01962518 </v>
   <v>       0.00796191       0.07093948      -0.01065768 </v>
   <v>       0.08753036       0.16332615      -0.16909416 </v>
   <v>       0.00656042       0.01828629      -0.08064799 </v>
   <v>      -0.26963742       0.05984279      -0.23020044 </v>
   <v>      -0.04375744       0.06697483      -0.02476305 </v>
   <v>       0.00429771      -0.03755049      -0.02675997 </v>
   <v>       0.02881049      -0.00407129       0.01681668 </v>
   <v>       0.00185534      -0.02648654      -0.01270109 </v>
   <v>      -0.03790932       0.02127792       0.01842972 </v>
   <v>       0.06611872       0.04322934      -0.00511561 </v>
   <v>      -0.01997377      -0.03576495      -0.03087235 </v>
   <v>       0.00787232       0.00511790       0.03486156 </v>
   <v>       0.05727506      -0.14739035      -0.04032853 </v>
   <v>      -0.07517699      -0.69608856      -0.02582816 </v>
   <v>       0.06209262       0.00388472      -0.10382960 </v>
   <v>      -0.02093512      -0.58092978      -0.01711342 </v>
   <v>      -0.07469905      -0.01233562       0.02147151 </v>
   <v>       0.01705311       0.02635677       0.01064057 </v>
   <v>      -0.08178480      -0.08378527      -0.01303781 </v>
   <v>      -0.02769498      -0.13794240      -0.06210125 </v>
   <v>      -0.05624047      -0.06206210       0.03443956 </v>
   <v>       0.05702295       0.02142292       0.03447203 </v>
   <v>       0.09738293      -0.04872049      -0.52973590 </v>
   <v>      -0.04264735       0.00072990       0.05666829 </v>
   <v>      -0.00838394      -0.00819952       0.01781538 </v>
   <v>      -0.09620959      -0.06266104       0.04171828 </v>
   <v>      -0.02384984      -0.07963719      -0.05990453 </v>
   <v>      -0.00265213      -0.03177161       0.04206831 </v>
   <v>      -0.03886795       0.00537465      -0.11224977 </v>
   <v>      -0.00224059      -0.00073028       0.06104175 </v>
   <v>       0.03490757       0.00140258      -0.00699990 </v>
   <v>      -0.03743293      -0.03999541       0.06149031 </v>
   <v>      -0.72257509       0.20095374      -0.24349166 </v>
   <v>       0.03895225       0.03461480      -0.07478840 </v>
   <v>      -0.45442631       0.19977330      -0.13575316 </v>
   <v>      -0.10531521       0.02429256      -0.15389531 </v>
   <v>      -0.02735996      -0.05340084      -0.01457469 </v>
   <v>       0.24809960       2.19337258       0.02956195 </v>
   <v>       2.46863287      -0.40844035       0.91749033 </v>
   <v>      -1.05604480      -0.39147127       1.03921628 </v>
  </varray>
  <varray name="stress" >
   <v>       0.03941584       4.17894792       1.73494613 </v>
   <v>       4.17894792      -0.77103831      -1.21772431 </v>
   <v>       1.73494615      -1.21772431     -10.52383853 </v>
  </varray>
  <energy>
   <i name="e_fr_energy">   -483.80417516 </i>
   <i name="e_wo_entrp">   -483.72599914 </i>
   <i name="e_0_energy">   -483.76508715 </i>
  </energy>
  <time name="totalsc">   15.43   15.46</time>
 </calculation>
 <calculation>
  <scstep>
   <time name="dav">    1.45    1.45</time>
   <time name="total">    1.53    1.53</time>
   <dipole>
    <v name="dipole">      0.00000000       0.00000000       0.01232187 </v>
    <i name="Tr[quadrupol]">  -8014.31396142 </i>
    <i name="Echarged">      0.00000000 </i>
    <i name="Edipol_quadrupol">      0.00000000 </i>
    <i name="Eion">      0.00000000 </i>
   </dipole>
   <energy>
    <i name="alphaZ">    168.77408740 </i>
    <i name="ewald">  28257.14603478 </i>
    <i name="hartreedc"> -40841.98897622 </i>
    <i name="XCdc">    898.30518204 </i>
    <i name="pawpsdc">  30489.60897932 </i>
    <i name="pawaedc"> -30373.01603768 </i>
    <i name="eentropy">     -0.08533173 </i>
    <i name="bandstr">  -3506.18850639 </i>
    <i name="atom">  14423.48512790 </i>
    <i name="e_fr_energy">   -483.95944058 </i>
    <i name="e_wo_entrp">   -483.87410884 </i>
    <i name="e_0_energy">   -483.91677471 </i>
   </energy>
  </scstep>
  <scstep>
   <time name="dav">    1.54    1.54</time>
   <time name="total">    1.62    1.62</time>
   <dipole>
    <v name="dipole">      0.00000000       0.00000000      -0.02455305 </v>
    <i name="Tr[quadrupol]">  -8014.39413446 </i>
    <i name="Echarged">      0.00000000 </i>
    <i name="Edipol_quadrupol">      0.00000000 </i>
    <i name="Eion">      0.00000000 </i>
   </dipole>
   <energy>
    <i name="e_fr_energy">   -484.10110385 </i>
    <i name="e_wo_entrp">   -484.03990966 </i>
    <i name="e_0_energy">   -484.07050676 </i>
   </energy>
  </scstep>
  <scstep>
   <time name="dav">    1.54    1.54</time>
   <time name="total">    1.61    1.61</time>
   <dipole>
    <v name="dipole">      0.00000000       0.00000000       0.00334613 </v>
    <i name="Tr[quadrupol]">  -8014.37145188 </i>
    <i name="Echarged">      0.00000000 </i>
    <i name="Edipol_quadrupol">      0.00000000 </i>
    <i name="Eion">      0.00000000 </i>
   </dipole>
   <energy>
    <i name="e_fr_energy">   -484.09474914 </i>
    <i name="e_wo_entrp">   -484.00861966 </i>
    <i name="e_0_energy">   -484.05168440 </i>
   </energy>
  </scstep>
  <scstep>
   <time name="dav">    1.62    1.62</time>
   <time name="total">    1.70    1.70</time>
   <dipole>
    <v name="dipole">      0.00000000       0.00000000      -0.02557541 </v>
    <i name="Tr[quadrupol]">  -8014.40318758 </i>
    <i name="Echarged">      0.00000000 </i>
    <i name="Edipol_quadrupol">      0.00000000 </i>
    <i name="Eion">      0.00000000 </i>
   </dipole>
   <energy>
    <i name="e_fr_energy">   -484.07476847 </i>
    <i name="e_wo_entrp">   -484.00010006 </i>
    <i name="e_0_energy">   -484.03743426 </i>
   </energy>
  </scstep>
  <scstep>
   <time name="dav">    1.55    1.56</time>
   <time name="total">    1.63    1.64</time>
   <dipole>
    <v name="dipole">      0.00000000       0.00000000      -0.02732953 </v>
    <i name="Tr[quadrupol]">  -8014.42761510 </i>
    <i name="Echarged">      0.00000000 </i>
    <i name="Edipol_quadrupol">      0.00000000 </i>
    <i name="Eion">      0.00000000 </i>
   </dipole>
   <energy>
    <i name="e_fr_energy">   -484.07316280 </i>
    <i name="e_wo_entrp">   -483.99365820 </i>
    <i name="e_0_energy">   -484.03341050 </i>
   </energy>
  </scstep>
  <scstep>
   <time name="dav">    1.54    1.54</time>
   <time name="total">    1.61    1.61</time>
   <dipole>
    <v name="dipole">      0.00000000       0.00000000      -0.02828268 </v>
    <i name="Tr[quadrupol]">  -8014.43445214 </i>
    <i name="Echarged">      0.00000000 </i>
    <i name="Edipol_quadrupol">      0.00000000 </i>
    <i name="Eion">      0.00000000 </i>
   </dipole>
   <energy>
    <i name="e_fr_energy">   -484.07097012 </i>
    <i name="e_wo_entrp">   -483.99096008 </i>
    <i name="e_0_energy">   -484.03096510 </i>
   </energy>
  </scstep>
  <scstep>
   <time name="dav">    1.53    1.53</time>
   <time name="total">    1.60    1.60</time>
   <dipole>
    <v name="dipole">      0.00000000       0.00000000      -0.02949544 </v>
    <i name="Tr[quadrupol]">  -8014.43867892 </i>
    <i name="Echarged">      0.00000000 </i>
    <i name="Edipol_quadrupol">      0.00000000 </i>
    <i name="Eion">      0.00000000 </i>
   </dipole>
   <energy>
    <i name="e_fr_energy">   -484.07024551 </i>
    <i name="e_wo_entrp">   -483.99057307 </i>
    <i name="e_0_energy">   -484.03040929 </i>
   </energy>
  </scstep>
  <scstep>
   <time name="dav">    1.55    1.55</time>
   <time name="total">    1.62    1.62</time>
   <dipole>
    <v name="dipole">      0.00000000       0.00000000      -0.03075730 </v>
    <i name="Tr[quadrupol]">  -8014.44823532 </i>
    <i name="Echarged">      0.00000000 </i>
    <i name="Edipol_quadrupol">      0.00000000 </i>
    <i name="Eion">      0.00000000 </i>
   </dipole>
   <energy>
    <i name="e_fr_energy">   -484.07023108 </i>
    <i name="e_wo_entrp">   -483.99048110 </i>
    <i name="e_0_energy">   -484.03035609 </i>
   </energy>
  </scstep>
  <scstep>
   <time name="dav">    1.51    1.51</time>
   <time name="total">    1.58    1.58</time>
   <dipole>
    <v name="dipole">      0.00000000       0.00000000      -0.03292724 </v>
    <i name="Tr[quadrupol]">  -8014.45368177 </i>
    <i name="Echarged">      0.00000000 </i>
    <i name="Edipol_quadrupol">      0.00000000 </i>
    <i name="Eion">      0.00000000 </i>
   </dipole>
   <energy>
    <i name="e_fr_energy">   -484.07023300 </i>
    <i name="e_wo_entrp">   -483.99094934 </i>
    <i name="e_0_energy">   -484.03059117 </i>
   </energy>
  </scstep>
  <scstep>
   <time name="dav">    1.27    1.27</time>
   <time name="total">    1.34    1.34</time>
   <dipole>
    <v name="dipole">      0.00000000       0.00000000      -0.03425753 </v>
    <i name="Tr[quadrupol]">  -8014.46039135 </i>
    <i name="Echarged">      0.00000000 </i>
    <i name="Edipol_quadrupol">      0.00000000 </i>
    <i name="Eion">      0.00000000 </i>
   </dipole>
   <energy>
    <i name="e_fr_energy">   -484.07025358 </i>
    <i name="e_wo_entrp">   -483.99069487 </i>
    <i name="e_0_energy">   -484.03047423 </i>
   </energy>
  </scstep>
  <scstep>
   <time name="dav">    1.16    1.16</time>
   <time name="total">    1.24    1.25</time>
   <dipole>
    <v name="dipole">      0.00000000       0.00000000      -0.03644051 </v>
    <i name="Tr[quadrupol]">  -8014.47001829 </i>
    <i name="Echarged">      0.00000000 </i>
    <i name="Edipol_quadrupol">      0.00000000 </i>
    <i name="Eion">      0.00000000 </i>
   </dipole>
   <energy>
    <i name="e_fr_energy">   -484.07029306 </i>
    <i name="e_wo_entrp">   -483.99078452 </i>
    <i name="e_0_energy">   -484.03053879 </i>
   </energy>
  </scstep>
  <scstep>
   <time name="dav">    1.13    1.14</time>
   <time name="total">    1.21    1.21</time>
   <dipole>
    <v name="dipole">      0.00000000       0.00000000      -0.03817984 </v>
    <i name="Tr[quadrupol]">  -8014.47812729 </i>
    <i name="Echarged">      0.00000000 </i>
    <i name="Edipol_quadrupol">      0.00000000 </i>
    <i name="Eion">      0.00000000 </i>
   </dipole>
   <energy>
    <i name="e_fr_energy">   -484.07032579 </i>
    <i name="e_wo_entrp">   -483.99081220 </i>
    <i name="e_0_energy">   -484.03056900 </i>
   </energy>
  </scstep>
  <scstep>
   <time name="dav">    1.16    1.16</time>
   <time name="total">    1.23    1.24</time>
   <dipole>
    <v name="dipole">      0.00000000       0.00000000      -0.04052031 </v>
    <i name="Tr[quadrupol]">  -8014.49610694 </i>
    <i name="Echarged">      0.00000000 </i>
    <i name="Edipol_quadrupol">      0.00000000 </i>
    <i name="Eion">      0.00000000 </i>
   </dipole>
   <energy>
    <i name="e_fr_energy">   -484.07036473 </i>
    <i name="e_wo_entrp">   -483.99085767 </i>
    <i name="e_0_energy">   -484.03061120 </i>
   </energy>
  </scstep>
  <scstep>
   <time name="dav">    1.16    1.16</time>
   <time name="total">    1.24    1.24</time>
   <dipole>
[...]
       <r>    1.9678    0.0000 </r>
       <r>    2.0798    0.0000 </r>
       <r>    2.1734    0.0000 </r>
       <r>    2.2738    0.0000 </r>
       <r>    2.4271    0.0000 </r>
       <r>    2.5436    0.0000 </r>
       <r>    2.6583    0.0000 </r>
       <r>    2.7973    0.0000 </r>
       <r>    2.8631    0.0000 </r>
      </set>
     </set>
    </set>
   </array>
  </eigenvalues>
  <separator name="orbital magnetization" >
   <v name="MAGDIPOLOUT">      0.00000000      0.00000000      0.00000000</v>
  </separator>
  <dos>
   <i name="efermi">     -1.99200848 </i>
   <total>
    <array>
     <dimension dim="1">gridpoints</dimension>
     <dimension dim="2">spin</dimension>
     <field>energy</field>
     <field>total</field>
     <field>integrated</field>
     <set>
      <set comment="spin 1">
       <r>   -27.8578     0.0000     0.0000 </r>
       <r>   -27.7503     0.0000     0.0000 </r>
       <r>   -27.6429     0.0000     0.0000 </r>
       <r>   -27.5354     0.0000     0.0000 </r>
       <r>   -27.4279     0.0000     0.0000 </r>
       <r>   -27.3204     0.0000     0.0000 </r>
       <r>   -27.2129     0.0000     0.0000 </r>
       <r>   -27.1054     0.0000     0.0000 </r>
       <r>   -26.9979     0.0000     0.0000 </r>
       <r>   -26.8904     0.0000     0.0000 </r>
       <r>   -26.7829     0.0000     0.0000 </r>
       <r>   -26.6754     0.0004     0.0000 </r>
       <r>   -26.5679     0.0871     0.0094 </r>
       <r>   -26.4604     2.5028     0.2784 </r>
       <r>   -26.3529     9.8090     1.3329 </r>
       <r>   -26.2454     6.2492     2.0046 </r>
       <r>   -26.1379     6.3826     2.6907 </r>
       <r>   -26.0304    11.6602     3.9442 </r>
       <r>   -25.9229    12.2373     5.2596 </r>
       <r>   -25.8154    13.2359     6.6824 </r>
       <r>   -25.7079    10.0059     7.7580 </r>
       <r>   -25.6004     2.1751     7.9918 </r>
       <r>   -25.4929     0.0757     8.0000 </r>
       <r>   -25.3854     0.0056     8.0006 </r>
       <r>   -25.2779     0.3605     8.0393 </r>
       <r>   -25.1704     3.7582     8.4433 </r>
       <r>   -25.0630     9.9458     9.5124 </r>
       <r>   -24.9555    14.5898    11.0808 </r>
       <r>   -24.8480    11.3472    12.3006 </r>
       <r>   -24.7405     8.1768    13.1795 </r>
       <r>   -24.6330     9.7644    14.2292 </r>
       <r>   -24.5255     9.0485    15.2018 </r>
       <r>   -24.4180     2.6360    15.4852 </r>
       <r>   -24.3105     0.1391    15.5002 </r>
       <r>   -24.2030     0.2171    15.5235 </r>
       <r>   -24.0955     3.3201    15.8804 </r>
       <r>   -23.9880    13.0214    17.2801 </r>
       <r>   -23.8805    16.3324    19.0358 </r>
       <r>   -23.7730    15.4176    20.6931 </r>
       <r>   -23.6655    18.9968    22.7352 </r>
       <r>   -23.5580    12.6651    24.0967 </r>
       <r>   -23.4505     3.5185    24.4749 </r>
       <r>   -23.3430     0.4260    24.5207 </r>
       <r>   -23.2355     2.8352    24.8255 </r>
       <r>   -23.1280     9.3932    25.8352 </r>
       <r>   -23.0205     9.2133    26.8256 </r>
       <r>   -22.9130     6.8492    27.5618 </r>
       <r>   -22.8055    12.1885    28.8720 </r>
       <r>   -22.6980    13.7490    30.3500 </r>
       <r>   -22.5905    10.5470    31.4838 </r>
       <r>   -22.4831     4.3039    31.9464 </r>
       <r>   -22.3756     0.4888    31.9990 </r>
       <r>   -22.2681     0.0351    32.0027 </r>
       <r>   -22.1606     1.0339    32.1139 </r>
       <r>   -22.0531     7.9968    32.9735 </r>
       <r>   -21.9456    21.5646    35.2916 </r>
       <r>   -21.8381    25.7067    38.0549 </r>
       <r>   -21.7306    22.6576    40.4906 </r>
       <r>   -21.6231    22.1416    42.8707 </r>
       <r>   -21.5156    26.2035    45.6874 </r>
       <r>   -21.4081    18.4127    47.6667 </r>
       <r>   -21.3006     3.0759    47.9974 </r>
       <r>   -21.1931     1.3205    48.1393 </r>
       <r>   -21.0856     5.9445    48.7783 </r>
       <r>   -20.9781    13.4541    50.2246 </r>
       <r>   -20.8706    19.2063    52.2892 </r>
       <r>   -20.7631    18.7231    54.3019 </r>
       <r>   -20.6556    15.0146    55.9159 </r>
       <r>   -20.5481    13.3666    57.3527 </r>
       <r>   -20.4406     9.6134    58.3861 </r>
       <r>   -20.3331    11.0171    59.5704 </r>
       <r>   -20.2256     9.6237    60.6049 </r>
       <r>   -20.1181    14.9412    62.2110 </r>
       <r>   -20.0106    12.9642    63.6046 </r>
       <r>   -19.9032     3.5017    63.9810 </r>
       <r>   -19.7957     0.1751    63.9999 </r>
       <r>   -19.6882     0.0012    64.0000 </r>
       <r>   -19.5807     0.0000    64.0000 </r>
       <r>   -19.4732     0.0000    64.0000 </r>
       <r>   -19.3657     0.0000    64.0000 </r>
       <r>   -19.2582     0.0000    64.0000 </r>
       <r>   -19.1507     0.0000    64.0000 </r>
       <r>   -19.0432     0.0000    64.0000 </r>
       <r>   -18.9357     0.0000    64.0000 </r>
       <r>   -18.8282     0.0000    64.0000 </r>
       <r>   -18.7207     0.0000    64.0000 </r>
       <r>   -18.6132     0.0000    64.0000 </r>
       <r>   -18.5057     0.0000    64.0000 </r>
       <r>   -18.3982     0.0000    64.0000 </r>
       <r>   -18.2907     0.0000    64.0000 </r>
       <r>   -18.1832     0.0000    64.0000 </r>
       <r>   -18.0757     0.0000    64.0000 </r>
       <r>   -17.9682     0.0000    64.0000 </r>
       <r>   -17.8607     0.0000    64.0000 </r>
       <r>   -17.7532     0.0082    64.0009 </r>
       <r>   -17.6457     0.5671    64.0618 </r>
       <r>   -17.5382     5.6832    64.6728 </r>
       <r>   -17.4307    10.9672    65.8517 </r>
       <r>   -17.3233    10.6229    66.9936 </r>
       <r>   -17.2158    14.0118    68.4998 </r>
       <r>   -17.1083    15.1571    70.1291 </r>
       <r>   -17.0008    16.8635    71.9419 </r>
       <r>   -16.8933    17.9608    73.8726 </r>
       <r>   -16.7858    17.7321    75.7787 </r>
       <r>   -16.6783    10.7408    76.9333 </r>
       <r>   -16.5708    11.4936    78.1688 </r>
       <r>   -16.4633     9.9147    79.2346 </r>
       <r>   -16.3558     2.3660    79.4890 </r>
       <r>   -16.2483     0.2141    79.5120 </r>
       <r>   -16.1408     1.3968    79.6621 </r>
       <r>   -16.0333     2.4753    79.9282 </r>
       <r>   -15.9258     0.6454    79.9976 </r>
       <r>   -15.8183     0.0735    80.0055 </r>
       <r>   -15.7108     1.7508    80.1937 </r>
       <r>   -15.6033    10.6674    81.3404 </r>
       <r>   -15.4958    19.1314    83.3969 </r>
       <r>   -15.3883    20.9822    85.6524 </r>
       <r>   -15.2808    14.6837    87.2309 </r>
       <r>   -15.1733     5.0461    87.7733 </r>
       <r>   -15.0658     2.3766    88.0288 </r>
       <r>   -14.9583     2.5647    88.3045 </r>
       <r>   -14.8508     2.5047    88.5737 </r>
       <r>   -14.7434     2.7258    88.8667 </r>
       <r>   -14.6359     1.3224    89.0089 </r>
       <r>   -14.5284     3.5118    89.3864 </r>
       <r>   -14.4209    12.4785    90.7278 </r>
       <r>   -14.3134    14.4682    92.2830 </r>
       <r>   -14.2059    14.1724    93.8065 </r>
       <r>   -14.0984    12.0612    95.1031 </r>
       <r>   -13.9909    12.5634    96.4536 </r>
       <r>   -13.8834    18.5641    98.4491 </r>
       <r>   -13.7759    23.4925   100.9745 </r>
       <r>   -13.6684    22.4477   103.3875 </r>
       <r>   -13.5609    21.4918   105.6978 </r>
       <r>   -13.4534    20.9423   107.9490 </r>
       <r>   -13.3459    24.5947   110.5928 </r>
       <r>   -13.2384    23.1141   113.0775 </r>
       <r>   -13.1309    12.2477   114.3941 </r>
       <r>   -13.0234     6.2495   115.0659 </r>
       <r>   -12.9159     6.8607   115.8034 </r>
       <r>   -12.8084    10.5448   116.9369 </r>
       <r>   -12.7009     8.7374   117.8761 </r>
       <r>   -12.5934     4.6824   118.3795 </r>
       <r>   -12.4859     5.7736   119.0001 </r>
       <r>   -12.3784     7.5024   119.8066 </r>
       <r>   -12.2709    10.0132   120.8830 </r>
       <r>   -12.1635    11.5833   122.1281 </r>
       <r>   -12.0560     6.1786   122.7923 </r>
       <r>   -11.9485    10.2717   123.8964 </r>
       <r>   -11.8410    14.5321   125.4586 </r>
       <r>   -11.7335    16.9741   127.2832 </r>
       <r>   -11.6260    23.2348   129.7809 </r>
       <r>   -11.5185    20.3834   131.9720 </r>
       <r>   -11.4110    17.5824   133.8620 </r>
       <r>   -11.3035    16.5766   135.6440 </r>
       <r>   -11.1960    17.8808   137.5661 </r>
       <r>   -11.0885    15.1937   139.1993 </r>
       <r>   -10.9810    11.0234   140.3843 </r>
       <r>   -10.8735     5.5279   140.9785 </r>
       <r>   -10.7660     6.9819   141.7290 </r>
       <r>   -10.6585    14.3267   143.2691 </r>
       <r>   -10.5510    15.7480   144.9619 </r>
       <r>   -10.4435    14.1389   146.4818 </r>
       <r>   -10.3360    14.3394   148.0233 </r>
       <r>   -10.2285    15.0816   149.6445 </r>
       <r>   -10.1210    14.3465   151.1867 </r>
       <r>   -10.0135     6.9085   151.9293 </r>
       <r>    -9.9060     2.9378   152.2451 </r>
       <r>    -9.7985     4.8773   152.7694 </r>
       <r>    -9.6910    10.5022   153.8983 </r>
       <r>    -9.5836    14.5453   155.4619 </r>
       <r>    -9.4761    19.0464   157.5093 </r>
       <r>    -9.3686    18.6530   159.5144 </r>
       <r>    -9.2611    20.1735   161.6830 </r>
       <r>    -9.1536    26.3118   164.5114 </r>
       <r>    -9.0461    25.2702   167.2278 </r>
       <r>    -8.9386    21.1811   169.5047 </r>
       <r>    -8.8311    15.4151   171.1618 </r>
       <r>    -8.7236     7.3814   171.9552 </r>
       <r>    -8.6161     5.3739   172.5329 </r>
       <r>    -8.5086    11.6185   173.7819 </r>
       <r>    -8.4011     6.1166   174.4394 </r>
       <r>    -8.2936     4.8426   174.9599 </r>
       <r>    -8.1861    14.1953   176.4858 </r>
       <r>    -8.0786    15.4180   178.1432 </r>
       <r>    -7.9711    12.4993   179.4868 </r>
       <r>    -7.8636    14.7015   181.0672 </r>
       <r>    -7.7561    11.7362   182.3288 </r>
       <r>    -7.6486    11.6305   183.5790 </r>
       <r>    -7.5411    10.7390   184.7334 </r>
       <r>    -7.4336    19.3334   186.8117 </r>
       <r>    -7.3261    26.7832   189.6908 </r>
       <r>    -7.2186    34.8280   193.4346 </r>
       <r>    -7.1111    32.8571   196.9666 </r>
       <r>    -7.0037    26.0547   199.7674 </r>
       <r>    -6.8962    23.6454   202.3092 </r>
       <r>    -6.7887    16.7317   204.1078 </r>
       <r>    -6.6812    18.1244   206.0561 </r>
       <r>    -6.5737    18.5906   208.0545 </r>
       <r>    -6.4662    17.4446   209.9297 </r>
       <r>    -6.3587    18.0566   211.8707 </r>
       <r>    -6.2512    16.3890   213.6325 </r>
       <r>    -6.1437    14.4988   215.1910 </r>
       <r>    -6.0362     9.9582   216.2615 </r>
       <r>    -5.9287    13.6087   217.7244 </r>
       <r>    -5.8212    20.8946   219.9704 </r>
       <r>    -5.7137    26.6487   222.8351 </r>
       <r>    -5.6062    21.7574   225.1739 </r>
       <r>    -5.4987    21.7465   227.5116 </r>
       <r>    -5.3912    22.2426   229.9026 </r>
       <r>    -5.2837    29.5605   233.0802 </r>
       <r>    -5.1762    28.3344   236.1260 </r>
       <r>    -5.0687    23.8383   238.6885 </r>
       <r>    -4.9612    25.9330   241.4762 </r>
       <r>    -4.8537    27.9320   244.4788 </r>
       <r>    -4.7462    30.1547   247.7203 </r>
       <r>    -4.6387    26.5688   250.5763 </r>
       <r>    -4.5312    23.7884   253.1335 </r>
       <r>    -4.4238    22.2441   255.5246 </r>
       <r>    -4.3163    25.0945   258.2222 </r>
       <r>    -4.2088    25.8382   260.9997 </r>
       <r>    -4.1013    17.5037   262.8813 </r>
       <r>    -3.9938    18.5171   264.8718 </r>
       <r>    -3.8863     9.7882   265.9240 </r>
       <r>    -3.7788     6.9053   266.6663 </r>
       <r>    -3.6713     9.9946   267.7407 </r>
       <r>    -3.5638     6.6332   268.4537 </r>
       <r>    -3.4563    18.0577   270.3948 </r>
       <r>    -3.3488    16.7879   272.1995 </r>
       <r>    -3.2413    12.2963   273.5213 </r>
       <r>    -3.1338     9.7112   274.5652 </r>
       <r>    -3.0263    16.5807   276.3475 </r>
       <r>    -2.9188    22.4416   278.7599 </r>
       <r>    -2.8113    13.1983   280.1787 </r>
       <r>    -2.7038    15.4968   281.8445 </r>
       <r>    -2.5963    16.2640   283.5928 </r>
       <r>    -2.4888     3.6491   283.9851 </r>
       <r>    -2.3813     0.1383   283.9999 </r>
       <r>    -2.2738     0.0575   284.0061 </r>
       <r>    -2.1663     1.9903   284.2201 </r>
       <r>    -2.0588     9.7090   285.2638 </r>
       <r>    -1.9513    10.6346   286.4069 </r>
       <r>    -1.8439    12.6660   287.7685 </r>
       <r>    -1.7364    13.9845   289.2718 </r>
       <r>    -1.6289    13.5510   290.7284 </r>
       <r>    -1.5214    15.0324   292.3443 </r>
       <r>    -1.4139    13.8672   293.8350 </r>
       <r>    -1.3064    12.7818   295.2090 </r>
       <r>    -1.1989    14.6888   296.7880 </r>
       <r>    -1.0914    17.1523   298.6318 </r>
       <r>    -0.9839    21.1051   300.9005 </r>
       <r>    -0.8764    17.8901   302.8236 </r>
       <r>    -0.7689    10.9414   303.9998 </r>
       <r>    -0.6614     6.7166   304.7218 </r>
       <r>    -0.5539     9.5383   305.7471 </r>
       <r>    -0.4464    15.9848   307.4654 </r>
       <r>    -0.3389    21.3067   309.7558 </r>
       <r>    -0.2314    16.4986   311.5293 </r>
       <r>    -0.1239     4.1272   311.9730 </r>
       <r>    -0.0164     0.2487   311.9997 </r>
       <r>     0.0911     0.0031   312.0000 </r>
       <r>     0.1986     0.0772   312.0083 </r>
       <r>     0.3061     1.8327   312.2054 </r>
       <r>     0.4136     7.4493   313.0061 </r>
       <r>     0.5211     7.4632   313.8084 </r>
       <r>     0.6286     4.9849   314.3443 </r>
       <r>     0.7360     9.9668   315.4156 </r>
       <r>     0.8435     6.7814   316.1446 </r>
       <r>     0.9510     9.4550   317.1610 </r>
       <r>     1.0585    10.1203   318.2489 </r>
       <r>     1.1660     9.6916   319.2907 </r>
       <r>     1.2735     9.1809   320.2776 </r>
       <r>     1.3810    18.0628   322.2193 </r>
       <r>     1.4885    26.3109   325.0476 </r>
       <r>     1.5960    22.5366   327.4702 </r>
       <r>     1.7035    20.7567   329.7014 </r>
       <r>     1.8110    20.3551   331.8895 </r>
       <r>     1.9185    20.0611   334.0460 </r>
       <r>     2.0260    20.4268   336.2418 </r>
       <r>     2.1335    17.9506   338.1714 </r>
       <r>     2.2410    18.6537   340.1766 </r>
       <r>     2.3485    14.9045   341.7788 </r>
       <r>     2.4560    14.4048   343.3272 </r>
       <r>     2.5635    18.0864   345.2714 </r>
       <r>     2.6710    16.5595   347.0515 </r>
       <r>     2.7785    20.0295   349.2046 </r>
       <r>     2.8860    18.1587   351.1566 </r>
       <r>     2.9935     6.8259   351.8903 </r>
       <r>     3.1010     0.9879   351.9965 </r>
       <r>     3.2085     0.0320   352.0000 </r>
       <r>     3.3159     0.0001   352.0000 </r>
       <r>     3.4234     0.0000   352.0000 </r>
       <r>     3.5309     0.0000   352.0000 </r>
       <r>     3.6384     0.0000   352.0000 </r>
       <r>     3.7459     0.0000   352.0000 </r>
       <r>     3.8534     0.0000   352.0000 </r>
       <r>     3.9609     0.0000   352.0000 </r>
       <r>     4.0684     0.0000   352.0000 </r>
       <r>     4.1759     0.0000   352.0000 </r>
       <r>     4.2834     0.0000   352.0000 </r>
       <r>     4.3909     0.0000   352.0000 </r>
      </set>
     </set>
    </array>
   </total>
  </dos>
 </calculation>
 <structure name="finalpos" >
  <crystal>
   <varray name="basis" >
    <v>      13.67994325       0.00000000       0.00000000 </v>
    <v>       0.00000000      10.91925614       0.00000000 </v>
    <v>       0.00000000       0.00000000      15.00000000 </v>
   </varray>
   <i name="volume">   2240.62206516 </i>
   <varray name="rec_basis" >
    <v>       0.07309972       0.00000000       0.00000000 </v>
    <v>       0.00000000       0.09158133       0.00000000 </v>
    <v>       0.00000000       0.00000000       0.06666667 </v>
   </varray>
  </crystal>
  <varray name="positions" >
   <v>       0.07185416       0.38283376       0.23013246 </v>
   <v>       0.98044113       0.21584555       0.16660693 </v>
   <v>       0.23038148       0.39155069       0.19728851 </v>
   <v>       0.82053092       0.58120631       0.20267119 </v>
   <v>       0.14952794       0.24697125       0.12222018 </v>
   <v>       0.90812315       0.38260891       0.22611608 </v>
   <v>       0.57243050       0.38732930       0.23807473 </v>
   <v>       0.48007140       0.22042765       0.17766772 </v>
   <v>       0.73181649       0.39502961       0.20604953 </v>
   <v>       0.30962808       0.58103002       0.18582697 </v>
   <v>       0.64879202       0.25279486       0.13003227 </v>
   <v>       0.40557549       0.39142928       0.22836303 </v>
   <v>       0.81695790       0.88310996       0.04979759 </v>
   <v>       0.72822154       0.72298463       0.12488093 </v>
   <v>       0.97796960       0.89084146       0.07373270 </v>
   <v>       0.06669289       0.07651265       0.08539661 </v>
   <v>       0.90114795       0.74857304       0.15547893 </v>
   <v>       0.65288192       0.88546280       0.06272348 </v>
   <v>       0.31673618       0.88968246       0.04436429 </v>
   <v>       0.22527613       0.71664711       0.09947731 </v>
   <v>       0.47405134       0.90331026       0.08633030 </v>
   <v>       0.56718438       0.08089134       0.09794692 </v>
   <v>       0.38369904       0.76506667       0.16217708 </v>
   <v>       0.15317632       0.88507618       0.04280793 </v>
   <v>       0.98976929       0.43543139       0.25683184 </v>
   <v>       0.89961115       0.26544783       0.19923671 </v>
   <v>       0.16030868       0.42375886       0.25379830 </v>
   <v>       0.14680478       0.14496771       0.07402596 </v>
   <v>       0.98401939       0.10572265       0.12817263 </v>
   <v>       0.23017459       0.31584121       0.12830927 </v>
   <v>       0.06752629       0.28369131       0.17089402 </v>
   <v>       0.82337477       0.45407298       0.22163907 </v>
   <v>       0.48825777       0.44633187       0.25829460 </v>
   <v>       0.39930136       0.27180883       0.20902540 </v>
   <v>       0.66060566       0.42528617       0.26362653 </v>
   <v>       0.64576810       0.14951123       0.08327116 </v>
   <v>       0.48371661       0.11022658       0.14064270 </v>
   <v>       0.72755786       0.32337868       0.13412749 </v>
   <v>       0.56699555       0.28768000       0.18085275 </v>
   <v>       0.31983284       0.45890814       0.21332832 </v>
   <v>       0.73254222       0.93682852       0.02829308 </v>
   <v>       0.64442675       0.77147108       0.09566596 </v>
   <v>       0.90332512       0.92309683       0.02116852 </v>
   <v>       0.90241813       0.64712865       0.20394586 </v>
   <v>       0.73035320       0.61881265       0.17304394 </v>
   <v>       0.98108013       0.81700103       0.14327625 </v>
   <v>       0.81537250       0.78409344       0.10993817 </v>
   <v>       0.56752408       0.95779398       0.07033454 </v>
   <v>       0.23546784       0.94059276       0.01508533 </v>
   <v>       0.14634747       0.76427554       0.06294177 </v>
   <v>       0.40780520       0.92737269       0.02512903 </v>
   <v>       0.37882534       0.66248059       0.21086944 </v>
   <v>       0.23234731       0.60425000       0.13462958 </v>
   <v>       0.46179826       0.84111993       0.16459196 </v>
   <v>       0.30958169       0.79094963       0.10374183 </v>
   <v>       0.06816914       0.95412625       0.05415050 </v>
   <v>       0.56250627       0.84120060       0.26850988 </v>
   <v>       0.68540230       0.64899698       0.31260866 </v>
   <v>       0.50507528       0.62821705       0.28301290 </v>
  </varray>
 </structure>
</modeling>
