slab_Cel1-OPT                           
           1
    13.759704    0.000000    0.000000
     0.000000   11.286700    0.000000
     0.000000    0.000000   15.000000
   C    N    Pd
    24    32     3
Direct configuration=     1
   0.07054120  0.38816457  0.22227495
   0.98151180  0.21832942  0.16785344
   0.22877304  0.39667288  0.18904348
   0.82472337  0.57572318  0.18403191
   0.14970601  0.24663792  0.12277753
   0.90758628  0.38434512  0.21811946
   0.56886571  0.39316130  0.23173729
   0.47768100  0.22391730  0.18017943
   0.73035049  0.39802658  0.19909345
   0.31101118  0.58132963  0.17977696
   0.64681854  0.25040749  0.13377315
   0.40275100  0.39355427  0.22106508
   0.81808056  0.88988957  0.05647519
   0.73319531  0.72568325  0.12448457
   0.97932824  0.89597624  0.07999408
   0.06867909  0.07698375  0.09423854
   0.90528082  0.74258583  0.14719628
   0.65472406  0.89333727  0.07691603
   0.31825350  0.89473226  0.05377466
   0.22716619  0.72126926  0.10084126
   0.47498917  0.90396535  0.09489577
   0.56592959  0.08075138  0.11024766
   0.38612516  0.76037560  0.16363174
   0.15509033  0.88950396  0.05271529
   0.98784551  0.43883046  0.24713656
   0.89991795  0.26975381  0.19549767
   0.15759857  0.43325808  0.24240148
   0.14788829  0.14353661  0.08017307
   0.98633649  0.10796021  0.13653167
   0.22915942  0.31533454  0.12527490
   0.06735802  0.28598388  0.16888911
   0.82274912  0.45552252  0.21014877
   0.48493735  0.44793349  0.25146232
   0.39648714  0.27665554  0.20625030
   0.65756919  0.43524210  0.25419888
   0.64488604  0.14640144  0.09374788
   0.48286722  0.11321356  0.15081376
   0.72606390  0.31870920  0.13454719
   0.56470606  0.29135323  0.18008364
   0.31888640  0.46086995  0.20329135
   0.73287748  0.94248397  0.03965616
   0.64891188  0.78317499  0.11254597
   0.90382696  0.93469024  0.03189926
   0.90701680  0.63807548  0.18754912
   0.73647441  0.61699787  0.15934394
   0.98321706  0.81212363  0.14197152
   0.81925020  0.78400528  0.10639513
   0.56804185  0.96074410  0.08520074
   0.23699719  0.94478449  0.02657725
   0.14820250  0.77173059  0.06843984
   0.40793432  0.93556381  0.03646331
   0.38047481  0.65838217  0.20939239
   0.23501053  0.60894863  0.12850628
   0.46527775  0.83024755  0.16578047
   0.31113112  0.79334051  0.10891910
   0.06990262  0.95754122  0.06514651
   0.57736557  0.77647674  0.24193941
   0.65582252  0.60772566  0.29790490
   0.48700699  0.61617049  0.29396059
slab_Cel1-OPT                           
           1
    13.767283    0.000000    0.000000
     0.000000   11.289976    0.000000
     0.000000    0.000000   15.000000
   C    N    Pd
    24    32     3
Direct configuration=     2
   0.07048126  0.38812060  0.22224222
   0.98153211  0.21844207  0.16787911
   0.22870899  0.39666886  0.18901917
   0.82498591  0.57573955  0.18420865
   0.14965519  0.24668771  0.12282284
   0.90750244  0.38442085  0.21808386
   0.56886921  0.39277508  0.23155144
   0.47784282  0.22395239  0.18014967
   0.73053486  0.39804818  0.19906019
   0.31090315  0.58132466  0.17975407
   0.64684604  0.25060438  0.13382299
   0.40262477  0.39346702  0.22105819
   0.81820457  0.88991757  0.05645898
   0.73345067  0.72595800  0.12448842
   0.97934528  0.89598458  0.07999339
   0.06865836  0.07703599  0.09423885
   0.90539366  0.74266258  0.14722921
   0.65482848  0.89356892  0.07688592
   0.31826007  0.89464868  0.05382236
   0.22721043  0.72144982  0.10081623
   0.47517300  0.90414976  0.09481295
   0.56605088  0.08088197  0.11017095
   0.38593360  0.76050105  0.16343837
   0.15505934  0.88957942  0.05269193
   0.98788675  0.43880280  0.24713203
   0.89992063  0.26972955  0.19551103
   0.15769614  0.43326187  0.24239476
   0.14786881  0.14351184  0.08016588
   0.98640846  0.10791651  0.13649699
   0.22919649  0.31533709  0.12525573
   0.06738322  0.28597911  0.16890597
   0.82274057  0.45532088  0.21011409
   0.48479108  0.44705918  0.25138879
   0.39649162  0.27683058  0.20622825
   0.65751767  0.43462137  0.25415397
   0.64474302  0.14614730  0.09372020
   0.48285051  0.11316521  0.15081774
   0.72595730  0.31860609  0.13453846
   0.56460709  0.29132582  0.18012655
   0.31889382  0.46077206  0.20332564
   0.73280924  0.94246206  0.03969452
   0.64899181  0.78313658  0.11215009
   0.90375062  0.93469349  0.03191703
   0.90693604  0.63799984  0.18756322
   0.73629648  0.61687892  0.15933819
   0.98319121  0.81203331  0.14194980
   0.81907588  0.78386351  0.10643788
   0.56794294  0.96064405  0.08513216
   0.23693307  0.94480724  0.02659846
   0.14819349  0.77173978  0.06842485
   0.40792452  0.93551101  0.03652488
   0.37971333  0.65851225  0.20912742
   0.23513155  0.60890263  0.12853037
   0.46484636  0.83046539  0.16562530
   0.31110882  0.79329309  0.10888410
   0.06989554  0.95745697  0.06513200
   0.57756032  0.77931585  0.24167200
   0.65836415  0.60693296  0.29872332
   0.48548725  0.61546356  0.29477603
slab_Cel1-OPT                           
           1
    13.785427    0.000000    0.000000
     0.000000   11.297817    0.000000
     0.000000    0.000000   15.000000
   C    N    Pd
    24    32     3
Direct configuration=     3
   0.07033786  0.38801537  0.22216387
   0.98158071  0.21871164  0.16794057
   0.22855576  0.39665923  0.18896097
   0.82561401  0.57577874  0.18463170
   0.14953359  0.24680687  0.12293129
   0.90730186  0.38460209  0.21799865
   0.56887757  0.39185084  0.23110656
   0.47822994  0.22403638  0.18007843
   0.73097595  0.39809987  0.19898058
   0.31064470  0.58131276  0.17969928
   0.64691181  0.25107555  0.13394229
   0.40232280  0.39325824  0.22104172
   0.81850124  0.88998457  0.05642016
   0.73406159  0.72661550  0.12449765
   0.97938606  0.89600455  0.07999173
   0.06860876  0.07716099  0.09423960
   0.90566362  0.74284624  0.14730804
   0.65507829  0.89412325  0.07681384
   0.31827579  0.89444867  0.05393655
   0.22731628  0.72188189  0.10075630
   0.47561278  0.90459105  0.09461472
   0.56634105  0.08119446  0.10998734
   0.38547531  0.76080128  0.16297552
   0.15498521  0.88976001  0.05263603
   0.98798540  0.43873661  0.24712120
   0.89992706  0.26967147  0.19554301
   0.15792959  0.43327093  0.24237866
   0.14782223  0.14345255  0.08014866
   0.98658064  0.10781192  0.13641398
   0.22928517  0.31534319  0.12520984
   0.06744353  0.28596769  0.16894631
   0.82272011  0.45483835  0.21003107
   0.48444113  0.44496694  0.25121278
   0.39650233  0.27724944  0.20617546
   0.65739440  0.43313596  0.25404646
   0.64440084  0.14553915  0.09365392
   0.48281053  0.11304949  0.15082727
   0.72570229  0.31835935  0.13451755
   0.56437030  0.29126022  0.18022926
   0.31891157  0.46053781  0.20340770
   0.73264597  0.94240966  0.03978635
   0.64918304  0.78304468  0.11120249
   0.90356798  0.93470125  0.03195956
   0.90674285  0.63781884  0.18759697
   0.73587079  0.61659427  0.15932442
   0.98312935  0.81181716  0.14189779
   0.81865885  0.78352426  0.10654021
   0.56770631  0.96040461  0.08496802
   0.23677967  0.94486167  0.02664924
   0.14817192  0.77176176  0.06838895
   0.40790107  0.93538464  0.03667227
   0.37789155  0.65882351  0.20849316
   0.23542107  0.60879253  0.12858803
   0.46381429  0.83098668  0.16525385
   0.31105546  0.79317962  0.10880031
   0.06987861  0.95725535  0.06509726
   0.57802623  0.78610990  0.24103190
   0.66444474  0.60503602  0.30068238
   0.48185145  0.61377185  0.29672796
slab_Cel1-OPT                           
           1
    13.768785    0.000000    0.000000
     0.000000   11.281461    0.000000
     0.000000    0.000000   15.000000
   C    N    Pd
    24    32     3
Direct configuration=     4
   0.07057406  0.38816145  0.22218353
   0.98159756  0.21852658  0.16787830
   0.22867144  0.39666863  0.18891503
   0.82506265  0.57582369  0.18475918
   0.14967996  0.24673896  0.12285258
   0.90740497  0.38443455  0.21796890
   0.56868467  0.39170878  0.23109229
   0.47788357  0.22391785  0.18010496
   0.73084484  0.39775643  0.19884067
   0.31021263  0.58101669  0.17952100
   0.64674041  0.25043528  0.13368176
   0.40216234  0.39291535  0.22093375
   0.81814115  0.89000158  0.05643105
   0.73373131  0.72624115  0.12468625
   0.97943172  0.89602404  0.07993017
   0.06868079  0.07712389  0.09417133
   0.90551579  0.74263697  0.14742589
   0.65501700  0.89399189  0.07679439
   0.31814464  0.89462249  0.05384767
   0.22720887  0.72164461  0.10079802
   0.47533322  0.90469971  0.09433078
   0.56597265  0.08085702  0.10997109
   0.38511929  0.76065099  0.16284052
   0.15493422  0.88981562  0.05262422
   0.98787710  0.43866167  0.24704892
   0.90002237  0.26972400  0.19555521
   0.15763922  0.43314752  0.24236097
   0.14774693  0.14361327  0.08022932
   0.98658955  0.10812349  0.13650356
   0.22909805  0.31517967  0.12516965
   0.06739146  0.28599998  0.16900515
   0.82295955  0.45482990  0.21001634
   0.48464354  0.44470698  0.25136310
   0.39668369  0.27671184  0.20591463
   0.65749306  0.43255307  0.25411602
   0.64460017  0.14624967  0.09378778
   0.48291454  0.11331584  0.15084997
   0.72574015  0.31830543  0.13448752
   0.56456579  0.29072496  0.17988887
   0.31868391  0.46057235  0.20340874
   0.73305361  0.94258068  0.03977052
   0.64928635  0.78297384  0.11071833
   0.90366197  0.93469510  0.03208677
   0.90697897  0.63800668  0.18761124
   0.73606743  0.61669836  0.15947350
   0.98312807  0.81175755  0.14177544
   0.81922536  0.78385171  0.10653523
   0.56788408  0.96073842  0.08481919
   0.23695573  0.94478703  0.02678287
   0.14832105  0.77173836  0.06841259
   0.40780300  0.93537098  0.03667517
   0.37773077  0.65931111  0.20852624
   0.23517042  0.60905922  0.12827081
   0.46356808  0.83117908  0.16530882
   0.31075056  0.79342912  0.10840928
   0.06980478  0.95728064  0.06509392
   0.57833145  0.78769156  0.24161889
   0.66609110  0.60521316  0.30132624
   0.48194927  0.61389295  0.29767350
slab_Cel1-OPT                           
           1
    13.760892    0.000000    0.000000
     0.000000   11.273704    0.000000
     0.000000    0.000000   15.000000
   C    N    Pd
    24    32     3
Direct configuration=     5
   0.07068622  0.38823083  0.22219285
   0.98160557  0.21843869  0.16784877
   0.22872637  0.39667309  0.18889325
   0.82480084  0.57584504  0.18481964
   0.14974947  0.24670670  0.12281525
   0.90745393  0.38435497  0.21795479
   0.56859308  0.39164131  0.23108552
   0.47771910  0.22386156  0.18011754
   0.73078258  0.39759331  0.19877432
   0.31000747  0.58087606  0.17943645
   0.64665902  0.25013118  0.13355820
   0.40208615  0.39275250  0.22088254
   0.81797017  0.89000965  0.05643621
   0.73357449  0.72606336  0.12477569
   0.97945339  0.89603330  0.07990098
   0.06871499  0.07710628  0.09413895
   0.90544559  0.74253758  0.14748178
   0.65498790  0.89392951  0.07678517
   0.31808236  0.89470505  0.05380552
   0.22715787  0.72153191  0.10081780
   0.47520048  0.90475131  0.09419612
   0.56579772  0.08069674  0.10996338
   0.38495024  0.76057960  0.16277650
   0.15491001  0.88984204  0.05261861
   0.98782568  0.43862608  0.24701464
   0.90006763  0.26974895  0.19556100
   0.15750135  0.43308891  0.24235259
   0.14771118  0.14368961  0.08026758
   0.98659378  0.10827146  0.13654604
   0.22900920  0.31510201  0.12515059
   0.06736673  0.28601532  0.16903306
   0.82307325  0.45482589  0.21000936
   0.48473965  0.44458351  0.25143440
   0.39676981  0.27645651  0.20579093
   0.65753990  0.43227623  0.25414901
   0.64469482  0.14658713  0.09385127
   0.48296392  0.11344233  0.15086074
   0.72575813  0.31827981  0.13447328
   0.56465861  0.29047074  0.17972744
   0.31857581  0.46058875  0.20340923
   0.73324717  0.94266191  0.03976302
   0.64933541  0.78294020  0.11048872
   0.90370659  0.93469217  0.03214711
   0.90709109  0.63809590  0.18761800
   0.73616081  0.61674780  0.15954419
   0.98312746  0.81172923  0.14171741
   0.81949436  0.78400724  0.10653287
   0.56796849  0.96089696  0.08474861
   0.23703933  0.94475158  0.02684625
   0.14839187  0.77172724  0.06842379
   0.40775644  0.93536449  0.03667655
   0.37765442  0.65954270  0.20854193
   0.23505140  0.60918588  0.12812036
   0.46345117  0.83127046  0.16533488
   0.31060577  0.79354763  0.10822383
   0.06976972  0.95729265  0.06509234
   0.57847637  0.78844277  0.24189728
   0.66687285  0.60529729  0.30163161
   0.48199572  0.61395046  0.29812193
slab_Cel1-OPT                           
           1
    13.745764    0.000000    0.000000
     0.000000   11.262153    0.000000
     0.000000    0.000000   15.000000
   C    N    Pd
    24    32     3
Direct configuration=     6
   0.07045106  0.38820392  0.22216175
   0.98164282  0.21858870  0.16789981
   0.22860003  0.39655829  0.18886291
   0.82470949  0.57591396  0.18513265
   0.14958814  0.24669315  0.12285602
   0.90765110  0.38423316  0.21793347
   0.56873735  0.39123540  0.23101282
   0.47775557  0.22367305  0.17999536
   0.73062515  0.39704073  0.19863126
   0.30966584  0.58091717  0.17927833
   0.64658015  0.25013476  0.13352021
   0.40206753  0.39243376  0.22080554
   0.81819163  0.88994669  0.05652031
   0.73358348  0.72604983  0.12483404
   0.97931024  0.89590010  0.07987122
   0.06863963  0.07711794  0.09412827
   0.90542749  0.74272555  0.14743100
   0.65513866  0.89399005  0.07651400
   0.31799645  0.89479037  0.05371966
   0.22698952  0.72161746  0.10067643
   0.47492778  0.90463690  0.09413879
   0.56567193  0.08085528  0.10994630
   0.38461467  0.76076906  0.16252449
   0.15490576  0.88972440  0.05262885
   0.98788049  0.43867675  0.24699831
   0.90005787  0.26955051  0.19555014
   0.15766592  0.43313574  0.24234886
   0.14774245  0.14362400  0.08019305
   0.98663697  0.10815660  0.13649519
   0.22910490  0.31518675  0.12512781
   0.06746912  0.28602570  0.16902319
   0.82303836  0.45484380  0.20994741
   0.48468901  0.44466108  0.25168777
   0.39642947  0.27594348  0.20558023
   0.65768428  0.43174723  0.25436516
   0.64469907  0.14622236  0.09365934
   0.48298596  0.11307929  0.15074950
   0.72591938  0.31817746  0.13426116
   0.56463594  0.29012952  0.17942697
   0.31834249  0.46052657  0.20336469
   0.73325935  0.94305760  0.03976168
   0.64916321  0.78263857  0.10999908
   0.90380081  0.93480852  0.03217255
   0.90708069  0.63779183  0.18778060
   0.73608867  0.61677506  0.15977061
   0.98331764  0.81167406  0.14165853
   0.81951868  0.78400078  0.10667580
   0.56801399  0.96107973  0.08450793
   0.23693824  0.94503227  0.02683548
   0.14823217  0.77182986  0.06832945
   0.40761260  0.93558988  0.03636745
   0.37749892  0.65953489  0.20876844
   0.23461100  0.60893900  0.12779812
   0.46329014  0.83161869  0.16539563
   0.31039796  0.79362237  0.10787273
   0.06978402  0.95745697  0.06504894
   0.57890959  0.78970132  0.24302811
   0.66827575  0.60597148  0.30233946
   0.48291432  0.61452999  0.29926481
slab_Cel1-OPT                           
           1
    13.726052    0.000000    0.000000
     0.000000   11.247103    0.000000
     0.000000    0.000000   15.000000
   C    N    Pd
    24    32     3
Direct configuration=     7
   0.07014431  0.38816881  0.22212121
   0.98169141  0.21878436  0.16796631
   0.22843522  0.39640855  0.18882339
   0.82459032  0.57600386  0.18554051
   0.14937771  0.24667548  0.12290914
   0.90790828  0.38407429  0.21790570
   0.56892554  0.39070597  0.23091810
   0.47780315  0.22342717  0.17983615
   0.73041980  0.39631999  0.19844485
   0.30922022  0.58097079  0.17907231
   0.64647727  0.25013943  0.13347071
   0.40204323  0.39201802  0.22070521
   0.81848050  0.88986457  0.05662989
   0.73359521  0.72603219  0.12491006
   0.97912352  0.89572636  0.07983244
   0.06854134  0.07713315  0.09411435
   0.90540388  0.74297073  0.14736483
   0.65533532  0.89406903  0.07616067
   0.31788438  0.89490165  0.05360778
   0.22676993  0.72172904  0.10049223
   0.47457208  0.90448766  0.09406410
   0.56550786  0.08106206  0.10992405
   0.38417695  0.76101616  0.16219613
   0.15490021  0.88957096  0.05264218
   0.98795199  0.43874284  0.24697703
   0.90004514  0.26929168  0.19553598
   0.15788059  0.43319683  0.24234401
   0.14778323  0.14353842  0.08009593
   0.98669331  0.10800678  0.13642893
   0.22922973  0.31529728  0.12509812
   0.06760268  0.28603923  0.16901032
   0.82299285  0.45486717  0.20986669
   0.48462295  0.44476225  0.25201792
   0.39598553  0.27527434  0.20530569
   0.65787261  0.43105724  0.25464680
   0.64470461  0.14574660  0.09340927
   0.48301471  0.11260577  0.15060456
   0.72612971  0.31804397  0.13398478
   0.56460638  0.28968446  0.17903548
   0.31803816  0.46044545  0.20330666
   0.73327523  0.94357371  0.03975994
   0.64893859  0.78224514  0.10936109
   0.90392370  0.93496026  0.03220571
   0.90706712  0.63739523  0.18799246
   0.73599457  0.61681062  0.16006561
   0.98356571  0.81160209  0.14158181
   0.81955040  0.78399236  0.10686205
   0.56807334  0.96131810  0.08419434
   0.23680638  0.94539838  0.02682144
   0.14802385  0.77196370  0.06820652
   0.40742496  0.93588386  0.03596470
   0.37729609  0.65952471  0.20906357
   0.23403653  0.60861698  0.12737825
   0.46308010  0.83207288  0.16547479
   0.31012687  0.79371986  0.10741525
   0.06980269  0.95767129  0.06499239
   0.57947468  0.79134287  0.24450156
   0.67010571  0.60685085  0.30326178
   0.48411257  0.61528588  0.30075395
slab_Cel1-OPT                           
           1
    13.723848    0.000000    0.000000
     0.000000   11.240910    0.000000
     0.000000    0.000000   15.000000
   C    N    Pd
    24    32     3
Direct configuration=     8
   0.07037300  0.38821291  0.22212394
   0.98179271  0.21861665  0.16792268
   0.22838943  0.39635112  0.18880520
   0.82466052  0.57595392  0.18590740
   0.14945132  0.24669042  0.12286269
   0.90771074  0.38417416  0.21788141
   0.56890439  0.39057029  0.23104111
   0.47772577  0.22303058  0.17965330
   0.73055721  0.39621847  0.19853334
   0.30909812  0.58106769  0.17905406
   0.64661726  0.24990265  0.13321064
   0.40196553  0.39200738  0.22068960
   0.81853819  0.88999269  0.05663299
   0.73352431  0.72616032  0.12485157
   0.97931926  0.89577751  0.07980267
   0.06853337  0.07709585  0.09405588
   0.90552120  0.74276275  0.14750283
   0.65528496  0.89412346  0.07589951
   0.31773955  0.89509593  0.05338109
   0.22652678  0.72169077  0.10025948
   0.47459772  0.90459395  0.09396693
   0.56565067  0.08092424  0.10972085
   0.38411698  0.76099627  0.16228214
   0.15479329  0.88981517  0.05258283
   0.98795438  0.43890822  0.24705692
   0.89993887  0.26912794  0.19558384
   0.15776862  0.43322467  0.24242234
   0.14786654  0.14353458  0.07999725
   0.98657955  0.10795213  0.13646521
   0.22925431  0.31523433  0.12496590
   0.06754516  0.28605918  0.16903144
   0.82290824  0.45453507  0.20983202
   0.48465525  0.44468679  0.25217044
   0.39568730  0.27496373  0.20516503
   0.65801429  0.43056590  0.25483910
   0.64476336  0.14556042  0.09321843
   0.48278047  0.11224516  0.15059596
   0.72617051  0.31774124  0.13360130
   0.56445488  0.28977044  0.17891809
   0.31803222  0.46034432  0.20325347
   0.73350574  0.94386423  0.03976481
   0.64871514  0.78194556  0.10894173
   0.90393425  0.93509411  0.03213119
   0.90711618  0.63745633  0.18805859
   0.73569315  0.61682642  0.16031489
   0.98373334  0.81147695  0.14160057
   0.81937654  0.78397439  0.10701098
   0.56788575  0.96114586  0.08394334
   0.23658956  0.94575062  0.02673310
   0.14767480  0.77195709  0.06804518
   0.40740276  0.93605420  0.03567320
   0.37710810  0.65955886  0.20913967
   0.23367866  0.60835392  0.12712409
   0.46293201  0.83228729  0.16560385
   0.31008200  0.79356577  0.10721974
   0.06975692  0.95760060  0.06491729
   0.57987121  0.79241293  0.24563069
   0.67121227  0.60759088  0.30388726
   0.48512627  0.61589410  0.30169661
slab_Cel1-OPT                           
           1
    13.720220    0.000000    0.000000
     0.000000   11.230717    0.000000
     0.000000    0.000000   15.000000
   C    N    Pd
    24    32     3
Direct configuration=     9
   0.07074951  0.38828554  0.22212843
   0.98195948  0.21834044  0.16785086
   0.22831404  0.39625653  0.18877526
   0.82477610  0.57587168  0.18651133
   0.14957252  0.24671502  0.12278623
   0.90738552  0.38433866  0.21784142
   0.56886959  0.39034682  0.23124359
   0.47759839  0.22237740  0.17935232
   0.73078342  0.39605127  0.19867901
   0.30889709  0.58122728  0.17902403
   0.64684772  0.24951268  0.13278255
   0.40183759  0.39198986  0.22066391
   0.81863318  0.89020371  0.05663808
   0.73340760  0.72637135  0.12475531
   0.97964152  0.89586176  0.07975366
   0.06852026  0.07703442  0.09395965
   0.90571434  0.74242020  0.14772999
   0.65520206  0.89421311  0.07546962
   0.31750111  0.89541589  0.05300795
   0.22612649  0.72162774  0.09987635
   0.47463993  0.90476901  0.09380698
   0.56588580  0.08069726  0.10938637
   0.38401825  0.76096350  0.16242372
   0.15461725  0.89021737  0.05248514
   0.98795833  0.43918060  0.24718843
   0.89976391  0.26885826  0.19566262
   0.15758428  0.43327054  0.24255127
   0.14800369  0.14352826  0.07983482
   0.98639227  0.10786210  0.13652493
   0.22929479  0.31513065  0.12474827
   0.06745046  0.28609202  0.16906621
   0.82276893  0.45398810  0.20977494
   0.48470843  0.44456251  0.25242151
   0.39519630  0.27445216  0.20493349
   0.65824755  0.42975668  0.25515565
   0.64486008  0.14525378  0.09290430
   0.48239483  0.11165125  0.15058180
   0.72623770  0.31724266  0.13297006
   0.56420545  0.28991206  0.17872487
   0.31802246  0.46017777  0.20316591
   0.73388524  0.94434270  0.03977282
   0.64834727  0.78145217  0.10825143
   0.90395161  0.93531457  0.03200852
   0.90719694  0.63755696  0.18816745
   0.73519691  0.61685242  0.16072521
   0.98400931  0.81127084  0.14163144
   0.81909030  0.78394478  0.10725612
   0.56757690  0.96086218  0.08353018
   0.23623259  0.94633076  0.02658769
   0.14710015  0.77194621  0.06777960
   0.40736621  0.93633474  0.03519336
   0.37679860  0.65961511  0.20926493
   0.23308948  0.60792066  0.12670572
   0.46268820  0.83264041  0.16581629
   0.31000813  0.79331200  0.10689792
   0.06968157  0.95748417  0.06479367
   0.58052404  0.79417530  0.24748931
   0.67303403  0.60880970  0.30491685
   0.48679516  0.61689584  0.30324829
slab_Cel1-OPT                           
           1
    13.717406    0.000000    0.000000
     0.000000   11.224813    0.000000
     0.000000    0.000000   15.000000
   C    N    Pd
    24    32     3
Direct configuration=    10
   0.07049742  0.38838576  0.22223285
   0.98172799  0.21838241  0.16796520
   0.22838468  0.39628018  0.18877757
   0.82450202  0.57592207  0.18678932
   0.14965595  0.24667422  0.12266340
   0.90736513  0.38423345  0.21788302
   0.56880377  0.39037446  0.23146760
   0.47722720  0.22234896  0.17931976
   0.73080497  0.39571578  0.19856346
   0.30878817  0.58130689  0.17902019
   0.64695985  0.24949755  0.13255520
   0.40186627  0.39188221  0.22069698
   0.81856859  0.89036988  0.05665384
   0.73307716  0.72631259  0.12468098
   0.97971960  0.89581645  0.07974224
   0.06852580  0.07709007  0.09389082
   0.90582079  0.74239669  0.14781335
   0.65508619  0.89394176  0.07522272
   0.31745066  0.89557554  0.05274685
   0.22585869  0.72140911  0.09958377
   0.47452416  0.90483817  0.09365983
   0.56580920  0.08023738  0.10914236
   0.38413195  0.76094741  0.16267921
   0.15439537  0.89045430  0.05232364
   0.98790386  0.43919794  0.24720080
   0.89978938  0.26878599  0.19573416
   0.15775623  0.43330016  0.24261571
   0.14796449  0.14347935  0.07974191
   0.98640739  0.10756383  0.13645804
   0.22927298  0.31516300  0.12464599
   0.06752485  0.28602922  0.16899963
   0.82276891  0.45381883  0.20981481
   0.48470033  0.44458386  0.25255746
   0.39521227  0.27464078  0.20489088
   0.65841069  0.42944776  0.25530752
   0.64487720  0.14503276  0.09264260
   0.48239624  0.11113975  0.15042673
   0.72628085  0.31736478  0.13285332
   0.56410522  0.28998063  0.17860529
   0.31812206  0.46025487  0.20310971
   0.73390326  0.94444921  0.03986764
   0.64813422  0.78149439  0.10783987
   0.90416462  0.93531749  0.03197387
   0.90725542  0.63747257  0.18832047
   0.73507952  0.61683265  0.16113277
   0.98405605  0.81120915  0.14162232
   0.81910949  0.78409257  0.10736155
   0.56754766  0.96057918  0.08323261
   0.23606444  0.94663234  0.02645540
   0.14683047  0.77196692  0.06752846
   0.40744423  0.93626603  0.03511169
   0.37672622  0.65956164  0.20931700
   0.23313508  0.60773510  0.12670335
   0.46275529  0.83273721  0.16601311
   0.31006107  0.79310846  0.10675948
   0.06962470  0.95750545  0.06470429
   0.58077626  0.79519171  0.24841740
   0.67382108  0.60948781  0.30536431
   0.48762725  0.61727269  0.30377332
slab_Cel1-OPT                           
           1
    13.714920    0.000000    0.000000
     0.000000   11.219597    0.000000
     0.000000    0.000000   15.000000
   C    N    Pd
    24    32     3
Direct configuration=    11
   0.07027466  0.38847435  0.22232510
   0.98152343  0.21841951  0.16806622
   0.22844709  0.39630109  0.18877961
   0.82425983  0.57596663  0.18703493
   0.14972967  0.24663815  0.12255488
   0.90734710  0.38414045  0.21791977
   0.56874560  0.39039889  0.23166551
   0.47689918  0.22232381  0.17929100
   0.73082402  0.39541922  0.19846137
   0.30869192  0.58137727  0.17901680
   0.64705894  0.24948417  0.13235433
   0.40189161  0.39178706  0.22072620
   0.81851150  0.89051677  0.05666777
   0.73278516  0.72626066  0.12461531
   0.97978860  0.89577640  0.07973216
   0.06853070  0.07713927  0.09383001
   0.90591486  0.74237590  0.14788700
   0.65498379  0.89370191  0.07500459
   0.31740608  0.89571667  0.05251617
   0.22562204  0.72121586  0.09932527
   0.47442185  0.90489930  0.09352982
   0.56574152  0.07983087  0.10892678
   0.38423242  0.76093319  0.16290494
   0.15419930  0.89066373  0.05218096
   0.98785573  0.43921327  0.24721172
   0.89981189  0.26872210  0.19579737
   0.15790819  0.43332634  0.24267264
   0.14792984  0.14343611  0.07965983
   0.98642075  0.10730017  0.13639895
   0.22925371  0.31519161  0.12455563
   0.06759059  0.28597371  0.16894081
   0.82276890  0.45366921  0.20985004
   0.48469317  0.44460273  0.25267757
   0.39522638  0.27480751  0.20485324
   0.65855485  0.42917469  0.25544171
   0.64489233  0.14483738  0.09241138
   0.48239750  0.11068761  0.15028972
   0.72631897  0.31747273  0.13275017
   0.56401664  0.29004125  0.17849964
   0.31821007  0.46032302  0.20306005
   0.73391918  0.94454335  0.03995141
   0.64794596  0.78153170  0.10747626
   0.90435286  0.93532006  0.03194325
   0.90730709  0.63739798  0.18845567
   0.73497579  0.61681517  0.16149285
   0.98409735  0.81115462  0.14161425
   0.81912646  0.78422320  0.10745470
   0.56752182  0.96032902  0.08296971
   0.23591585  0.94689894  0.02633853
   0.14659216  0.77198523  0.06730658
   0.40751318  0.93620530  0.03503953
   0.37666227  0.65951438  0.20936301
   0.23317538  0.60757108  0.12670126
   0.46281458  0.83282277  0.16618700
   0.31010785  0.79292854  0.10663717
   0.06957445  0.95752425  0.06462533
   0.58099914  0.79609019  0.24923736
   0.67451657  0.61008724  0.30575964
   0.48836256  0.61760582  0.30423717
slab_Cel1-OPT                           
           1
    13.707931    0.000000    0.000000
     0.000000   11.211077    0.000000
     0.000000    0.000000   15.000000
   C    N    Pd
    24    32     3
Direct configuration=    12
   0.07034966  0.38849105  0.22237447
   0.98152707  0.21809666  0.16803481
   0.22854975  0.39634684  0.18875804
   0.82407746  0.57611077  0.18734419
   0.14972683  0.24664394  0.12243523
   0.90734457  0.38407542  0.21804302
   0.56889258  0.39033446  0.23182693
   0.47685528  0.22200724  0.17909311
   0.73070540  0.39521511  0.19847497
   0.30877682  0.58142693  0.17910982
   0.64683572  0.24936547  0.13213283
   0.40200218  0.39212157  0.22086397
   0.81861065  0.89065302  0.05674046
   0.73254267  0.72609169  0.12458121
   0.97968591  0.89562300  0.07974243
   0.06846565  0.07723407  0.09374782
   0.90582847  0.74241655  0.14794049
   0.65488847  0.89343344  0.07465954
   0.31730293  0.89558971  0.05238807
   0.22555769  0.72102615  0.09904934
   0.47431107  0.90460149  0.09363205
   0.56562769  0.07953764  0.10867109
   0.38425886  0.76105942  0.16304981
   0.15404555  0.89069190  0.05191313
   0.98763097  0.43919436  0.24725590
   0.89972191  0.26870599  0.19596637
   0.15796249  0.43324972  0.24273260
   0.14787794  0.14337330  0.07950769
   0.98639806  0.10723347  0.13643668
   0.22928542  0.31535707  0.12447783
   0.06750767  0.28595002  0.16893355
   0.82280239  0.45363079  0.20993558
   0.48463005  0.44484876  0.25291782
   0.39525559  0.27507585  0.20488718
   0.65868227  0.42897071  0.25554813
   0.64482240  0.14476611  0.09216193
   0.48242354  0.11057582  0.15019179
   0.72635317  0.31766025  0.13260834
   0.56395070  0.29001875  0.17835984
   0.31834057  0.46038486  0.20301661
   0.73372994  0.94454466  0.04007280
   0.64777429  0.78135463  0.10713087
   0.90448354  0.93518820  0.03190895
   0.90718847  0.63716868  0.18865420
   0.73474885  0.61706375  0.16191750
   0.98416361  0.81119204  0.14161709
   0.81904209  0.78431893  0.10756628
   0.56756757  0.95995418  0.08256066
   0.23592432  0.94707001  0.02618082
   0.14649754  0.77197395  0.06695543
   0.40748117  0.93602809  0.03494880
   0.37679340  0.65934379  0.20954248
   0.23329046  0.60754752  0.12672929
   0.46308588  0.83296230  0.16636370
   0.31017038  0.79283226  0.10644780
   0.06953124  0.95765253  0.06449996
   0.58112041  0.79724851  0.25005566
   0.67515024  0.61070989  0.30609720
   0.48900340  0.61774610  0.30438349
slab_Cel1-OPT                           
           1
    13.701018    0.000000    0.000000
     0.000000   11.202650    0.000000
     0.000000    0.000000   15.000000
   C    N    Pd
    24    32     3
Direct configuration=    13
   0.07042388  0.38850759  0.22242331
   0.98153067  0.21777708  0.16800375