       N       E                     dE             d eps       ncg     rms          rms(c)
DAV:   1     0.263278877912E+04    0.26328E+04   -0.10123E+05  1584   0.104E+03
DAV:   2     0.205650088952E+02   -0.26122E+04   -0.24889E+04  1992   0.299E+02
DAV:   3    -0.504598368226E+03   -0.52516E+03   -0.51316E+03  1688   0.147E+02
DAV:   4    -0.528752938243E+03   -0.24155E+02   -0.22162E+02  1680   0.389E+01
DAV:   5    -0.530104490249E+03   -0.13516E+01   -0.13108E+01  2088   0.824E+00    0.777E+01
DAV:   6    -0.765926906365E+03   -0.23582E+03   -0.92655E+02  2032   0.175E+02    0.229E+02
DAV:   7    -0.672304303039E+03    0.93623E+02   -0.28260E+02  1560   0.461E+01    0.120E+02
DAV:   8    -0.517179310879E+03    0.15512E+03   -0.17491E+02  2112   0.823E+01    0.407E+01
DAV:   9    -0.493703753476E+03    0.23476E+02   -0.77651E+01  1920   0.618E+01    0.249E+01
DAV:  10    -0.487429973625E+03    0.62738E+01   -0.50146E+01  2056   0.365E+01    0.133E+01
DAV:  11    -0.486622322352E+03    0.80765E+00   -0.75436E+00  1936   0.106E+01    0.211E+01
DAV:  12    -0.488453092574E+03   -0.18308E+01   -0.32676E+01  1992   0.171E+01    0.156E+01
DAV:  13    -0.487080173803E+03    0.13729E+01   -0.92805E+00  1936   0.166E+01    0.116E+01
DAV:  14    -0.486935559117E+03    0.14461E+00   -0.13210E+01  1976   0.122E+01    0.116E+01
DAV:  15    -0.485906956586E+03    0.10286E+01   -0.34825E+00  2040   0.810E+00    0.585E+00
DAV:  16    -0.485653939920E+03    0.25302E+00   -0.44559E-01  2056   0.294E+00    0.467E+00
DAV:  17    -0.485482231427E+03    0.17171E+00   -0.14468E-01  2112   0.185E+00    0.240E+00
DAV:  18    -0.485455450896E+03    0.26781E-01   -0.69491E-02  1928   0.868E-01    0.154E+00
DAV:  19    -0.485466029269E+03   -0.10578E-01   -0.54994E-02  1856   0.119E+00    0.221E+00
DAV:  20    -0.485461307289E+03    0.47220E-02   -0.13150E-01  1968   0.126E+00    0.153E+00
DAV:  21    -0.485450763683E+03    0.10544E-01   -0.55727E-02  1976   0.664E-01    0.787E-01
DAV:  22    -0.485452016862E+03   -0.12532E-02   -0.13782E-02  1872   0.315E-01    0.525E-01
DAV:  23    -0.485454845695E+03   -0.28288E-02   -0.99026E-03  1936   0.274E-01    0.580E-01
DAV:  24    -0.485457362267E+03   -0.25166E-02   -0.54477E-03  1848   0.227E-01    0.326E-01
DAV:  25    -0.485460956467E+03   -0.35942E-02   -0.43356E-03  1880   0.204E-01    0.333E-01
DAV:  26    -0.485462892412E+03   -0.19359E-02   -0.17548E-03  1888   0.115E-01    0.816E-02
DAV:  27    -0.485465660275E+03   -0.27679E-02   -0.45472E-04  1744   0.543E-02    0.546E-02
DAV:  28    -0.485466969728E+03   -0.13095E-02   -0.13595E-04  1488   0.248E-02    0.567E-02
DAV:  29    -0.485468021207E+03   -0.10515E-02   -0.39672E-04  1616   0.536E-02    0.148E-01
DAV:  30    -0.485468106866E+03   -0.85658E-04   -0.58370E-05  1328   0.206E-02    0.104E-01
DAV:  31    -0.485468267823E+03   -0.16096E-03   -0.28353E-05   992   0.181E-02    0.809E-02
DAV:  32    -0.485468697474E+03   -0.42965E-03   -0.33949E-04  1648   0.478E-02    0.786E-02
DAV:  33    -0.485468789217E+03   -0.91743E-04   -0.39637E-05  1192   0.205E-02    0.416E-02
DAV:  34    -0.485468898450E+03   -0.10923E-03   -0.20776E-05  1032   0.150E-02    0.179E-02
DAV:  35    -0.485468995160E+03   -0.96711E-04   -0.14217E-05  1008   0.105E-02    0.713E-03
DAV:  36    -0.485469035861E+03   -0.40700E-04   -0.34370E-06   976   0.724E-03    0.817E-03
DAV:  37    -0.485469073443E+03   -0.37582E-04   -0.24310E-06   944   0.381E-03    0.908E-03
DAV:  38    -0.485469109015E+03   -0.35573E-04   -0.29941E-06   976   0.506E-03    0.308E-03
DAV:  39    -0.485469118322E+03   -0.93065E-05   -0.23835E-06   976   0.458E-03
   1 F= -.48546912E+03 E0= -.48542352E+03  d E =-.485469E+03
       N       E                     dE             d eps       ncg     rms          rms(c)
DAV:   1    -0.485646518888E+03   -0.17741E+00   -0.47252E+00  1440   0.559E+00    0.356E+00
DAV:   2    -0.487608020437E+03   -0.19615E+01   -0.81934E+00  2080   0.912E+00    0.151E+01
DAV:   3    -0.485783931311E+03    0.18241E+01   -0.68314E+00  1952   0.106E+01    0.394E+00
DAV:   4    -0.485607141997E+03    0.17679E+00   -0.41768E-01  2032   0.192E+00    0.179E+00
DAV:   5    -0.485613569632E+03   -0.64276E-02   -0.13657E-01  2008   0.137E+00    0.176E+00
DAV:   6    -0.485602931926E+03    0.10638E-01   -0.87188E-02  2008   0.100E+00    0.132E+00
DAV:   7    -0.485608613171E+03   -0.56812E-02   -0.12304E-01  1992   0.900E-01    0.174E+00
DAV:   8    -0.485598222930E+03    0.10390E-01   -0.56432E-02  1976   0.661E-01    0.234E-01
DAV:   9    -0.485598837345E+03   -0.61442E-03   -0.47917E-03  1736   0.179E-01    0.251E-01
DAV:  10    -0.485598368908E+03    0.46844E-03   -0.10770E-03  1664   0.821E-02    0.840E-02
DAV:  11    -0.485598481848E+03   -0.11294E-03   -0.26888E-04  1304   0.494E-02    0.681E-02
DAV:  12    -0.485598463404E+03    0.18445E-04   -0.78145E-05  1144   0.230E-02    0.264E-02
DAV:  13    -0.485598506356E+03   -0.42952E-04   -0.17763E-05   968   0.144E-02    0.256E-02
DAV:  14    -0.485598513154E+03   -0.67985E-05   -0.67462E-06   968   0.852E-03
   2 F= -.48559851E+03 E0= -.48555784E+03  d E =-.129395E+00
       N       E                     dE             d eps       ncg     rms          rms(c)
DAV:   1    -0.485770617098E+03   -0.17211E+00   -0.92052E+00  1424   0.780E+00    0.511E+00
DAV:   2    -0.489323416779E+03   -0.35528E+01   -0.15667E+01  2080   0.135E+01    0.196E+01
DAV:   3    -0.486142141485E+03    0.31813E+01   -0.12667E+01  1952   0.178E+01    0.562E+00
DAV:   4    -0.485805756169E+03    0.33639E+00   -0.14935E+00  2064   0.450E+00    0.442E+00
DAV:   5    -0.485706181784E+03    0.99574E-01   -0.43886E-01  2072   0.304E+00    0.199E+00
DAV:   6    -0.485695235788E+03    0.10946E-01   -0.18609E-01  2000   0.145E+00    0.294E+00
DAV:   7    -0.485688567887E+03    0.66679E-02   -0.24213E-01  1992   0.130E+00    0.194E+00
DAV:   8    -0.485676908469E+03    0.11659E-01   -0.92598E-02  1920   0.803E-01    0.514E-01
DAV:   9    -0.485675848730E+03    0.10597E-02   -0.65813E-03  1816   0.334E-01    0.338E-01
DAV:  10    -0.485675186706E+03    0.66202E-03   -0.15945E-03  1936   0.150E-01    0.194E-01
DAV:  11    -0.485675123387E+03    0.63319E-04   -0.88288E-04  1944   0.100E-01    0.725E-02
DAV:  12    -0.485675162226E+03   -0.38839E-04   -0.10613E-04  1360   0.316E-02    0.376E-02
DAV:  13    -0.485675185896E+03   -0.23670E-04   -0.29553E-05  1016   0.193E-02    0.199E-02
DAV:  14    -0.485675200850E+03   -0.14954E-04   -0.11867E-05   976   0.132E-02    0.147E-02
DAV:  15    -0.485675214575E+03   -0.13725E-04   -0.59996E-06   968   0.822E-03    0.554E-03
DAV:  16    -0.485675226021E+03   -0.11446E-04   -0.28212E-06   952   0.548E-03    0.259E-03
DAV:  17    -0.485675234612E+03   -0.85910E-05   -0.18225E-06   952   0.398E-03
   3 F= -.48567523E+03 E0= -.48564133E+03  d E =-.206116E+00
       N       E                     dE             d eps       ncg     rms          rms(c)
DAV:   1    -0.485776937742E+03   -0.10171E+00   -0.84366E+00  1408   0.666E+00    0.183E+00
DAV:   2    -0.486278993122E+03   -0.50206E+00   -0.21873E+00  2120   0.462E+00    0.655E+00
DAV:   3    -0.485772277688E+03    0.50672E+00   -0.65105E-01  1960   0.492E+00    0.123E+00
DAV:   4    -0.485781309548E+03   -0.90319E-02   -0.14240E-01  2016   0.125E+00    0.186E+00
DAV:   5    -0.485778100853E+03    0.32087E-02   -0.14351E-01  2008   0.118E+00    0.152E+00
DAV:   6    -0.485773783818E+03    0.43170E-02   -0.58421E-02  1928   0.626E-01    0.801E-01
DAV:   7    -0.485775236216E+03   -0.14524E-02   -0.28791E-02  2008   0.664E-01    0.975E-01
DAV:   8    -0.485771208566E+03    0.40277E-02   -0.15031E-02  1960   0.479E-01    0.189E-01
DAV:   9    -0.485771261130E+03   -0.52564E-04   -0.16526E-03  1848   0.115E-01    0.135E-01
DAV:  10    -0.485771165285E+03    0.95845E-04   -0.22292E-04  1312   0.519E-02    0.392E-02
DAV:  11    -0.485771198581E+03   -0.33296E-04   -0.51129E-05  1080   0.245E-02    0.327E-02
DAV:  12    -0.485771204917E+03   -0.63360E-05   -0.16581E-05   944   0.154E-02
   4 F= -.48577120E+03 E0= -.48573840E+03  d E =-.959703E-01
       N       E                     dE             d eps       ncg     rms          rms(c)
DAV:   1    -0.485836704391E+03   -0.65506E-01   -0.18495E+01  1408   0.986E+00    0.288E+00
DAV:   2    -0.486912334593E+03   -0.10756E+01   -0.51514E+00  2160   0.760E+00    0.951E+00
DAV:   3    -0.485860981455E+03    0.10514E+01   -0.15555E+00  1968   0.847E+00    0.253E+00
DAV:   4    -0.485837521539E+03    0.23460E-01   -0.33284E-01  2040   0.184E+00    0.253E+00
DAV:   5    -0.485837480849E+03    0.40690E-04   -0.25683E-01  1984   0.156E+00    0.216E+00
DAV:   6    -0.485830260550E+03    0.72203E-02   -0.94740E-02  2040   0.102E+00    0.118E+00
DAV:   7    -0.485834528141E+03   -0.42676E-02   -0.77095E-02  1976   0.116E+00    0.167E+00
DAV:   8    -0.485823106057E+03    0.11422E-01   -0.54458E-02  2040   0.959E-01    0.387E-01
DAV:   9    -0.485823267431E+03   -0.16137E-03   -0.81934E-03  1920   0.225E-01    0.293E-01
DAV:  10    -0.485822863163E+03    0.40427E-03   -0.14997E-03  1824   0.999E-02    0.982E-02
DAV:  11    -0.485822925248E+03   -0.62085E-04   -0.28501E-04  1696   0.519E-02    0.237E-02
DAV:  12    -0.485822971533E+03   -0.46285E-04   -0.32719E-05  1208   0.210E-02    0.229E-02
DAV:  13    -0.485822999677E+03   -0.28144E-04   -0.68190E-06   960   0.123E-02    0.138E-02
DAV:  14    -0.485823016553E+03   -0.16877E-04   -0.41265E-06   976   0.676E-03    0.536E-03
DAV:  15    -0.485823031087E+03   -0.14533E-04   -0.20120E-06   960   0.425E-03    0.319E-03
DAV:  16    -0.485823042550E+03   -0.11463E-04   -0.14781E-06   968   0.323E-03    0.209E-03
DAV:  17    -0.485823050317E+03   -0.77665E-05   -0.99026E-07   984   0.262E-03
   5 F= -.48582305E+03 E0= -.48579153E+03  d E =-.147816E+00
       N       E                     dE             d eps       ncg     rms          rms(c)
DAV:   1    -0.485880500406E+03   -0.57458E-01   -0.88919E+00  1408   0.662E+00    0.696E-01
DAV:   2    -0.485906002755E+03   -0.25502E-01   -0.20028E-01  1944   0.166E+00    0.204E+00
DAV:   3    -0.485893031028E+03    0.12972E-01   -0.12843E-01  1992   0.151E+00    0.114E+00
DAV:   4    -0.485897333511E+03   -0.43025E-02   -0.46242E-02  2016   0.787E-01    0.157E+00
DAV:   5    -0.485888681388E+03    0.86521E-02   -0.34036E-02  1984   0.575E-01    0.494E-01
DAV:   6    -0.485895187002E+03   -0.65056E-02   -0.24745E-02  1992   0.660E-01    0.115E+00
DAV:   7    -0.485888495537E+03    0.66915E-02   -0.21582E-02  1992   0.630E-01    0.209E-01
DAV:   8    -0.485888732801E+03   -0.23726E-03   -0.25675E-03  1816   0.133E-01    0.160E-01
DAV:   9    -0.485888615235E+03    0.11757E-03   -0.40991E-04  1344   0.533E-02    0.776E-02
DAV:  10    -0.485888672511E+03   -0.57276E-04   -0.83489E-05  1136   0.281E-02    0.375E-02
DAV:  11    -0.485888703648E+03   -0.31137E-04   -0.19363E-05  1048   0.151E-02    0.177E-02
DAV:  12    -0.485888718217E+03   -0.14569E-04   -0.38423E-06   960   0.874E-03    0.108E-02
DAV:  13    -0.485888725236E+03   -0.70190E-05   -0.17144E-06   960   0.477E-03
   6 F= -.48588873E+03 E0= -.48585945E+03  d E =-.656749E-01
       N       E                     dE             d eps       ncg     rms          rms(c)
DAV:   1    -0.485906002032E+03   -0.17284E-01   -0.17723E+01  1408   0.936E+00    0.101E+00
DAV:   2    -0.485956164224E+03   -0.50162E-01   -0.39634E-01  1944   0.236E+00    0.261E+00
DAV:   3    -0.485930701123E+03    0.25463E-01   -0.20025E-01  2000   0.219E+00    0.148E+00
DAV:   4    -0.485941027609E+03   -0.10326E-01   -0.84342E-02  2048   0.120E+00    0.241E+00
DAV:   5    -0.485923616437E+03    0.17411E-01   -0.75752E-02  1992   0.813E-01    0.719E-01
DAV:   6    -0.485929120306E+03   -0.55039E-02   -0.24893E-02  1960   0.660E-01    0.118E+00
DAV:   7    -0.485922776213E+03    0.63441E-02   -0.28712E-02  1984   0.750E-01    0.364E-01
DAV:   8    -0.485922890179E+03   -0.11397E-03   -0.47346E-03  1960   0.240E-01    0.209E-01
DAV:   9    -0.485922708347E+03    0.18183E-03   -0.76316E-04  1808   0.756E-02    0.951E-02
DAV:  10    -0.485922771201E+03   -0.62853E-04   -0.11809E-04  1160   0.356E-02    0.523E-02
DAV:  11    -0.485922811289E+03   -0.40089E-04   -0.34144E-05  1112   0.189E-02    0.215E-02
DAV:  12    -0.485922834441E+03   -0.23152E-04   -0.61436E-06   952   0.105E-02    0.129E-02
DAV:  13    -0.485922844910E+03   -0.10469E-04   -0.27863E-06   960   0.585E-03    0.645E-03
DAV:  14    -0.485922852174E+03   -0.72634E-05   -0.14176E-06   944   0.454E-03
   7 F= -.48592285E+03 E0= -.48589644E+03  d E =-.998019E-01
       N       E                     dE             d eps       ncg     rms          rms(c)
DAV:   1    -0.485968813056E+03   -0.45968E-01   -0.50662E+00  1464   0.519E+00    0.590E-01
DAV:   2    -0.486021576483E+03   -0.52763E-01   -0.18788E-01  1920   0.159E+00    0.432E+00
DAV:   3    -0.485976364279E+03    0.45212E-01   -0.25547E-01  1960   0.144E+00    0.929E-01
DAV:   4    -0.485979105374E+03   -0.27411E-02   -0.45750E-02  1952   0.907E-01    0.101E+00
DAV:   5    -0.485972844786E+03    0.62606E-02   -0.18321E-02  1944   0.734E-01    0.339E-01
DAV:   6    -0.485975080875E+03   -0.22361E-02   -0.93267E-03  1976   0.398E-01    0.690E-01
DAV:   7    -0.485972757601E+03    0.23233E-02   -0.82552E-03  1960   0.362E-01    0.158E-01
DAV:   8    -0.485972844595E+03   -0.86994E-04   -0.62183E-04  1792   0.946E-02    0.663E-02
DAV:   9    -0.485972852908E+03   -0.83130E-05   -0.64632E-05  1208   0.260E-02
   8 F= -.48597285E+03 E0= -.48594771E+03  d E =-.500007E-01
       N       E                     dE             d eps       ncg     rms          rms(c)
DAV:   1    -0.486003257704E+03   -0.30413E-01   -0.18522E+01  1456   0.996E+00    0.108E+00
DAV:   2    -0.486141846896E+03   -0.13859E+00   -0.70712E-01  1912   0.279E+00    0.730E+00
DAV:   3    -0.486037395159E+03    0.10445E+00   -0.10564E+00  2000   0.233E+00    0.152E+00
DAV:   4    -0.486041765632E+03   -0.43705E-02   -0.13165E-01  1984   0.168E+00    0.199E+00
DAV:   5    -0.486021332250E+03    0.20433E-01   -0.57956E-02  1984   0.145E+00    0.739E-01
DAV:   6    -0.486026158543E+03   -0.48263E-02   -0.36396E-02  2088   0.839E-01    0.119E+00
DAV:   7    -0.486019064275E+03    0.70943E-02   -0.31370E-02  2032   0.758E-01    0.260E-01
DAV:   8    -0.486019326036E+03   -0.26176E-03   -0.23398E-03  1928   0.181E-01    0.747E-02
DAV:   9    -0.486019340048E+03   -0.14012E-04   -0.25420E-04  1768   0.506E-02    0.428E-02
DAV:  10    -0.486019358941E+03   -0.18892E-04   -0.42753E-05  1096   0.256E-02    0.129E-02
DAV:  11    -0.486019381805E+03   -0.22865E-04   -0.10356E-05   976   0.119E-02    0.775E-03
DAV:  12    -0.486019396356E+03   -0.14550E-04   -0.31469E-06   968   0.721E-03    0.396E-03
DAV:  13    -0.486019411409E+03   -0.15053E-04   -0.18831E-06   944   0.466E-03    0.424E-03
DAV:  14    -0.486019424138E+03   -0.12729E-04   -0.12938E-06   992   0.399E-03    0.163E-03
DAV:  15    -0.486019432008E+03   -0.78702E-05   -0.99414E-07   976   0.222E-03
   9 F= -.48601943E+03 E0= -.48599671E+03  d E =-.965798E-01
       N       E                     dE             d eps       ncg     rms          rms(c)
DAV:   1    -0.486062627095E+03   -0.43203E-01   -0.42038E+00  1456   0.464E+00    0.557E-01
DAV:   2    -0.486114456339E+03   -0.51829E-01   -0.17762E-01  1936   0.146E+00    0.420E+00
DAV:   3    -0.486069356168E+03    0.45100E-01   -0.23838E-01  2000   0.141E+00    0.980E-01
DAV:   4    -0.486070034228E+03   -0.67806E-03   -0.38291E-02  1984   0.842E-01    0.812E-01
DAV:   5    -0.486065686498E+03    0.43477E-02   -0.11104E-02  1976   0.540E-01    0.261E-01
DAV:   6    -0.486066168360E+03   -0.48186E-03   -0.24709E-03  1944   0.213E-01    0.277E-01
DAV:   7    -0.486065944193E+03    0.22417E-03   -0.20689E-03  1832   0.246E-01    0.197E-01
DAV:   8    -0.486065855502E+03    0.88690E-04   -0.42141E-04  1392   0.109E-01    0.543E-02
DAV:   9    -0.486065861965E+03   -0.64630E-05   -0.50384E-05  1192   0.246E-02
  10 F= -.48606586E+03 E0= -.48604329E+03  d E =-.464300E-01
       N       E                     dE             d eps       ncg     rms          rms(c)
DAV:   1    -0.486111942435E+03   -0.46087E-01   -0.38160E+01  1472   0.141E+01    0.159E+00
DAV:   2    -0.486486272556E+03   -0.37433E+00   -0.29033E+00  1928   0.402E+00    0.128E+01
DAV:   3    -0.486196897466E+03    0.28938E+00   -0.32990E+00  2024   0.339E+00    0.213E+00
DAV:   4    -0.486182393123E+03    0.14504E-01   -0.27099E-01  2008   0.254E+00    0.238E+00
DAV:   5    -0.486146693025E+03    0.35700E-01   -0.74972E-02  1992   0.188E+00    0.912E-01
DAV:   6    -0.486157126587E+03   -0.10434E-01   -0.40935E-02  1984   0.985E-01    0.163E+00
DAV:   7    -0.486144966758E+03    0.12160E-01   -0.43395E-02  2008   0.987E-01    0.408E-01
DAV:   8    -0.486144935592E+03    0.31166E-04   -0.36107E-03  1904   0.219E-01    0.905E-02
DAV:   9    -0.486145013027E+03   -0.77435E-04   -0.44946E-04  1832   0.606E-02    0.490E-02
DAV:  10    -0.486145044278E+03   -0.31250E-04   -0.85058E-05  1384   0.374E-02    0.197E-02
DAV:  11    -0.486145071538E+03   -0.27260E-04   -0.17936E-05  1080   0.157E-02    0.750E-03
DAV:  12    -0.486145091792E+03   -0.20254E-04   -0.36279E-06   928   0.787E-03    0.321E-03
DAV:  13    -0.486145107528E+03   -0.15736E-04   -0.21917E-06   976   0.494E-03    0.449E-03
DAV:  14    -0.486145121284E+03   -0.13756E-04   -0.15210E-06   936   0.401E-03    0.191E-03
DAV:  15    -0.486145130761E+03   -0.94766E-05   -0.12222E-06   952   0.253E-03
  11 F= -.48614513E+03 E0= -.48612281E+03  d E =-.125699E+00
       N       E                     dE             d eps       ncg     rms          rms(c)
DAV:   1    -0.486146550942E+03   -0.14297E-02   -0.49743E+00  1472   0.505E+00    0.575E-01
DAV:   2    -0.486182145178E+03   -0.35594E-01   -0.15437E-01  1920   0.142E+00    0.328E+00
DAV:   3    -0.486153492345E+03    0.28653E-01   -0.17881E-01  2024   0.132E+00    0.968E-01
DAV:   4    -0.486155503855E+03   -0.20115E-02   -0.34046E-02  1984   0.902E-01    0.906E-01
DAV:   5    -0.486150415233E+03    0.50886E-02   -0.11316E-02  1984   0.673E-01    0.258E-01
DAV:   6    -0.486152787523E+03   -0.23723E-02   -0.67078E-03  1992   0.425E-01    0.634E-01
DAV:   7    -0.486150463553E+03    0.23240E-02   -0.53013E-03  1968   0.398E-01    0.105E-01
DAV:   8    -0.486150607319E+03   -0.14377E-03   -0.49371E-04  1560   0.705E-02    0.488E-02
DAV:   9    -0.486150612270E+03   -0.49510E-05   -0.64105E-05  1216   0.234E-02
  12 F= -.48615061E+03 E0= -.48612799E+03  d E =-.131180E+00
       N       E                     dE             d eps       ncg     rms          rms(c)
DAV:   1    -0.486177288323E+03   -0.26681E-01   -0.89264E+00  1472   0.673E+00    0.662E-01
DAV:   2    -0.486207848824E+03   -0.30561E-01   -0.17745E-01  1880   0.177E+00    0.245E+00
DAV:   3    -0.486189871359E+03    0.17977E-01   -0.10867E-01  2016   0.144E+00    0.100E+00
DAV:   4    -0.486191520438E+03   -0.16491E-02   -0.36333E-02  2016   0.838E-01    0.981E-01
DAV:   5    -0.486186738375E+03    0.47821E-02   -0.18331E-02  2008   0.744E-01    0.414E-01
DAV:   6    -0.486190110400E+03   -0.33720E-02   -0.11366E-02  1992   0.626E-01    0.727E-01
DAV:   7    -0.486186621927E+03    0.34885E-02   -0.81674E-03  2008   0.523E-01    0.115E-01
DAV:   8    -0.486186804298E+03   -0.18237E-03   -0.61668E-04  1784   0.792E-02    0.539E-02
DAV:   9    -0.486186803482E+03    0.81575E-06   -0.65860E-05  1240   0.319E-02
  13 F= -.48618680E+03 E0= -.48616412E+03  d E =-.361912E-01
       N       E                     dE             d eps       ncg     rms          rms(c)
DAV:   1    -0.486191801491E+03   -0.49972E-02   -0.56048E+00  1472   0.534E+00    0.528E-01
DAV:   2    -0.486208661655E+03   -0.16860E-01   -0.10691E-01  1888   0.137E+00    0.170E+00
DAV:   3    -0.486199540255E+03    0.91214E-02   -0.56395E-02  2048   0.115E+00    0.796E-01
DAV:   4    -0.486200836703E+03   -0.12964E-02   -0.22836E-02  2048   0.653E-01    0.803E-01
DAV:   5    -0.486197713158E+03    0.31235E-02   -0.12210E-02  2016   0.606E-01    0.335E-01
DAV:   6    -0.486199978849E+03   -0.22657E-02   -0.72736E-03  2000   0.505E-01    0.590E-01
DAV:   7    -0.486197669472E+03    0.23094E-02   -0.53693E-03  2008   0.423E-01    0.887E-02
DAV:   8    -0.486197809432E+03   -0.13996E-03   -0.40821E-04  1624   0.640E-02    0.398E-02
DAV:   9    -0.486197812986E+03   -0.35547E-05   -0.41650E-05  1224   0.254E-02
  14 F= -.48619781E+03 E0= -.48617500E+03  d E =-.472007E-01
       N       E                     dE             d eps       ncg     rms          rms(c)
DAV:   1    -0.486215341618E+03   -0.17532E-01   -0.62396E-01  1408   0.218E+00    0.513E-01
DAV:   2    -0.486255580397E+03   -0.40239E-01   -0.16031E-01  2008   0.143E+00    0.223E+00
DAV:   3    -0.486215342145E+03    0.40238E-01   -0.88512E-02  1984   0.153E+00    0.777E-01
DAV:   4    -0.486215605805E+03   -0.26366E-03   -0.18086E-02  1984   0.574E-01    0.415E-01
DAV:   5    -0.486215077198E+03    0.52861E-03   -0.39380E-03  2016   0.311E-01    0.248E-01
DAV:   6    -0.486214986048E+03    0.91150E-04   -0.18479E-03  2000   0.281E-01    0.186E-01
DAV:   7    -0.486214812523E+03    0.17352E-03   -0.56051E-04  1936   0.150E-01    0.592E-02
DAV:   8    -0.486214807167E+03    0.53568E-05   -0.11702E-04  1304   0.425E-02    0.321E-02
DAV:   9    -0.486214806858E+03    0.30891E-06   -0.32831E-05  1104   0.239E-02
  15 F= -.48621481E+03 E0= -.48619195E+03  d E =-.169939E-01
       N       E                     dE             d eps       ncg     rms          rms(c)
DAV:   1    -0.486230060270E+03   -0.15253E-01   -0.56149E+00  1408   0.653E+00    0.166E+00
DAV:   2    -0.486576478945E+03   -0.34642E+00   -0.16187E+00  2000   0.472E+00    0.549E+00
DAV:   3    -0.486221589479E+03    0.35489E+00   -0.55060E-01  1992   0.500E+00    0.106E+00
DAV:   4    -0.486235515552E+03   -0.13926E-01   -0.10801E-01  2072   0.156E+00    0.156E+00
DAV:   5    -0.486226007742E+03    0.95078E-02   -0.47099E-02  2096   0.115E+00    0.822E-01
DAV:   6    -0.486229531925E+03   -0.35242E-02   -0.25969E-02  2000   0.893E-01    0.999E-01
DAV:   7    -0.486224375952E+03    0.51560E-02   -0.11176E-02  1976   0.690E-01    0.291E-01
DAV:   8    -0.486224099201E+03    0.27675E-03   -0.17990E-03  1952   0.190E-01    0.103E-01
DAV:   9    -0.486224168894E+03   -0.69693E-04   -0.50837E-04  1856   0.808E-02    0.734E-02
DAV:  10    -0.486224163685E+03    0.52086E-05   -0.10379E-04  1168   0.329E-02    0.201E-02
DAV:  11    -0.486224198484E+03   -0.34799E-04   -0.27798E-05  1040   0.203E-02    0.270E-02
DAV:  12    -0.486224204209E+03   -0.57246E-05   -0.10097E-05   976   0.129E-02
  16 F= -.48622420E+03 E0= -.48620122E+03  d E =-.263912E-01
       N       E                     dE             d eps       ncg     rms          rms(c)
DAV:   1    -0.486228711548E+03   -0.45131E-02   -0.69302E-01  1408   0.230E+00    0.523E-01
DAV:   2    -0.486290814065E+03   -0.62103E-01   -0.20804E-01  2040   0.146E+00    0.434E+00
DAV:   3    -0.486235913135E+03    0.54901E-01   -0.35972E-01  1976   0.153E+00    0.134E+00
DAV:   4    -0.486229189501E+03    0.67236E-02   -0.40207E-02  1976   0.865E-01    0.324E-01
DAV:   5    -0.486228330828E+03    0.85867E-03   -0.36133E-03  1904   0.257E-01    0.229E-01
DAV:   6    -0.486228536377E+03   -0.20555E-03   -0.19458E-03  1952   0.256E-01    0.293E-01
DAV:   7    -0.486228086719E+03    0.44966E-03   -0.12061E-03  1656   0.238E-01    0.704E-02
DAV:   8    -0.486228097254E+03   -0.10535E-04   -0.12565E-04  1272   0.518E-02    0.205E-02
DAV:   9    -0.486228104999E+03   -0.77443E-05   -0.25722E-05  1144   0.225E-02
  17 F= -.48622810E+03 E0= -.48620520E+03  d E =-.302920E-01
       N       E                     dE             d eps       ncg     rms          rms(c)
DAV:   1    -0.486240302031E+03   -0.12205E-01   -0.89419E-01  1408   0.255E+00    0.287E-01
DAV:   2    -0.486241865382E+03   -0.15634E-02   -0.21972E-02  1880   0.457E-01    0.371E-01
DAV:   3    -0.486242588988E+03   -0.72361E-03   -0.11610E-02  2032   0.456E-01    0.559E-01
DAV:   4    -0.486242287250E+03    0.30174E-03   -0.92803E-03  1976   0.377E-01    0.590E-01
DAV:   5    -0.486240844254E+03    0.14430E-02   -0.45207E-03  1992   0.360E-01    0.148E-01
DAV:   6    -0.486241012102E+03   -0.16785E-03   -0.93085E-04  1896   0.145E-01    0.152E-01
DAV:   7    -0.486240912641E+03    0.99461E-04   -0.62091E-04  1568   0.164E-01    0.968E-02
DAV:   8    -0.486240883813E+03    0.28827E-04   -0.11671E-04  1232   0.726E-02    0.199E-02
DAV:   9    -0.486240891959E+03   -0.81450E-05   -0.18207E-05  1072   0.177E-02
  18 F= -.48624089E+03 E0= -.48621795E+03  d E =-.127870E-01
       N       E                     dE             d eps       ncg     rms          rms(c)
DAV:   1    -0.486247623663E+03   -0.67398E-02   -0.27177E+00  1408   0.444E+00    0.503E-01
DAV:   2    -0.486252849398E+03   -0.52257E-02   -0.68062E-02  1888   0.820E-01    0.683E-01
DAV:   3    -0.486254393557E+03   -0.15442E-02   -0.35603E-02  2032   0.820E-01    0.970E-01
DAV:   4    -0.486254168503E+03    0.22505E-03   -0.30358E-02  2000   0.660E-01    0.104E+00
DAV:   5    -0.486249379964E+03    0.47885E-02   -0.14111E-02  2024   0.644E-01    0.242E-01
DAV:   6    -0.486249837275E+03   -0.45731E-03   -0.27283E-03  1944   0.257E-01    0.271E-01
DAV:   7    -0.486249530407E+03    0.30687E-03   -0.19397E-03  1856   0.290E-01    0.169E-01
DAV:   8    -0.486249428843E+03    0.10156E-03   -0.36853E-04  1504   0.123E-01    0.317E-02
DAV:   9    -0.486249449027E+03   -0.20184E-04   -0.46144E-05  1168   0.273E-02    0.188E-02
DAV:  10    -0.486249457250E+03   -0.82237E-05   -0.98066E-06   944   0.184E-02
  19 F= -.48624946E+03 E0= -.48622651E+03  d E =-.213523E-01
       N       E                     dE             d eps       ncg     rms          rms(c)
DAV:   1    -0.486255030830E+03   -0.55818E-02   -0.54644E-01  1408   0.200E+00    0.176E-01
DAV:   2    -0.486256384314E+03   -0.13535E-02   -0.12455E-02  1928   0.407E-01    0.395E-01
DAV:   3    -0.486256206235E+03    0.17808E-03   -0.49585E-03  1952   0.353E-01    0.340E-01
DAV:   4    -0.486255893561E+03    0.31267E-03   -0.19682E-03  1896   0.170E-01    0.162E-01
DAV:   5    -0.486255805885E+03    0.87675E-04   -0.79296E-04  1680   0.145E-01    0.108E-01
DAV:   6    -0.486255830898E+03   -0.25012E-04   -0.30395E-04  1816   0.109E-01    0.918E-02
DAV:   7    -0.486255810552E+03    0.20346E-04   -0.26245E-04  1408   0.105E-01    0.625E-02
DAV:   8    -0.486255797087E+03    0.13465E-04   -0.59610E-05  1168   0.466E-02    0.859E-03
DAV:   9    -0.486255801066E+03   -0.39786E-05   -0.68195E-06   944   0.114E-02
  20 F= -.48625580E+03 E0= -.48623267E+03  d E =-.634382E-02
       N       E                     dE             d eps       ncg     rms          rms(c)
DAV:   1    -0.486257733304E+03   -0.19362E-02   -0.16030E+00  1408   0.342E+00    0.302E-01
DAV:   2    -0.486261372555E+03   -0.36393E-02   -0.35769E-02  1904   0.672E-01    0.609E-01
DAV:   3    -0.486261487087E+03   -0.11453E-03   -0.14187E-02  1968   0.601E-01    0.613E-01
DAV:   4    -0.486260314546E+03    0.11725E-02   -0.60997E-03  1960   0.315E-01    0.282E-01
DAV:   5    -0.486260047807E+03    0.26674E-03   -0.23614E-03  1976   0.250E-01    0.189E-01
DAV:   6    -0.486260082481E+03   -0.34674E-04   -0.88032E-04  1976   0.181E-01    0.155E-01
DAV:   7    -0.486260037562E+03    0.44918E-04   -0.79873E-04  1680   0.178E-01    0.116E-01
DAV:   8    -0.486259977889E+03    0.59673E-04   -0.19929E-04  1296   0.815E-02    0.145E-02
DAV:   9    -0.486259986949E+03   -0.90599E-05   -0.19732E-05  1056   0.184E-02
  21 F= -.48625999E+03 E0= -.48623664E+03  d E =-.105297E-01
       N       E                     dE             d eps       ncg     rms          rms(c)
DAV:   1    -0.486264594753E+03   -0.46169E-02   -0.44283E-01  1408   0.178E+00    0.180E-01
DAV:   2    -0.486267429981E+03   -0.28352E-02   -0.15002E-02  2032   0.460E-01    0.605E-01
DAV:   3    -0.486265325619E+03    0.21044E-02   -0.88544E-03  1968   0.381E-01    0.334E-01
DAV:   4    -0.486265463565E+03   -0.13795E-03   -0.31637E-03  1720   0.267E-01    0.280E-01
DAV:   5    -0.486265104671E+03    0.35889E-03   -0.98142E-04  1784   0.178E-01    0.767E-02
DAV:   6    -0.486265309542E+03   -0.20487E-03   -0.57397E-04  1592   0.152E-01    0.177E-01
DAV:   7    -0.486265133095E+03    0.17645E-03   -0.45252E-04  1504   0.147E-01    0.384E-02
DAV:   8    -0.486265145009E+03   -0.11915E-04   -0.49905E-05  1104   0.317E-02    0.116E-02
DAV:   9    -0.486265147731E+03   -0.27215E-05   -0.79126E-06  1016   0.131E-02
  22 F= -.48626515E+03 E0= -.48624180E+03  d E =-.516078E-02
       N       E                     dE             d eps       ncg     rms          rms(c)
DAV:   1    -0.486267499666E+03   -0.23547E-02   -0.39832E+00  1416   0.535E+00    0.550E-01
DAV:   2    -0.486293528703E+03   -0.26029E-01   -0.13920E-01  2032   0.140E+00    0.170E+00
DAV:   3    -0.486274330325E+03    0.19198E-01   -0.69314E-02  2008   0.120E+00    0.941E-01
DAV:   4    -0.486275901409E+03   -0.15711E-02   -0.29163E-02  2008   0.790E-01    0.892E-01
DAV:   5    -0.486272148934E+03    0.37525E-02   -0.94284E-03  1992   0.549E-01    0.219E-01
DAV:   6    -0.486273569893E+03   -0.14210E-02   -0.46008E-03  1976   0.438E-01    0.493E-01
DAV:   7    -0.486272281769E+03    0.12881E-02   -0.35658E-03  2000   0.403E-01    0.123E-01
DAV:   8    -0.486272295191E+03   -0.13423E-04   -0.46917E-04  1856   0.856E-02    0.321E-02
DAV:   9    -0.486272296027E+03   -0.83573E-06   -0.49933E-05  1216   0.247E-02
  23 F= -.48627230E+03 E0= -.48624879E+03  d E =-.123091E-01
       N       E                     dE             d eps       ncg     rms          rms(c)
DAV:   1    -0.486276256379E+03   -0.39612E-02   -0.61206E-01  1416   0.211E+00    0.195E-01
DAV:   2    -0.486280146390E+03   -0.38900E-02   -0.20594E-02  2000   0.534E-01    0.732E-01
DAV:   3    -0.486277228392E+03    0.29180E-02   -0.11260E-02  1976   0.443E-01    0.353E-01
DAV:   4    -0.486277435047E+03   -0.20666E-03   -0.35205E-03  1832   0.292E-01    0.284E-01
DAV:   5    -0.486277013378E+03    0.42167E-03   -0.10965E-03  1848   0.188E-01    0.724E-02
DAV:   6    -0.486277204744E+03   -0.19137E-03   -0.44876E-04  1840   0.134E-01    0.159E-01
DAV:   7    -0.486277067117E+03    0.13763E-03   -0.40572E-04  1408   0.140E-01    0.528E-02
DAV:   8    -0.486277070327E+03   -0.32097E-05   -0.54665E-05  1088   0.394E-02
  24 F= -.48627707E+03 E0= -.48625345E+03  d E =-.477430E-02
       N       E                     dE             d eps       ncg     rms          rms(c)
DAV:   1    -0.486277831413E+03   -0.76430E-03   -0.13231E+00  1416   0.311E+00    0.296E-01
DAV:   2    -0.486287752692E+03   -0.99213E-02   -0.49713E-02  2000   0.839E-01    0.116E+00
DAV:   3    -0.486279932870E+03    0.78198E-02   -0.26696E-02  2008   0.722E-01    0.514E-01
DAV:   4    -0.486280368259E+03   -0.43539E-03   -0.79231E-03  1944   0.431E-01    0.412E-01
DAV:   5    -0.486279471004E+03    0.89726E-03   -0.23850E-03  1984   0.270E-01    0.100E-01
DAV:   6    -0.486279633236E+03   -0.16223E-03   -0.49380E-04  1848   0.121E-01    0.123E-01
DAV:   7    -0.486279628044E+03    0.51914E-05   -0.52750E-04  1584   0.161E-01    0.121E-01
DAV:   8    -0.486279560649E+03    0.67395E-04   -0.16839E-04  1184   0.868E-02    0.152E-02
DAV:   9    -0.486279571590E+03   -0.10941E-04   -0.17567E-05  1048   0.172E-02    0.111E-02
DAV:  10    -0.486279573556E+03   -0.19660E-05   -0.44067E-06   968   0.125E-02
  25 F= -.48627957E+03 E0= -.48625564E+03  d E =-.727753E-02
       N       E                     dE             d eps       ncg     rms          rms(c)
DAV:   1    -0.486282569826E+03   -0.29982E-02   -0.72904E-01  1424   0.229E+00    0.197E-01
DAV:   2    -0.486286418880E+03   -0.38491E-02   -0.21817E-02  1960   0.527E-01    0.711E-01
DAV:   3    -0.486283631862E+03    0.27870E-02   -0.11538E-02  2008   0.441E-01    0.366E-01
DAV:   4    -0.486283777140E+03   -0.14528E-03   -0.38440E-03  1856   0.295E-01    0.286E-01
DAV:   5    -0.486283393948E+03    0.38319E-03   -0.12139E-03  1824   0.189E-01    0.811E-02
DAV:   6    -0.486283711807E+03   -0.31786E-03   -0.67470E-04  1704   0.180E-01    0.219E-01
DAV:   7    -0.486283432777E+03    0.27903E-03   -0.54172E-04  1552   0.173E-01    0.365E-02
DAV:   8    -0.486283453169E+03   -0.20392E-04   -0.56413E-05  1112   0.336E-02    0.146E-02
DAV:   9    -0.486283454756E+03   -0.15869E-05   -0.85559E-06   992   0.140E-02
  26 F= -.48628345E+03 E0= -.48625928E+03  d E =-.388120E-02
       N       E                     dE             d eps       ncg     rms          rms(c)
DAV:   1    -0.486283265336E+03    0.18783E-03   -0.22039E+00  1424   0.399E+00    0.345E-01
DAV:   2    -0.486294980691E+03   -0.11715E-01   -0.67167E-02  1976   0.931E-01    0.119E+00
DAV:   3    -0.486286685089E+03    0.82956E-02   -0.32872E-02  2024   0.787E-01    0.625E-01
DAV:   4    -0.486287081504E+03   -0.39641E-03   -0.11864E-02  1984   0.510E-01    0.508E-01
DAV:   5    -0.486285816958E+03    0.12645E-02   -0.37792E-03  1960   0.333E-01    0.138E-01
DAV:   6    -0.486286697556E+03   -0.88060E-03   -0.19572E-03  1968   0.309E-01    0.374E-01
DAV:   7    -0.486285911419E+03    0.78614E-03   -0.15804E-03  1840   0.293E-01    0.640E-02
DAV:   8    -0.486285948595E+03   -0.37177E-04   -0.18114E-04  1544   0.548E-02    0.246E-02
DAV:   9    -0.486285951137E+03   -0.25419E-05   -0.21935E-05  1144   0.180E-02
  27 F= -.48628595E+03 E0= -.48626137E+03  d E =-.637758E-02
       N       E                     dE             d eps       ncg     rms          rms(c)
DAV:   1    -0.486289472651E+03   -0.35241E-02   -0.11278E+00  1408   0.285E+00    0.257E-01
DAV:   2    -0.486294973677E+03   -0.55010E-02   -0.32791E-02  1936   0.629E-01    0.821E-01
DAV:   3    -0.486291287111E+03    0.36866E-02   -0.17566E-02  2000   0.556E-01    0.496E-01
DAV:   4    -0.486291423106E+03   -0.13599E-03   -0.69321E-03  1920   0.381E-01    0.386E-01
DAV:   5    -0.486290716215E+03    0.70689E-03   -0.22754E-03  1912   0.256E-01    0.115E-01
DAV:   6    -0.486291176200E+03   -0.45999E-03   -0.11652E-03  1872   0.240E-01    0.270E-01
DAV:   7    -0.486290754844E+03    0.42136E-03   -0.77628E-04  1664   0.208E-01    0.374E-02
DAV:   8    -0.486290786172E+03   -0.31329E-04   -0.85613E-05  1200   0.377E-02    0.194E-02
DAV:   9    -0.486290788159E+03   -0.19869E-05   -0.13137E-05  1072   0.164E-02
  28 F= -.48629079E+03 E0= -.48626623E+03  d E =-.483702E-02
       N       E                     dE             d eps       ncg     rms          rms(c)
DAV:   1    -0.486289295345E+03    0.14908E-02   -0.46750E+00  1408   0.581E+00    0.533E-01
DAV:   2    -0.486312042690E+03   -0.22747E-01   -0.13742E-01  1928   0.130E+00    0.157E+00
DAV:   3    -0.486297198228E+03    0.14844E-01   -0.64935E-02  2032   0.117E+00    0.991E-01
DAV:   4    -0.486297920418E+03   -0.72219E-03   -0.29459E-02  1992   0.771E-01    0.823E-01
DAV:   5    -0.486294586607E+03    0.33338E-02   -0.98490E-03  1992   0.539E-01    0.223E-01
DAV:   6    -0.486296374841E+03   -0.17882E-02   -0.46624E-03  2000   0.486E-01    0.544E-01
DAV:   7    -0.486294649432E+03    0.17254E-02   -0.31989E-03  1976   0.418E-01    0.787E-02
DAV:   8    -0.486294734625E+03   -0.85193E-04   -0.42175E-04  1808   0.739E-02    0.373E-02
DAV:   9    -0.486294735324E+03   -0.69921E-06   -0.44423E-05  1208   0.234E-02
  29 F= -.48629474E+03 E0= -.48627020E+03  d E =-.878419E-02
       N       E                     dE             d eps       ncg     rms          rms(c)
DAV:   1    -0.486298013457E+03   -0.32788E-02   -0.14595E+00  1440   0.323E+00    0.292E-01
DAV:   2    -0.486305367548E+03   -0.73541E-02   -0.42874E-02  1952   0.720E-01    0.966E-01
DAV:   3    -0.486300321275E+03    0.50463E-02   -0.23251E-02  1984   0.647E-01    0.580E-01
DAV:   4    -0.486300408331E+03   -0.87057E-04   -0.87838E-03  1936   0.437E-01    0.414E-01
DAV:   5    -0.486299534992E+03    0.87334E-03   -0.24816E-03  1944   0.274E-01    0.991E-02
DAV:   6    -0.486300089039E+03   -0.55405E-03   -0.11902E-03  1952   0.235E-01    0.282E-01
DAV:   7    -0.486299628620E+03    0.46042E-03   -0.91166E-04  1592   0.226E-01    0.519E-02
DAV:   8    -0.486299655661E+03   -0.27041E-04   -0.99159E-05  1216   0.457E-02    0.212E-02
DAV:   9    -0.486299661225E+03   -0.55642E-05   -0.16921E-05  1088   0.170E-02
  30 F= -.48629966E+03 E0= -.48627513E+03  d E =-.492590E-02
       N       E                     dE             d eps       ncg     rms          rms(c)
DAV:   1    -0.486300238155E+03   -0.58249E-03   -0.15831E+00  1440   0.336E+00    0.306E-01
DAV:   2    -0.486308639712E+03   -0.84016E-02   -0.47643E-02  1960   0.766E-01    0.104E+00
DAV:   3    -0.486302710172E+03    0.59295E-02   -0.25848E-02  1984   0.693E-01    0.605E-01
DAV:   4    -0.486302796578E+03   -0.86407E-04   -0.94595E-03  1952   0.457E-01    0.425E-01
DAV:   5    -0.486301873551E+03    0.92303E-03   -0.26243E-03  1928   0.284E-01    0.102E-01
DAV:   6    -0.486302471488E+03   -0.59794E-03   -0.13042E-03  1944   0.248E-01    0.295E-01
DAV:   7    -0.486301969329E+03    0.50216E-03   -0.99784E-04  1600   0.237E-01    0.530E-02
DAV:   8    -0.486301996576E+03   -0.27248E-04   -0.11078E-04  1248   0.473E-02    0.217E-02
DAV:   9    -0.486302001166E+03   -0.45897E-05   -0.18163E-05  1112   0.175E-02
  31 F= -.48630200E+03 E0= -.48627748E+03  d E =-.726584E-02
       N       E                     dE             d eps       ncg     rms          rms(c)
DAV:   1    -0.486301971444E+03    0.25132E-04   -0.16745E-01  1440   0.109E+00    0.981E-02
DAV:   2    -0.486302837741E+03   -0.86630E-03   -0.48987E-03  1936   0.244E-01    0.352E-01
DAV:   3    -0.486302207315E+03    0.63043E-03   -0.29294E-03  1888   0.216E-01    0.198E-01
DAV:   4    -0.486302229200E+03   -0.21885E-04   -0.97971E-04  1408   0.150E-01    0.134E-01
DAV:   5    -0.486302143222E+03    0.85978E-04   -0.27226E-04  1448   0.937E-02    0.357E-02
DAV:   6    -0.486302222974E+03   -0.79751E-04   -0.15757E-04  1312   0.888E-02    0.103E-01
DAV:   7    -0.486302157826E+03    0.65148E-04   -0.11793E-04  1248   0.859E-02    0.173E-02
DAV:   8    -0.486302166633E+03   -0.88073E-05   -0.14662E-05  1000   0.179E-02
  32 F= -.48630217E+03 E0= -.48627768E+03  d E =-.743131E-02
       N       E                     dE             d eps       ncg     rms          rms(c)
DAV:   1    -0.486304958412E+03   -0.28006E-02   -0.20763E+00  1440   0.384E+00    0.331E-01
DAV:   2    -0.486313496523E+03   -0.85381E-02   -0.54847E-02  1936   0.784E-01    0.102E+00
DAV:   3    -0.486308361830E+03    0.51347E-02   -0.27193E-02  1984   0.712E-01    0.672E-01
DAV:   4    -0.486308427011E+03   -0.65181E-04   -0.11444E-02  1984   0.504E-01    0.496E-01
DAV:   5    -0.486307220081E+03    0.12069E-02   -0.34634E-03  1944   0.330E-01    0.123E-01
DAV:   6    -0.486308026323E+03   -0.80624E-03   -0.16788E-03  1984   0.289E-01    0.342E-01
DAV:   7    -0.486307364287E+03    0.66204E-03   -0.13166E-03  1720   0.273E-01    0.556E-02
DAV:   8    -0.486307401725E+03   -0.37438E-04   -0.14934E-04  1440   0.509E-02    0.227E-02
DAV:   9    -0.486307404941E+03   -0.32153E-05   -0.19329E-05  1128   0.177E-02
  33 F= -.48630740E+03 E0= -.48628275E+03  d E =-.523831E-02
       N       E                     dE             d eps       ncg     rms          rms(c)
DAV:   1    -0.486304599784E+03    0.28019E-02   -0.53419E+00  1456   0.615E+00    0.538E-01
DAV:   2    -0.486326971435E+03   -0.22372E-01   -0.14315E-01  1952   0.128E+00    0.158E+00
DAV:   3    -0.486313427116E+03    0.13544E-01   -0.65855E-02  1992   0.118E+00    0.108E+00
DAV:   4    -0.486313791053E+03   -0.36394E-03   -0.30495E-02  2000   0.807E-01    0.826E-01
DAV:   5    -0.486310374512E+03    0.34165E-02   -0.93102E-03  1984   0.542E-01    0.194E-01
DAV:   6    -0.486312281696E+03   -0.19072E-02   -0.41172E-03  2000   0.457E-01    0.533E-01
DAV:   7    -0.486310704476E+03    0.15772E-02   -0.33242E-03  2024   0.431E-01    0.100E-01
DAV:   8    -0.486310763039E+03   -0.58562E-04   -0.42912E-04  1728   0.811E-02    0.330E-02
DAV:   9    -0.486310771352E+03   -0.83137E-05   -0.49825E-05  1200   0.248E-02
  34 F= -.48631077E+03 E0= -.48628588E+03  d E =-.860472E-02
       N       E                     dE             d eps       ncg     rms          rms(c)
DAV:   1    -0.486312768689E+03   -0.20057E-02   -0.34474E+00  1440   0.499E+00    0.565E-01
DAV:   2    -0.486353268178E+03   -0.40499E-01   -0.18504E-01  1992   0.155E+00    0.224E+00
DAV:   3    -0.486317850928E+03    0.35417E-01   -0.95155E-02  2024   0.158E+00    0.978E-01
DAV:   4    -0.486318054563E+03   -0.20364E-03   -0.25939E-02  1968   0.753E-01    0.634E-01
DAV:   5    -0.486316028596E+03    0.20260E-02   -0.57761E-03  2000   0.411E-01    0.140E-01
DAV:   6    -0.486316464565E+03   -0.43597E-03   -0.13743E-03  2000   0.192E-01    0.199E-01
DAV:   7    -0.486316449035E+03    0.15529E-04   -0.12603E-03  1840   0.256E-01    0.181E-01
DAV:   8    -0.486316280320E+03    0.16871E-03   -0.34370E-04  1480   0.134E-01    0.357E-02
DAV:   9    -0.486316298538E+03   -0.18217E-04   -0.49846E-05  1152   0.247E-02    0.161E-02
DAV:  10    -0.486316309672E+03   -0.11135E-04   -0.78715E-06   928   0.154E-02    0.821E-03
DAV:  11    -0.486316316477E+03   -0.68046E-05   -0.45769E-06   952   0.724E-03
  35 F= -.48631632E+03 E0= -.48629129E+03  d E =-.554512E-02
       N       E                     dE             d eps       ncg     rms          rms(c)
DAV:   1    -0.486316187727E+03    0.12195E-03   -0.10973E+00  1440   0.281E+00    0.317E-01
DAV:   2    -0.486329945766E+03   -0.13758E-01   -0.58707E-02  1992   0.872E-01    0.142E+00
DAV:   3    -0.486317803244E+03    0.12143E-01   -0.37633E-02  1984   0.885E-01    0.622E-01
DAV:   4    -0.486317746674E+03    0.56570E-04   -0.91202E-03  1896   0.443E-01    0.327E-01
DAV:   5    -0.486317210590E+03    0.53608E-03   -0.17509E-03  1904   0.223E-01    0.818E-02
DAV:   6    -0.486317443472E+03   -0.23288E-03   -0.60911E-04  1928   0.153E-01    0.171E-01
DAV:   7    -0.486317295717E+03    0.14775E-03   -0.49502E-04  1640   0.165E-01    0.681E-02
DAV:   8    -0.486317288767E+03    0.69497E-05   -0.68118E-05  1120   0.524E-02
  36 F= -.48631729E+03 E0= -.48629227E+03  d E =-.651741E-02
       N       E                     dE             d eps       ncg     rms          rms(c)
DAV:   1    -0.486318722604E+03   -0.14269E-02   -0.39975E+00  1408   0.539E+00    0.558E-01
DAV:   2    -0.486352699283E+03   -0.33977E-01   -0.16541E-01  1952   0.145E+00    0.202E+00
DAV:   3    -0.486325311160E+03    0.27388E-01   -0.86464E-02  1992   0.146E+00    0.105E+00
DAV:   4    -0.486325363932E+03   -0.52772E-04   -0.27426E-02  1952   0.775E-01    0.688E-01
DAV:   5    -0.486323011887E+03    0.23520E-02   -0.63520E-03  2000   0.451E-01    0.170E-01
DAV:   6    -0.486324462550E+03   -0.14507E-02   -0.35401E-03  1976   0.431E-01    0.475E-01
DAV:   7    -0.486323254535E+03    0.12080E-02   -0.28766E-03  2008   0.399E-01    0.104E-01
DAV:   8    -0.486323259698E+03   -0.51626E-05   -0.35261E-04  1616   0.798E-02    0.399E-02
DAV:   9    -0.486323268644E+03   -0.89458E-05   -0.55005E-05  1232   0.298E-02
  37 F= -.48632327E+03 E0= -.48629824E+03  d E =-.597988E-02
       N       E                     dE             d eps       ncg     rms          rms(c)
DAV:   1    -0.486322497794E+03    0.76190E-03   -0.19713E+00  1408   0.378E+00    0.384E-01
DAV:   2    -0.486338358623E+03   -0.15861E-01   -0.76648E-02  1968   0.981E-01    0.145E+00
DAV:   3    -0.486325853053E+03    0.12506E-01   -0.44662E-02  1976   0.969E-01    0.772E-01
DAV:   4    -0.486325702902E+03    0.15015E-03   -0.13461E-02  1944   0.550E-01    0.466E-01
DAV:   5    -0.486324614904E+03    0.10880E-02   -0.30172E-03  1968   0.312E-01    0.114E-01
DAV:   6    -0.486325333182E+03   -0.71828E-03   -0.16467E-03  1952   0.293E-01    0.326E-01
DAV:   7    -0.486324736282E+03    0.59690E-03   -0.13460E-03  1736   0.276E-01    0.661E-02
DAV:   8    -0.486324751290E+03   -0.15008E-04   -0.13855E-04  1336   0.540E-02    0.264E-02
DAV:   9    -0.486324758718E+03   -0.74281E-05   -0.23325E-05  1168   0.220E-02
  38 F= -.48632476E+03 E0= -.48629985E+03  d E =-.746995E-02
       N       E                     dE             d eps       ncg     rms          rms(c)
DAV:   1    -0.486326870090E+03   -0.21188E-02   -0.29522E+00  1408   0.463E+00    0.452E-01
DAV:   2    -0.486349589628E+03   -0.22720E-01   -0.11235E-01  1984   0.123E+00    0.171E+00
DAV:   3    -0.486331561966E+03    0.18028E-01   -0.57989E-02  2024   0.116E+00    0.824E-01
DAV:   4    -0.486331911087E+03   -0.34912E-03   -0.17480E-02  1944   0.651E-01    0.578E-01
DAV:   5    -0.486330158350E+03    0.17527E-02   -0.44527E-03  2024   0.385E-01    0.131E-01
DAV:   6    -0.486330903927E+03   -0.74558E-03   -0.17125E-03  1968   0.287E-01    0.316E-01
DAV:   7    -0.486330382698E+03    0.52123E-03   -0.15368E-03  1760   0.295E-01    0.105E-01
DAV:   8    -0.486330367548E+03    0.15150E-04   -0.24216E-04  1448   0.803E-02    0.295E-02
DAV:   9    -0.486330377167E+03   -0.96192E-05   -0.37419E-05  1192   0.238E-02
  39 F= -.48633038E+03 E0= -.48630525E+03  d E =-.561845E-02
       N       E                     dE             d eps       ncg     rms          rms(c)
DAV:   1    -0.486324629023E+03    0.57385E-02   -0.78243E+00  1408   0.753E+00    0.748E-01
DAV:   2    -0.486383183972E+03   -0.58555E-01   -0.30679E-01  1992   0.204E+00    0.253E+00
DAV:   3    -0.486336867480E+03    0.46316E-01   -0.13047E-01  2048   0.193E+00    0.123E+00
DAV:   4    -0.486338787413E+03   -0.19199E-02   -0.45557E-02  2000   0.105E+00    0.102E+00
DAV:   5    -0.486333409043E+03    0.53784E-02   -0.12817E-02  2016   0.653E-01    0.229E-01
DAV:   6    -0.486335532625E+03   -0.21236E-02   -0.51466E-03  2008   0.510E-01    0.561E-01
DAV:   7    -0.486334007310E+03    0.15253E-02   -0.47571E-03  2008   0.516E-01    0.204E-01
DAV:   8    -0.486333889154E+03    0.11816E-03   -0.90684E-04  1920   0.141E-01    0.577E-02
DAV:   9    -0.486333905914E+03   -0.16760E-04   -0.12873E-04  1400   0.390E-02    0.205E-02
DAV:  10    -0.486333925753E+03   -0.19839E-04   -0.23260E-05  1016   0.219E-02    0.202E-02
DAV:  11    -0.486333933795E+03   -0.80415E-05   -0.91822E-06   928   0.137E-02
  40 F= -.48633393E+03 E0= -.48630847E+03  d E =-.917508E-02
       N       E                     dE             d eps       ncg     rms          rms(c)
DAV:   1    -0.486333098455E+03    0.82730E-03   -0.44764E+00  1424   0.569E+00    0.487E-01
DAV:   2    -0.486351645369E+03   -0.18547E-01   -0.12045E-01  1952   0.121E+00    0.147E+00
DAV:   3    -0.486340842105E+03    0.10803E-01   -0.52194E-02  2024   0.107E+00    0.940E-01
DAV:   4    -0.486341566546E+03   -0.72444E-03   -0.22310E-02  1960   0.754E-01    0.756E-01
DAV:   5    -0.486338421917E+03    0.31446E-02   -0.73196E-03  1992   0.503E-01    0.156E-01
DAV:   6    -0.486338786324E+03   -0.36441E-03   -0.11586E-03  1880   0.142E-01    0.117E-01
DAV:   7    -0.486339099880E+03   -0.31356E-03   -0.11675E-03  1864   0.245E-01    0.243E-01
DAV:   8    -0.486338757227E+03    0.34265E-03   -0.61500E-04  1488   0.196E-01    0.333E-02
DAV:   9    -0.486338786385E+03   -0.29158E-04   -0.54016E-05  1080   0.305E-02    0.174E-02
DAV:  10    -0.486338792979E+03   -0.65940E-05   -0.89173E-06   960   0.159E-02
  41 F= -.48633879E+03 E0= -.48631318E+03  d E =-.485918E-02
       N       E                     dE             d eps       ncg     rms          rms(c)
DAV:   1    -0.486338261644E+03    0.52474E-03   -0.12246E+00  1408   0.298E+00    0.252E-01
DAV:   2    -0.486343356839E+03   -0.50952E-02   -0.32798E-02  1960   0.625E-01    0.817E-01
DAV:   3    -0.486340307758E+03    0.30491E-02   -0.15583E-02  2000   0.546E-01    0.491E-01
DAV:   4    -0.486340536483E+03   -0.22872E-03   -0.58980E-03  1920   0.396E-01    0.383E-01
DAV:   5    -0.486339722147E+03    0.81434E-03   -0.19462E-03  1904   0.262E-01    0.816E-02
DAV:   6    -0.486339891649E+03   -0.16950E-03   -0.39095E-04  1856   0.101E-01    0.104E-01
DAV:   7    -0.486339870735E+03    0.20914E-04   -0.30671E-04  1552   0.130E-01    0.812E-02
DAV:   8    -0.486339844263E+03    0.26472E-04   -0.74678E-05  1144   0.676E-02    0.167E-02
DAV:   9    -0.486339853651E+03   -0.93881E-05   -0.10782E-05   952   0.145E-02
  42 F= -.48633985E+03 E0= -.48631409E+03  d E =-.591986E-02
       N       E                     dE             d eps       ncg     rms          rms(c)
DAV:   1    -0.486332532186E+03    0.73121E-02   -0.48923E+00  1408   0.595E+00    0.512E-01
DAV:   2    -0.486353157092E+03   -0.20625E-01   -0.13381E-01  1952   0.128E+00    0.154E+00
DAV:   3    -0.486341152486E+03    0.12005E-01   -0.57109E-02  2024   0.113E+00    0.986E-01
DAV:   4    -0.486341950015E+03   -0.79753E-03   -0.24736E-02  1968   0.792E-01    0.795E-01
DAV:   5    -0.486338476986E+03    0.34730E-02   -0.81162E-03  2008   0.525E-01    0.166E-01
DAV:   6    -0.486339087928E+03   -0.61094E-03   -0.16707E-03  1968   0.219E-01    0.234E-01
DAV:   7    -0.486339001600E+03    0.86328E-04   -0.15074E-03  1872   0.289E-01    0.180E-01
DAV:   8    -0.486338848838E+03    0.15276E-03   -0.37663E-04  1504   0.143E-01    0.326E-02
DAV:   9    -0.486338870282E+03   -0.21444E-04   -0.46443E-05  1136   0.279E-02    0.170E-02
DAV:  10    -0.486338878677E+03   -0.83950E-05   -0.89050E-06   960   0.167E-02
  43 F= -.48633888E+03 E0= -.48631293E+03  d E =-.494488E-02
       N       E                     dE             d eps       ncg     rms          rms(c)
DAV:   1    -0.486336330730E+03    0.25396E-02   -0.28519E+00  1408   0.454E+00    0.379E-01
DAV:   2    -0.486350255527E+03   -0.13925E-01   -0.80328E-02  1952   0.971E-01    0.167E+00
DAV:   3    -0.486341056018E+03    0.91995E-02   -0.55789E-02  1960   0.812E-01    0.701E-01
DAV:   4    -0.486341498500E+03   -0.44248E-03   -0.12625E-02  1976   0.603E-01    0.523E-01
DAV:   5    -0.486339805049E+03    0.16935E-02   -0.40585E-03  1976   0.382E-01    0.152E-01
DAV:   6    -0.486340642337E+03   -0.83729E-03   -0.19565E-03  2024   0.290E-01    0.342E-01
DAV:   7    -0.486339975997E+03    0.66634E-03   -0.12997E-03  1704   0.275E-01    0.642E-02
DAV:   8    -0.486340008758E+03   -0.32761E-04   -0.15580E-04  1376   0.546E-02    0.289E-02
DAV:   9    -0.486340012838E+03   -0.40802E-05   -0.24207E-05  1144   0.201E-02
  44 F= -.48634001E+03 E0= -.48631413E+03  d E =-.607904E-02
       N       E                     dE             d eps       ncg     rms          rms(c)
DAV:   1    -0.486340381831E+03   -0.37307E-03   -0.39512E+00  1408   0.536E+00    0.499E-01
DAV:   2    -0.486362418280E+03   -0.22036E-01   -0.12525E-01  1960   0.124E+00    0.165E+00
DAV:   3    -0.486347151550E+03    0.15267E-01   -0.61445E-02  2056   0.119E+00    0.968E-01
DAV:   4    -0.486347542175E+03   -0.39063E-03   -0.23165E-02  1968   0.752E-01    0.716E-01
DAV:   5    -0.486344743475E+03    0.27987E-02   -0.64198E-03  1992   0.467E-01    0.144E-01
DAV:   6    -0.486345276444E+03   -0.53297E-03   -0.14672E-03  1952   0.224E-01    0.223E-01
DAV:   7    -0.486345164488E+03    0.11196E-03   -0.14037E-03  1832   0.274E-01    0.166E-01
DAV:   8    -0.486345034861E+03    0.12963E-03   -0.33183E-04  1416   0.124E-01    0.293E-02
DAV:   9    -0.486345050991E+03   -0.16130E-04   -0.44437E-05  1216   0.271E-02    0.162E-02
DAV:  10    -0.486345055201E+03   -0.42095E-05   -0.93795E-06   960   0.179E-02
  45 F= -.48634506E+03 E0= -.48631942E+03  d E =-.504236E-02
       N       E                     dE             d eps       ncg     rms          rms(c)
DAV:   1    -0.486343974533E+03    0.10765E-02   -0.22951E+00  1408   0.408E+00    0.378E-01
DAV:   2    -0.486356809650E+03   -0.12835E-01   -0.72261E-02  1944   0.939E-01    0.130E+00
DAV:   3    -0.486347824202E+03    0.89854E-02   -0.37568E-02  2016   0.895E-01    0.744E-01
DAV:   4    -0.486348055454E+03   -0.23125E-03   -0.13362E-02  1968   0.577E-01    0.535E-01
DAV:   5    -0.486346476657E+03    0.15788E-02   -0.36590E-03  1992   0.353E-01    0.107E-01
DAV:   6    -0.486346696895E+03   -0.22024E-03   -0.64651E-04  1864   0.111E-01    0.842E-02
DAV:   7    -0.486346819302E+03   -0.12241E-03   -0.55726E-04  1712   0.169E-01    0.162E-01
DAV:   8    -0.486346671093E+03    0.14821E-03   -0.27610E-04  1376   0.128E-01    0.236E-02
DAV:   9    -0.486346689369E+03   -0.18276E-04   -0.29408E-05  1104   0.214E-02    0.123E-02
DAV:  10    -0.486346693857E+03   -0.44883E-05   -0.56636E-06   936   0.124E-02
  46 F= -.48634669E+03 E0= -.48632115E+03  d E =-.668102E-02
       N       E                     dE             d eps       ncg     rms          rms(c)
DAV:   1    -0.486348470469E+03   -0.17811E-02   -0.30609E+00  1408   0.475E+00    0.565E-01
DAV:   2    -0.486387890763E+03   -0.39420E-01   -0.17816E-01  1992   0.158E+00    0.220E+00
DAV:   3    -0.486353366714E+03    0.34524E-01   -0.91512E-02  2016   0.157E+00    0.992E-01
DAV:   4    -0.486353444854E+03   -0.78140E-04   -0.25257E-02  1968   0.766E-01    0.641E-01
DAV:   5    -0.486351299365E+03    0.21455E-02   -0.53039E-03  1976   0.402E-01    0.132E-01
DAV:   6    -0.486352069948E+03   -0.77058E-03   -0.19535E-03  1960   0.296E-01    0.323E-01
DAV:   7    -0.486351558538E+03    0.51141E-03   -0.17058E-03  1832   0.306E-01    0.125E-01
DAV:   8    -0.486351517704E+03    0.40834E-04   -0.29761E-04  1456   0.925E-02    0.415E-02
DAV:   9    -0.486351527735E+03   -0.10031E-04   -0.53235E-05  1192   0.296E-02    0.145E-02
DAV:  10    -0.486351539433E+03   -0.11698E-04   -0.12984E-05   944   0.186E-02    0.133E-02
DAV:  11    -0.486351542413E+03   -0.29801E-05   -0.46312E-06   976   0.101E-02
  47 F= -.48635154E+03 E0= -.48632611E+03  d E =-.484856E-02
       N       E                     dE             d eps       ncg     rms          rms(c)
DAV:   1    -0.486351564055E+03   -0.24622E-04   -0.73729E-01  1408   0.233E+00    0.274E-01
DAV:   2    -0.486361512562E+03   -0.99485E-02   -0.41960E-02  1992   0.763E-01    0.123E+00
DAV:   3    -0.486352714901E+03    0.87977E-02   -0.27649E-02  1984   0.753E-01    0.551E-01
DAV:   4    -0.486352660192E+03    0.54709E-04   -0.67301E-03  1888   0.395E-01    0.291E-01
DAV:   5    -0.486352228251E+03    0.43194E-03   -0.12353E-03  1920   0.191E-01    0.641E-02
DAV:   6    -0.486352328991E+03   -0.10074E-03   -0.28635E-04  1832   0.864E-02    0.816E-02
DAV:   7    -0.486352329005E+03   -0.13435E-07   -0.24857E-04  1520   0.114E-01    0.838E-02
DAV:   8    -0.486352295285E+03    0.33720E-04   -0.79177E-05  1152   0.658E-02    0.165E-02
DAV:   9    -0.486352303043E+03   -0.77580E-05   -0.12534E-05   992   0.142E-02
  48 F= -.48635230E+03 E0= -.48632694E+03  d E =-.560919E-02
       N       E                     dE             d eps       ncg     rms          rms(c)
DAV:   1    -0.486353337927E+03   -0.10426E-02   -0.26292E+00  1408   0.437E+00    0.375E-01
DAV:   2    -0.486362308010E+03   -0.89701E-02   -0.66299E-02  1936   0.859E-01    0.101E+00
DAV:   3    -0.486358377386E+03    0.39306E-02   -0.29390E-02  2048   0.767E-01    0.813E-01
DAV:   4    -0.486358447854E+03   -0.70468E-04   -0.14310E-02  1976   0.596E-01    0.607E-01
DAV:   5    -0.486356429608E+03    0.20182E-02   -0.43424E-03  1976   0.400E-01    0.126E-01
DAV:   6    -0.486357108317E+03   -0.67871E-03   -0.16450E-03  1976   0.258E-01    0.288E-01
DAV:   7    -0.486356681652E+03    0.42667E-03   -0.14220E-03  1752   0.269E-01    0.898E-02
DAV:   8    -0.486356674222E+03    0.74302E-05   -0.18720E-04  1360   0.703E-02    0.208E-02
DAV:   9    -0.486356684086E+03   -0.98644E-05   -0.28250E-05  1152   0.206E-02
  49 F= -.48635668E+03 E0= -.48633150E+03  d E =-.438104E-02
       N       E                     dE             d eps       ncg     rms          rms(c)
DAV:   1    -0.486344946266E+03    0.11728E-01   -0.12335E+01  1408   0.947E+00    0.833E-01
DAV:   2    -0.486387532108E+03   -0.42586E-01   -0.31776E-01  1936   0.190E+00    0.199E+00
DAV:   3    -0.486369722010E+03    0.17810E-01   -0.12335E-01  2064   0.175E+00    0.183E+00
DAV:   4    -0.486370499962E+03   -0.77795E-03   -0.76014E-02  1984   0.129E+00    0.140E+00
DAV:   5    -0.486359921817E+03    0.10578E-01   -0.21973E-02  1984   0.883E-01    0.296E-01
DAV:   6    -0.486362287389E+03   -0.23656E-02   -0.69930E-03  1992   0.549E-01    0.591E-01
DAV:   7    -0.486360893256E+03    0.13941E-02   -0.69933E-03  2016   0.604E-01    0.278E-01
DAV:   8    -0.486360632492E+03    0.26076E-03   -0.13043E-03  1992   0.199E-01    0.516E-02
DAV:   9    -0.486360675477E+03   -0.42985E-04   -0.16494E-04  1728   0.470E-02    0.281E-02
DAV:  10    -0.486360683263E+03   -0.77860E-05   -0.22300E-05  1104   0.226E-02
  50 F= -.48636068E+03 E0= -.48633596E+03  d E =-.838022E-02
       N       E                     dE             d eps       ncg     rms          rms(c)
DAV:   1    -0.486361948738E+03   -0.12733E-02   -0.15972E+00  1424   0.340E+00    0.269E-01
DAV:   2    -0.486366793155E+03   -0.48444E-02   -0.36496E-02  1880   0.647E-01    0.751E-01
DAV:   3    -0.486364705285E+03    0.20879E-02   -0.14385E-02  2032   0.548E-01    0.540E-01
DAV:   4    -0.486364812607E+03   -0.10732E-03   -0.58342E-03  1960   0.410E-01    0.405E-01
DAV:   5    -0.486363886931E+03    0.92568E-03   -0.20599E-03  1904   0.285E-01    0.979E-02
DAV:   6    -0.486364230821E+03   -0.34389E-03   -0.82370E-04  1944   0.174E-01    0.193E-01
DAV:   7    -0.486364038519E+03    0.19230E-03   -0.69936E-04  1656   0.182E-01    0.620E-02
DAV:   8    -0.486364040934E+03   -0.24155E-05   -0.92894E-05  1184   0.509E-02
  51 F= -.48636404E+03 E0= -.48633931E+03  d E =-.335767E-02
       N       E                     dE             d eps       ncg     rms          rms(c)
DAV:   1    -0.486361780660E+03    0.22579E-02   -0.45586E+00  1424   0.575E+00    0.462E-01
DAV:   2    -0.486376258600E+03   -0.14478E-01   -0.10676E-01  1904   0.112E+00    0.125E+00
DAV:   3    -0.486369918660E+03    0.63399E-02   -0.40360E-02  2024   0.960E-01    0.931E-01
DAV:   4    -0.486370159185E+03   -0.24053E-03   -0.17745E-02  1984   0.695E-01    0.701E-01
DAV:   5    -0.486367403730E+03    0.27555E-02   -0.61008E-03  1976   0.474E-01    0.161E-01
DAV:   6    -0.486367967696E+03   -0.56397E-03   -0.15085E-03  1920   0.214E-01    0.212E-01
DAV:   7    -0.486367932851E+03    0.34845E-04   -0.15816E-03  1848   0.278E-01    0.180E-01
DAV:   8    -0.486367777277E+03    0.15557E-03   -0.42035E-04  1400   0.134E-01    0.253E-02
DAV:   9    -0.486367801560E+03   -0.24283E-04   -0.42614E-05  1128   0.265E-02    0.148E-02
DAV:  10    -0.486367806148E+03   -0.45874E-05   -0.92173E-06   960   0.174E-02
  52 F= -.48636781E+03 E0= -.48634312E+03  d E =-.712288E-02
       N       E                     dE             d eps       ncg     rms          rms(c)
DAV:   1    -0.486344063226E+03    0.23738E-01   -0.18228E+01  1424   0.115E+01    0.950E-01
DAV:   2    -0.486400733437E+03   -0.56670E-01   -0.43528E-01  1896   0.226E+00    0.221E+00
DAV:   3    -0.486379339787E+03    0.21394E-01   -0.14539E-01  2072   0.201E+00    0.203E+00
DAV:   4    -0.486379219613E+03    0.12017E-03   -0.86963E-02  1992   0.140E+00    0.150E+00
DAV:   5    -0.486367262057E+03    0.11958E-01   -0.26160E-02  2032   0.956E-01    0.375E-01
DAV:   6    -0.486368606037E+03   -0.13440E-02   -0.61204E-03  1976   0.455E-01    0.444E-01
DAV:   7    -0.486369347584E+03   -0.74155E-03   -0.84199E-03  2000   0.646E-01    0.519E-01
DAV:   8    -0.486367999153E+03    0.13484E-02   -0.33905E-03  1968   0.367E-01    0.815E-02
DAV:   9    -0.486368079042E+03   -0.79889E-04   -0.29104E-04  1808   0.680E-02    0.378E-02
DAV:  10    -0.486368089139E+03   -0.10098E-04   -0.42988E-05  1176   0.267E-02    0.162E-02
DAV:  11    -0.486368109849E+03   -0.20709E-04   -0.13969E-05   968   0.143E-02    0.687E-03
DAV:  12    -0.486368119976E+03   -0.10127E-04   -0.39448E-06   968   0.770E-03    0.364E-03
DAV:  13    -0.486368128153E+03   -0.81772E-05   -0.15263E-06   976   0.469E-03
  53 F= -.48636813E+03 E0= -.48634344E+03  d E =-.744489E-02
       N       E                     dE             d eps       ncg     rms          rms(c)
DAV:   1    -0.486363392520E+03    0.47275E-02   -0.44878E+00  1424   0.570E+00    0.443E-01
DAV:   2    -0.486379391880E+03   -0.15999E-01   -0.10638E-01  1896   0.111E+00    0.171E+00
DAV:   3    -0.486370773734E+03    0.86181E-02   -0.59567E-02  2016   0.890E-01    0.783E-01
DAV:   4    -0.486371407031E+03   -0.63330E-03   -0.13335E-02  1944   0.666E-01    0.613E-01
DAV:   5    -0.486368942388E+03    0.24646E-02   -0.53067E-03  1976   0.479E-01    0.195E-01
DAV:   6    -0.486369426611E+03   -0.48422E-03   -0.16747E-03  1904   0.210E-01    0.208E-01
DAV:   7    -0.486369291508E+03    0.13510E-03   -0.12380E-03  1792   0.223E-01    0.120E-01
DAV:   8    -0.486369241487E+03    0.50020E-04   -0.20274E-04  1376   0.900E-02    0.211E-02
DAV:   9    -0.486369254248E+03   -0.12761E-04   -0.27812E-05  1168   0.194E-02    0.115E-02
DAV:  10    -0.486369256554E+03   -0.23059E-05   -0.64750E-06   960   0.133E-02
  54 F= -.48636926E+03 E0= -.48634456E+03  d E =-.857329E-02
       N       E                     dE             d eps       ncg     rms          rms(c)
DAV:   1    -0.486370146023E+03   -0.89177E-03   -0.30790E+00  1424   0.473E+00    0.440E-01
DAV:   2    -0.486389320629E+03   -0.19175E-01   -0.99509E-02  1952   0.117E+00    0.159E+00
DAV:   3    -0.486374865368E+03    0.14455E-01   -0.48175E-02  2024   0.110E+00    0.793E-01
DAV:   4    -0.486375549863E+03   -0.68450E-03   -0.15122E-02  1992   0.648E-01    0.611E-01
DAV:   5    -0.486373471017E+03    0.20788E-02   -0.45339E-03  1952   0.411E-01    0.136E-01
DAV:   6    -0.486374400461E+03   -0.92944E-03   -0.24125E-03  1952   0.320E-01    0.361E-01
DAV:   7    -0.486373717776E+03    0.68268E-03   -0.19897E-03  1896   0.314E-01    0.926E-02
DAV:   8    -0.486373717965E+03   -0.18923E-06   -0.26509E-04  1376   0.692E-02    0.296E-02
DAV:   9    -0.486373723445E+03   -0.54799E-05   -0.42551E-05  1184   0.250E-02
  55 F= -.48637372E+03 E0= -.48634917E+03  d E =-.446689E-02
       N       E                     dE             d eps       ncg     rms          rms(c)
DAV:   1    -0.486369367668E+03    0.43503E-02   -0.57581E+00  1424   0.647E+00    0.604E-01
DAV:   2    -0.486403289308E+03   -0.33922E-01   -0.18440E-01  1960   0.158E+00    0.199E+00
DAV:   3    -0.486378487214E+03    0.24802E-01   -0.79843E-02  2024   0.149E+00    0.106E+00
DAV:   4    -0.486379834331E+03   -0.13471E-02   -0.28388E-02  1992   0.880E-01    0.868E-01
DAV:   5    -0.486375709499E+03    0.41248E-02   -0.87373E-03  1968   0.570E-01    0.202E-01
DAV:   6    -0.486377476631E+03   -0.17671E-02   -0.48423E-03  1984   0.465E-01    0.518E-01
DAV:   7    -0.486376128216E+03    0.13484E-02   -0.40168E-03  2032   0.441E-01    0.141E-01
DAV:   8    -0.486376107759E+03    0.20457E-04   -0.56772E-04  1792   0.964E-02    0.443E-02
DAV:   9    -0.486376117645E+03   -0.98861E-05   -0.83850E-05  1296   0.331E-02
  56 F= -.48637612E+03 E0= -.48635178E+03  d E =-.686109E-02
       N       E                     dE             d eps       ncg     rms          rms(c)
DAV:   1    -0.486377966558E+03   -0.18588E-02   -0.15721E+00  1440   0.338E+00    0.394E-01
DAV:   2    -0.486396963657E+03   -0.18997E-01   -0.78667E-02  1992   0.110E+00    0.163E+00
DAV:   3    -0.486380178197E+03    0.16785E-01   -0.46211E-02  2000   0.109E+00    0.727E-01
DAV:   4    -0.486380213043E+03   -0.34846E-04   -0.11692E-02  1952   0.543E-01    0.442E-01
DAV:   5    -0.486379232048E+03    0.98099E-03   -0.26664E-03  1960   0.306E-01    0.140E-01
DAV:   6    -0.486379662165E+03   -0.43012E-03   -0.17544E-03  1872   0.273E-01    0.273E-01
DAV:   7    -0.486379290340E+03    0.37182E-03   -0.10598E-03  1880   0.212E-01    0.529E-02
DAV:   8    -0.486379309675E+03   -0.19335E-04   -0.12628E-04  1248   0.410E-02    0.296E-02
DAV:   9    -0.486379311201E+03   -0.15258E-05   -0.25965E-05  1168   0.211E-02
  57 F= -.48637931E+03 E0= -.48635515E+03  d E =-.319356E-02
       N       E                     dE             d eps       ncg     rms          rms(c)
DAV:   1    -0.486379255369E+03    0.54307E-04   -0.11880E+00  1440   0.294E+00    0.344E-01
DAV:   2    -0.486394125377E+03   -0.14870E-01   -0.60442E-02  2008   0.962E-01    0.147E+00
DAV:   3    -0.486380880795E+03    0.13245E-01   -0.36843E-02  1984   0.951E-01    0.640E-01
DAV:   4    -0.486380909067E+03   -0.28272E-04   -0.88948E-03  1944   0.475E-01    0.376E-01
DAV:   5    -0.486380191377E+03    0.71769E-03   -0.19696E-03  1936   0.261E-01    0.117E-01
DAV:   6    -0.486380547844E+03   -0.35647E-03   -0.13273E-03  1728   0.240E-01    0.245E-01
DAV:   7    -0.486380240232E+03    0.30761E-03   -0.83442E-04  1792   0.191E-01    0.450E-02
DAV:   8    -0.486380257151E+03   -0.16919E-04   -0.90186E-05  1168   0.363E-02    0.256E-02
DAV:   9    -0.486380259182E+03   -0.20311E-05   -0.19233E-05  1128   0.193E-02
  58 F= -.48638026E+03 E0= -.48635621E+03  d E =-.414154E-02
       N       E                     dE             d eps       ncg     rms          rms(c)
DAV:   1    -0.486381216062E+03   -0.95891E-03   -0.99303E-01  1456   0.269E+00    0.234E-01
DAV:   2    -0.486385253497E+03   -0.40374E-02   -0.24630E-02  1952   0.596E-01    0.763E-01
DAV:   3    -0.486382705710E+03    0.25478E-02   -0.11731E-02  2000   0.519E-01    0.428E-01
DAV:   4    -0.486383045575E+03   -0.33987E-03   -0.42798E-03  1936   0.359E-01    0.374E-01
DAV:   5    -0.486382276678E+03    0.76890E-03   -0.15890E-03  1896   0.265E-01    0.963E-02
DAV:   6    -0.486382630905E+03   -0.35423E-03   -0.10982E-03  1624   0.197E-01    0.224E-01
DAV:   7    -0.486382342797E+03    0.28811E-03   -0.82785E-04  1712   0.172E-01    0.350E-02
DAV:   8    -0.486382369984E+03   -0.27187E-04   -0.75315E-05  1104   0.316E-02    0.141E-02
DAV:   9    -0.486382372248E+03   -0.22637E-05   -0.12030E-05  1056   0.152E-02
  59 F= -.48638237E+03 E0= -.48635819E+03  d E =-.211307E-02
       N       E                     dE             d eps       ncg     rms          rms(c)
DAV:   1    -0.486382222236E+03    0.14775E-03   -0.49089E-01  1456   0.189E+00    0.165E-01
DAV:   2    -0.486384272505E+03   -0.20503E-02   -0.12275E-02  1960   0.422E-01    0.558E-01
DAV:   3    -0.486382920470E+03    0.13520E-02   -0.61256E-03  1976   0.367E-01    0.299E-01
DAV:   4    -0.486383110720E+03   -0.19025E-03   -0.21070E-03  1776   0.253E-01    0.260E-01
DAV:   5    -0.486382734857E+03    0.37586E-03   -0.78511E-04  1696   0.188E-01    0.679E-02
DAV:   6    -0.486382921228E+03   -0.18637E-03   -0.54590E-04  1448   0.140E-01    0.158E-01
DAV:   7    -0.486382775198E+03    0.14603E-03   -0.41614E-04  1456   0.122E-01    0.242E-02
DAV:   8    -0.486382792546E+03   -0.17349E-04   -0.37185E-05  1064   0.242E-02    0.102E-02
DAV:   9    -0.486382793906E+03   -0.13596E-05   -0.56320E-06   968   0.117E-02
  60 F= -.48638279E+03 E0= -.48635853E+03  d E =-.253472E-02
       N       E                     dE             d eps       ncg     rms          rms(c)
DAV:   1    -0.486383216225E+03   -0.42368E-03   -0.10314E+00  1408   0.275E+00    0.207E-01
DAV:   2    -0.486384944075E+03   -0.17279E-02   -0.19753E-02  1784   0.476E-01    0.290E-01
DAV:   3    -0.486385148842E+03   -0.20477E-03   -0.46976E-03  2016   0.443E-01    0.349E-01
DAV:   4    -0.486384889628E+03    0.25921E-03   -0.22607E-03  1960   0.275E-01    0.297E-01
DAV:   5    -0.486384590695E+03    0.29893E-03   -0.15497E-03  1632   0.178E-01    0.154E-01
DAV:   6    -0.486384766776E+03   -0.17608E-03   -0.62829E-04  1776   0.148E-01    0.153E-01
DAV:   7    -0.486384618997E+03    0.14778E-03   -0.33746E-04  1488   0.121E-01    0.399E-02
DAV:   8    -0.486384640351E+03   -0.21354E-04   -0.39860E-05  1040   0.312E-02    0.103E-02
DAV:   9    -0.486384643124E+03   -0.27732E-05   -0.74646E-06   992   0.125E-02
  61 F= -.48638464E+03 E0= -.48636055E+03  d E =-.184922E-02
       N       E                     dE             d eps       ncg     rms          rms(c)
DAV:   1    -0.486384210254E+03    0.43010E-03   -0.62602E-01  1424   0.214E+00    0.161E-01
DAV:   2    -0.486385246658E+03   -0.10364E-02   -0.11934E-02  1800   0.373E-01    0.228E-01
DAV:   3    -0.486385367510E+03   -0.12085E-03   -0.28131E-03  2008   0.344E-01    0.277E-01
DAV:   4    -0.486385249270E+03    0.11824E-03   -0.14989E-03  1848   0.216E-01    0.250E-01
DAV:   5    -0.486385021718E+03    0.22755E-03   -0.10241E-03  1496   0.147E-01    0.113E-01
DAV:   6    -0.486385124271E+03   -0.10255E-03   -0.33821E-04  1632   0.105E-01    0.104E-01
DAV:   7    -0.486385058199E+03    0.66072E-04   -0.17382E-04  1288   0.866E-02    0.352E-02
DAV:   8    -0.486385067597E+03   -0.93976E-05   -0.25621E-05  1016   0.271E-02
  62 F= -.48638507E+03 E0= -.48636102E+03  d E =-.227369E-02
       N       E                     dE             d eps       ncg     rms          rms(c)
DAV:   1    -0.486384955239E+03    0.10296E-03   -0.13723E+00  1408   0.318E+00    0.243E-01
DAV:   2    -0.486387628488E+03   -0.26732E-02   -0.27457E-02  1792   0.550E-01    0.441E-01
DAV:   3    -0.486387846835E+03   -0.21835E-03   -0.80968E-03  2048   0.468E-01    0.555E-01
DAV:   4    -0.486387430463E+03    0.41637E-03   -0.53581E-03  1928   0.353E-01    0.387E-01
DAV:   5    -0.486386786113E+03    0.64435E-03   -0.20900E-03  1896   0.294E-01    0.123E-01
DAV:   6    -0.486387092324E+03   -0.30621E-03   -0.10793E-03  1856   0.162E-01    0.191E-01
DAV:   7    -0.486386832564E+03    0.25976E-03   -0.75915E-04  1584   0.152E-01    0.451E-02
DAV:   8    -0.486386861887E+03   -0.29324E-04   -0.71760E-05  1104   0.412E-02    0.149E-02
DAV:   9    -0.486386862811E+03   -0.92312E-06   -0.13333E-05  1024   0.157E-02
  63 F= -.48638686E+03 E0= -.48636296E+03  d E =-.179521E-02
       N       E                     dE             d eps       ncg     rms          rms(c)
DAV:   1    -0.486386771153E+03    0.90735E-04   -0.14640E-01  1408   0.104E+00    0.791E-02
DAV:   2    -0.486387053695E+03   -0.28254E-03   -0.29223E-03  1816   0.181E-01    0.142E-01
DAV:   3    -0.486387067655E+03   -0.13960E-04   -0.84775E-04  1888   0.155E-01    0.174E-01
DAV:   4    -0.486387033876E+03    0.33779E-04   -0.54590E-04  1384   0.116E-01    0.133E-01
DAV:   5    -0.486386962753E+03    0.71123E-04   -0.24044E-04  1240   0.100E-01    0.408E-02
DAV:   6    -0.486387009081E+03   -0.46328E-04   -0.14233E-04  1280   0.570E-02    0.672E-02
DAV:   7    -0.486386972669E+03    0.36412E-04   -0.90644E-05  1104   0.552E-02    0.147E-02
DAV:   8    -0.486386980409E+03   -0.77399E-05   -0.96900E-06   840   0.164E-02
  64 F= -.48638698E+03 E0= -.48636316E+03  d E =-.191281E-02
       N       E                     dE             d eps       ncg     rms          rms(c)
DAV:   1    -0.486387260403E+03   -0.28773E-03   -0.89376E-01  1424   0.255E+00    0.198E-01
DAV:   2    -0.486389129361E+03   -0.18690E-02   -0.18205E-02  1832   0.453E-01    0.414E-01
DAV:   3    -0.486389016058E+03    0.11330E-03   -0.59146E-03  2064   0.374E-01    0.435E-01
DAV:   4    -0.486388611927E+03    0.40413E-03   -0.25951E-03  1896   0.256E-01    0.228E-01
DAV:   5    -0.486388437360E+03    0.17457E-03   -0.88425E-04  1648   0.201E-01    0.111E-01
DAV:   6    -0.486388590870E+03   -0.15351E-03   -0.60822E-04  1792   0.145E-01    0.151E-01
DAV:   7    -0.486388450564E+03    0.14031E-03   -0.45707E-04  1392   0.123E-01    0.393E-02
DAV:   8    -0.486388466437E+03   -0.15873E-04   -0.49309E-05  1008   0.340E-02    0.117E-02
DAV:   9    -0.486388468181E+03   -0.17439E-05   -0.99585E-06   992   0.147E-02
  65 F= -.48638847E+03 E0= -.48636457E+03  d E =-.148777E-02
       N       E                     dE             d eps       ncg     rms          rms(c)
DAV:   1    -0.486388134035E+03    0.33240E-03   -0.48270E-01  1424   0.187E+00    0.145E-01
DAV:   2    -0.486389112534E+03   -0.97850E-03   -0.97073E-03  1832   0.330E-01    0.295E-01
DAV:   3    -0.486389080364E+03    0.32170E-04   -0.31145E-03  2064   0.273E-01    0.319E-01
DAV:   4    -0.486388868686E+03    0.21168E-03   -0.14369E-03  1760   0.192E-01    0.176E-01
DAV:   5    -0.486388765954E+03    0.10273E-03   -0.51430E-04  1464   0.155E-01    0.804E-02
DAV:   6    -0.486388857054E+03   -0.91101E-04   -0.35477E-04  1648   0.105E-01    0.110E-01
DAV:   7    -0.486388775644E+03    0.81411E-04   -0.24823E-04  1288   0.885E-02    0.264E-02
DAV:   8    -0.486388788717E+03   -0.13074E-04   -0.25882E-05   968   0.249E-02    0.850E-03
DAV:   9    -0.486388789624E+03   -0.90655E-06   -0.57315E-06   920   0.109E-02
  66 F= -.48638879E+03 E0= -.48636488E+03  d E =-.180921E-02
       N       E                     dE             d eps       ncg     rms          rms(c)
DAV:   1    -0.486389333360E+03   -0.54464E-03   -0.60936E-01  1424   0.210E+00    0.167E-01
DAV:   2    -0.486391187612E+03   -0.18543E-02   -0.13477E-02  1936   0.418E-01    0.484E-01
DAV:   3    -0.486390282886E+03    0.90473E-03   -0.53677E-03  2032   0.346E-01    0.313E-01
DAV:   4    -0.486390408029E+03   -0.12514E-03   -0.20704E-03  1816   0.255E-01    0.263E-01
DAV:   5    -0.486390031926E+03    0.37610E-03   -0.81346E-04  1728   0.192E-01    0.711E-02
DAV:   6    -0.486390284450E+03   -0.25252E-03   -0.70325E-04  1576   0.156E-01    0.186E-01
DAV:   7    -0.486390069178E+03    0.21527E-03   -0.53833E-04  1424   0.142E-01    0.232E-02
DAV:   8    -0.486390091909E+03   -0.22731E-04   -0.48266E-05  1024   0.259E-02    0.119E-02
DAV:   9    -0.486390092544E+03   -0.63514E-06   -0.82330E-06   992   0.132E-02
  67 F= -.48639009E+03 E0= -.48636622E+03  d E =-.130292E-02
       N       E                     dE             d eps       ncg     rms          rms(c)
DAV:   1    -0.486388421815E+03    0.16701E-02   -0.21433E+00  1408   0.393E+00    0.316E-01
DAV:   2    -0.486395120093E+03   -0.66983E-02   -0.48444E-02  1936   0.798E-01    0.891E-01
DAV:   3    -0.486391958930E+03    0.31612E-02   -0.18224E-02  2064   0.670E-01    0.593E-01
DAV:   4    -0.486392334295E+03   -0.37537E-03   -0.74017E-03  1976   0.477E-01    0.504E-01
DAV:   5    -0.486390954798E+03    0.13795E-02   -0.29082E-03  1984   0.358E-01    0.134E-01
DAV:   6    -0.486391762730E+03   -0.80793E-03   -0.24296E-03  1944   0.291E-01    0.342E-01
DAV:   7    -0.486391062337E+03    0.70039E-03   -0.18539E-03  1896   0.260E-01    0.475E-02
DAV:   8    -0.486391110452E+03   -0.48115E-04   -0.16697E-04  1256   0.428E-02    0.216E-02
DAV:   9    -0.486391111862E+03   -0.14100E-05   -0.25204E-05  1160   0.191E-02
  68 F= -.48639111E+03 E0= -.48636727E+03  d E =-.232224E-02
       N       E                     dE             d eps       ncg     rms          rms(c)
DAV:   1    -0.486391712872E+03   -0.60242E-03   -0.65297E-01  1408   0.217E+00    0.166E-01
DAV:   2    -0.486393049481E+03   -0.13366E-02   -0.13027E-02  1864   0.395E-01    0.346E-01
DAV:   3    -0.486392894316E+03    0.15516E-03   -0.38409E-03  2072   0.313E-01    0.339E-01
DAV:   4    -0.486392798451E+03    0.95866E-04   -0.19701E-03  1896   0.236E-01    0.245E-01
DAV:   5    -0.486392528195E+03    0.27026E-03   -0.84560E-04  1592   0.198E-01    0.831E-02
DAV:   6    -0.486392686346E+03   -0.15815E-03   -0.52240E-04  1704   0.121E-01    0.137E-01
DAV:   7    -0.486392553240E+03    0.13311E-03   -0.37503E-04  1360   0.108E-01    0.294E-02
DAV:   8    -0.486392573618E+03   -0.20378E-04   -0.35759E-05  1064   0.287E-02    0.998E-03
DAV:   9    -0.486392574533E+03   -0.91562E-06   -0.64631E-06   976   0.113E-02
  69 F= -.48639257E+03 E0= -.48636881E+03  d E =-.146267E-02
       N       E                     dE             d eps       ncg     rms          rms(c)
DAV:   1    -0.486389587563E+03    0.29861E-02   -0.33032E+00  1408   0.489E+00    0.377E-01
DAV:   2    -0.486397074385E+03   -0.74868E-02   -0.67979E-02  1888   0.929E-01    0.846E-01
DAV:   3    -0.486395502131E+03    0.15723E-02   -0.20046E-02  2064   0.736E-01    0.744E-01
DAV:   4    -0.486395017410E+03    0.48472E-03   -0.94163E-03  1944   0.507E-01    0.517E-01
DAV:   5    -0.486393794775E+03    0.12226E-02   -0.39379E-03  1968   0.425E-01    0.195E-01
DAV:   6    -0.486394345015E+03   -0.55024E-03   -0.22071E-03  1904   0.266E-01    0.280E-01
DAV:   7    -0.486393846842E+03    0.49817E-03   -0.17110E-03  1800   0.234E-01    0.791E-02
DAV:   8    -0.486393876767E+03   -0.29925E-04   -0.19497E-04  1336   0.631E-02    0.210E-02
DAV:   9    -0.486393881182E+03   -0.44157E-05   -0.31827E-05  1216   0.221E-02
  70 F= -.48639388E+03 E0= -.48637025E+03  d E =-.276932E-02
       N       E                     dE             d eps       ncg     rms          rms(c)
DAV:   1    -0.486394224403E+03   -0.34764E-03   -0.76482E-01  1408   0.235E+00    0.175E-01
DAV:   2    -0.486395607126E+03   -0.13827E-02   -0.14595E-02  1880   0.424E-01    0.321E-01
DAV:   3    -0.486395612598E+03   -0.54721E-05   -0.37492E-03  2064   0.344E-01    0.355E-01
DAV:   4    -0.486395548806E+03    0.63792E-04   -0.25366E-03  1920   0.238E-01    0.287E-01
DAV:   5    -0.486395167190E+03    0.38162E-03   -0.13560E-03  1600   0.212E-01    0.843E-02
DAV:   6    -0.486395234829E+03   -0.67639E-04   -0.23683E-04  1736   0.720E-02    0.469E-02
DAV:   7    -0.486395260936E+03   -0.26107E-04   -0.13573E-04  1304   0.744E-02    0.714E-02
DAV:   8    -0.486395223128E+03    0.37808E-04   -0.68161E-05  1104   0.530E-02    0.691E-03
DAV:   9    -0.486395233298E+03   -0.10170E-04   -0.75791E-06   896   0.100E-02    0.535E-03
DAV:  10    -0.486395234144E+03   -0.84611E-06   -0.23845E-06   928   0.667E-03
  71 F= -.48639523E+03 E0= -.48637162E+03  d E =-.135296E-02
       N       E                     dE             d eps       ncg     rms          rms(c)
DAV:   1    -0.486395069052E+03    0.16425E-03   -0.94210E-01  1408   0.261E+00    0.194E-01
DAV:   2    -0.486396865738E+03   -0.17967E-02   -0.18163E-02  1904   0.480E-01    0.390E-01
DAV:   3    -0.486396709946E+03    0.15579E-03   -0.48190E-03  2048   0.379E-01    0.380E-01
DAV:   4    -0.486396622419E+03    0.87527E-04   -0.28799E-03  1944   0.256E-01    0.293E-01
DAV:   5    -0.486396226857E+03    0.39556E-03   -0.15128E-03  1640   0.232E-01    0.964E-02
DAV:   6    -0.486396281750E+03   -0.54892E-04   -0.27470E-04  1768   0.765E-02    0.319E-02
DAV:   7    -0.486396304264E+03   -0.22514E-04   -0.76733E-05  1344   0.522E-02    0.533E-02
DAV:   8    -0.486396282426E+03    0.21838E-04   -0.49762E-05  1096   0.461E-02    0.114E-02
DAV:   9    -0.486396288996E+03   -0.65702E-05   -0.64413E-06   880   0.113E-02
  72 F= -.48639629E+03 E0= -.48637270E+03  d E =-.240781E-02
       N       E                     dE             d eps       ncg     rms          rms(c)
DAV:   1    -0.486392068052E+03    0.42144E-02   -0.37681E+00  1408   0.521E+00    0.390E-01
DAV:   2    -0.486399668196E+03   -0.76001E-02   -0.74006E-02  1880   0.986E-01    0.813E-01
DAV:   3    -0.486398671222E+03    0.99697E-03   -0.19906E-02  2056   0.778E-01    0.752E-01
DAV:   4    -0.486398472006E+03    0.19922E-03   -0.12249E-02  2000   0.513E-01    0.590E-01
DAV:   5    -0.486396811185E+03    0.16608E-02   -0.58862E-03  1992   0.466E-01    0.191E-01
DAV:   6    -0.486396932793E+03   -0.12161E-03   -0.97252E-04  1824   0.150E-01    0.576E-02
DAV:   7    -0.486397064967E+03   -0.13217E-03   -0.40304E-04  1792   0.115E-01    0.127E-01
DAV:   8    -0.486396938089E+03    0.12688E-03   -0.27079E-04  1376   0.986E-02    0.218E-02
DAV:   9    -0.486396960411E+03   -0.22322E-04   -0.29235E-05  1032   0.207E-02    0.108E-02
DAV:  10    -0.486396961941E+03   -0.15299E-05   -0.58794E-06   944   0.102E-02
  73 F= -.48639696E+03 E0= -.48637337E+03  d E =-.308076E-02
[...]
DAV:   9    -0.486530982708E+03   -0.87493E-05   -0.36100E-05  1088   0.222E-02
 118 F= -.48653098E+03 E0= -.48651321E+03  d E =-.807589E-02
       N       E                     dE             d eps       ncg     rms          rms(c)
DAV:   1    -0.486532409855E+03   -0.14359E-02   -0.20717E+00  1472   0.383E+00    0.270E-01
DAV:   2    -0.486535560324E+03   -0.31505E-02   -0.36947E-02  1704   0.594E-01    0.315E-01
DAV:   3    -0.486535993237E+03   -0.43291E-03   -0.82060E-03  2056   0.513E-01    0.414E-01
DAV:   4    -0.486535087501E+03    0.90574E-03   -0.35699E-03  1888   0.351E-01    0.210E-01
DAV:   5    -0.486535058702E+03    0.28799E-04   -0.16552E-03  1968   0.258E-01    0.167E-01
DAV:   6    -0.486535047914E+03    0.10788E-04   -0.89120E-04  1896   0.157E-01    0.131E-01
DAV:   7    -0.486535001318E+03    0.46596E-04   -0.46603E-04  1624   0.158E-01    0.954E-02
DAV:   8    -0.486534961305E+03    0.40014E-04   -0.11785E-04  1256   0.777E-02    0.156E-02
DAV:   9    -0.486534970696E+03   -0.93918E-05   -0.20786E-05  1024   0.187E-02
 119 F= -.48653497E+03 E0= -.48651710E+03  d E =-.398799E-02
       N       E                     dE             d eps       ncg     rms          rms(c)
DAV:   1    -0.486533975117E+03    0.98619E-03   -0.32086E+00  1472   0.477E+00    0.337E-01
DAV:   2    -0.486538853436E+03   -0.48783E-02   -0.57200E-02  1712   0.739E-01    0.391E-01
DAV:   3    -0.486539528282E+03   -0.67485E-03   -0.12780E-02  2064   0.640E-01    0.517E-01
DAV:   4    -0.486538104606E+03    0.14237E-02   -0.56302E-03  1888   0.436E-01    0.261E-01
DAV:   5    -0.486538067118E+03    0.37488E-04   -0.25706E-03  1976   0.320E-01    0.210E-01
DAV:   6    -0.486538045981E+03    0.21137E-04   -0.14060E-03  1920   0.196E-01    0.166E-01
DAV:   7    -0.486537965262E+03    0.80720E-04   -0.74023E-04  1728   0.199E-01    0.119E-01
DAV:   8    -0.486537903087E+03    0.62175E-04   -0.18675E-04  1400   0.953E-02    0.192E-02
DAV:   9    -0.486537914291E+03   -0.11204E-04   -0.29849E-05  1072   0.221E-02    0.111E-02
DAV:  10    -0.486537917512E+03   -0.32204E-05   -0.64619E-06   936   0.149E-02
 120 F= -.48653792E+03 E0= -.48651989E+03  d E =-.693480E-02
       N       E                     dE             d eps       ncg     rms          rms(c)
DAV:   1    -0.486521613788E+03    0.16301E-01   -0.12828E+01  1472   0.953E+00    0.690E-01
DAV:   2    -0.486541343853E+03   -0.19730E-01   -0.22981E-01  1736   0.147E+00    0.773E-01
DAV:   3    -0.486544575121E+03   -0.32313E-02   -0.53070E-02  2072   0.130E+00    0.108E+00
DAV:   4    -0.486538288568E+03    0.62866E-02   -0.25690E-02  1896   0.885E-01    0.536E-01
DAV:   5    -0.486537984021E+03    0.30455E-03   -0.10495E-02  1984   0.641E-01    0.422E-01
DAV:   6    -0.486537847276E+03    0.13675E-03   -0.55848E-03  1944   0.387E-01    0.343E-01
DAV:   7    -0.486537505641E+03    0.34163E-03   -0.32041E-03  2008   0.408E-01    0.247E-01
DAV:   8    -0.486537229982E+03    0.27566E-03   -0.81347E-04  1904   0.195E-01    0.382E-02
DAV:   9    -0.486537257188E+03   -0.27205E-04   -0.11000E-04  1424   0.386E-02    0.209E-02
DAV:  10    -0.486537264908E+03   -0.77201E-05   -0.17728E-05  1064   0.208E-02
 121 F= -.48653726E+03 E0= -.48651891E+03  d E =-.628220E-02
       N       E                     dE             d eps       ncg     rms          rms(c)
DAV:   1    -0.486533121282E+03    0.41359E-02   -0.45263E+00  1472   0.566E+00    0.394E-01
DAV:   2    -0.486540130923E+03   -0.70096E-02   -0.80708E-02  1712   0.893E-01    0.494E-01
DAV:   3    -0.486540801404E+03   -0.67048E-03   -0.18175E-02  2056   0.757E-01    0.573E-01
DAV:   4    -0.486538935671E+03    0.18657E-02   -0.62808E-03  1904   0.505E-01    0.285E-01
DAV:   5    -0.486538977252E+03   -0.41581E-04   -0.35504E-03  2008   0.372E-01    0.265E-01
DAV:   6    -0.486538935942E+03    0.41309E-04   -0.23627E-03  1928   0.257E-01    0.220E-01
DAV:   7    -0.486538757946E+03    0.17800E-03   -0.10847E-03  1904   0.244E-01    0.131E-01
DAV:   8    -0.486538686070E+03    0.71876E-04   -0.25514E-04  1496   0.106E-01    0.265E-02
DAV:   9    -0.486538694963E+03   -0.88925E-05   -0.46166E-05  1176   0.297E-02
 122 F= -.48653869E+03 E0= -.48652056E+03  d E =-.771225E-02
       N       E                     dE             d eps       ncg     rms          rms(c)
DAV:   1    -0.486538446132E+03    0.23994E-03   -0.33168E+00  1472   0.485E+00    0.340E-01
DAV:   2    -0.486544648148E+03   -0.62020E-02   -0.60607E-02  1760   0.784E-01    0.527E-01
DAV:   3    -0.486543360202E+03    0.12879E-02   -0.14847E-02  2040   0.651E-01    0.398E-01
DAV:   4    -0.486542907253E+03    0.45295E-03   -0.43736E-03  1888   0.402E-01    0.319E-01
DAV:   5    -0.486542502693E+03    0.40456E-03   -0.25764E-03  1968   0.353E-01    0.178E-01
DAV:   6    -0.486542514423E+03   -0.11730E-04   -0.97118E-04  1936   0.163E-01    0.113E-01
DAV:   7    -0.486542499198E+03    0.15225E-04   -0.49887E-04  1712   0.145E-01    0.994E-02
DAV:   8    -0.486542450609E+03    0.48589E-04   -0.13180E-04  1208   0.784E-02    0.169E-02
DAV:   9    -0.486542457395E+03   -0.67858E-05   -0.19432E-05   944   0.191E-02
 123 F= -.48654246E+03 E0= -.48652399E+03  d E =-.376243E-02
       N       E                     dE             d eps       ncg     rms          rms(c)
DAV:   1    -0.486532665415E+03    0.97852E-02   -0.10410E+01  1472   0.858E+00    0.612E-01
DAV:   2    -0.486552654151E+03   -0.19989E-01   -0.19158E-01  1736   0.139E+00    0.934E-01
DAV:   3    -0.486548653889E+03    0.40003E-02   -0.48730E-02  2016   0.116E+00    0.723E-01
DAV:   4    -0.486546959176E+03    0.16947E-02   -0.13866E-02  1888   0.725E-01    0.573E-01
DAV:   5    -0.486545636065E+03    0.13231E-02   -0.72452E-03  1992   0.624E-01    0.314E-01
DAV:   6    -0.486545459114E+03    0.17695E-03   -0.21584E-03  1888   0.274E-01    0.142E-01
DAV:   7    -0.486545703296E+03   -0.24418E-03   -0.16232E-03  1952   0.258E-01    0.238E-01
DAV:   8    -0.486545385623E+03    0.31767E-03   -0.82602E-04  1504   0.175E-01    0.339E-02
DAV:   9    -0.486545411237E+03   -0.25614E-04   -0.68134E-05  1112   0.319E-02    0.157E-02
DAV:  10    -0.486545417760E+03   -0.65234E-05   -0.13094E-05   928   0.184E-02
 124 F= -.48654542E+03 E0= -.48652633E+03  d E =-.672280E-02
       N       E                     dE             d eps       ncg     rms          rms(c)
DAV:   1    -0.486546270943E+03   -0.85971E-03   -0.25568E+00  1472   0.426E+00    0.283E-01
DAV:   2    -0.486550078018E+03   -0.38071E-02   -0.44098E-02  1688   0.647E-01    0.316E-01
DAV:   3    -0.486550522741E+03   -0.44472E-03   -0.83075E-03  2056   0.505E-01    0.416E-01
DAV:   4    -0.486549537819E+03    0.98492E-03   -0.36135E-03  1888   0.352E-01    0.198E-01
DAV:   5    -0.486549727014E+03   -0.18919E-03   -0.21891E-03  1992   0.295E-01    0.232E-01
DAV:   6    -0.486549530879E+03    0.19613E-03   -0.12374E-03  1880   0.196E-01    0.147E-01
DAV:   7    -0.486549447559E+03    0.83320E-04   -0.45088E-04  1608   0.148E-01    0.655E-02
DAV:   8    -0.486549444448E+03    0.31111E-05   -0.88562E-05  1184   0.557E-02
 125 F= -.48654944E+03 E0= -.48652998E+03  d E =-.402669E-02
       N       E                     dE             d eps       ncg     rms          rms(c)
DAV:   1    -0.486548112768E+03    0.13348E-02   -0.24747E+00  1472   0.419E+00    0.280E-01
DAV:   2    -0.486551847762E+03   -0.37350E-02   -0.42748E-02  1688   0.638E-01    0.314E-01
DAV:   3    -0.486552268723E+03   -0.42096E-03   -0.81149E-03  2040   0.504E-01    0.410E-01
DAV:   4    -0.486551337989E+03    0.93073E-03   -0.35245E-03  1888   0.349E-01    0.198E-01
DAV:   5    -0.486551506201E+03   -0.16821E-03   -0.21297E-03  1992   0.286E-01    0.225E-01
DAV:   6    -0.486551350262E+03    0.15594E-03   -0.12244E-03  1872   0.193E-01    0.159E-01
DAV:   7    -0.486551238246E+03    0.11202E-03   -0.46177E-04  1632   0.153E-01    0.597E-02
DAV:   8    -0.486551242405E+03   -0.41586E-05   -0.85575E-05  1152   0.525E-02
 126 F= -.48655124E+03 E0= -.48653136E+03  d E =-.582464E-02
       N       E                     dE             d eps       ncg     rms          rms(c)
DAV:   1    -0.486551780703E+03   -0.54246E-03   -0.32303E+00  1472   0.480E+00    0.319E-01
DAV:   2    -0.486556431121E+03   -0.46504E-02   -0.55871E-02  1776   0.761E-01    0.369E-01
DAV:   3    -0.486557388722E+03   -0.95760E-03   -0.10402E-02  2016   0.611E-01    0.539E-01
DAV:   4    -0.486555717207E+03    0.16715E-02   -0.39642E-03  1920   0.419E-01    0.153E-01
DAV:   5    -0.486556614870E+03   -0.89766E-03   -0.25487E-03  1968   0.350E-01    0.367E-01
DAV:   6    -0.486555743746E+03    0.87112E-03   -0.19210E-03  1960   0.326E-01    0.954E-02
DAV:   7    -0.486555851360E+03   -0.10761E-03   -0.66462E-04  1672   0.139E-01    0.118E-01
DAV:   8    -0.486555743648E+03    0.10771E-03   -0.24492E-04  1288   0.860E-02    0.169E-02
DAV:   9    -0.486555760671E+03   -0.17023E-04   -0.25830E-05   992   0.195E-02    0.877E-03
DAV:  10    -0.486555765192E+03   -0.45218E-05   -0.66997E-06   928   0.112E-02
 127 F= -.48655577E+03 E0= -.48653545E+03  d E =-.452279E-02
       N       E                     dE             d eps       ncg     rms          rms(c)
DAV:   1    -0.486555382671E+03    0.37800E-03   -0.11194E+00  1464   0.283E+00    0.187E-01
DAV:   2    -0.486556995319E+03   -0.16126E-02   -0.19432E-02  1792   0.455E-01    0.228E-01
DAV:   3    -0.486557245744E+03   -0.25043E-03   -0.36281E-03  2032   0.358E-01    0.306E-01
DAV:   4    -0.486556717483E+03    0.52826E-03   -0.13043E-03  1880   0.238E-01    0.971E-02
DAV:   5    -0.486557014975E+03   -0.29749E-03   -0.87483E-04  1888   0.213E-01    0.214E-01
DAV:   6    -0.486556737291E+03    0.27768E-03   -0.63986E-04  1728   0.193E-01    0.673E-02
DAV:   7    -0.486556752578E+03   -0.15287E-04   -0.23427E-04  1384   0.815E-02    0.559E-02
DAV:   8    -0.486556731212E+03    0.21366E-04   -0.62546E-05  1120   0.433E-02    0.952E-03
DAV:   9    -0.486556737689E+03   -0.64775E-05   -0.82571E-06   896   0.119E-02
 128 F= -.48655674E+03 E0= -.48653619E+03  d E =-.549528E-02
       N       E                     dE             d eps       ncg     rms          rms(c)
DAV:   1    -0.486556273405E+03    0.45781E-03   -0.35211E+00  1456   0.503E+00    0.328E-01
DAV:   2    -0.486561368995E+03   -0.50956E-02   -0.61016E-02  1752   0.758E-01    0.333E-01
DAV:   3    -0.486562591346E+03   -0.12224E-02   -0.10275E-02  2072   0.618E-01    0.555E-01
DAV:   4    -0.486560684932E+03    0.19064E-02   -0.47775E-03  1912   0.429E-01    0.142E-01
DAV:   5    -0.486561418723E+03   -0.73379E-03   -0.23213E-03  1968   0.264E-01    0.299E-01
DAV:   6    -0.486560749276E+03    0.66945E-03   -0.20916E-03  1944   0.247E-01    0.930E-02
DAV:   7    -0.486560886163E+03   -0.13689E-03   -0.62260E-04  1520   0.155E-01    0.143E-01
DAV:   8    -0.486560765620E+03    0.12054E-03   -0.28484E-04  1400   0.119E-01    0.224E-02
DAV:   9    -0.486560776549E+03   -0.10929E-04   -0.42607E-05  1024   0.227E-02    0.942E-03
DAV:  10    -0.486560780106E+03   -0.35575E-05   -0.78729E-06   920   0.119E-02
 129 F= -.48656078E+03 E0= -.48653971E+03  d E =-.404242E-02
       N       E                     dE             d eps       ncg     rms          rms(c)
DAV:   1    -0.486559888460E+03    0.88809E-03   -0.15852E+00  1456   0.337E+00    0.220E-01
DAV:   2    -0.486562183220E+03   -0.22948E-02   -0.27503E-02  1768   0.512E-01    0.228E-01
DAV:   3    -0.486562684983E+03   -0.50176E-03   -0.46276E-03  2064   0.414E-01    0.365E-01
DAV:   4    -0.486561856907E+03    0.82808E-03   -0.20620E-03  1888   0.284E-01    0.944E-02
DAV:   5    -0.486562228585E+03   -0.37168E-03   -0.11170E-03  1968   0.180E-01    0.210E-01
DAV:   6    -0.486561885603E+03    0.34298E-03   -0.99812E-04  1600   0.168E-01    0.636E-02
DAV:   7    -0.486561951500E+03   -0.65897E-04   -0.27582E-04  1248   0.105E-01    0.913E-02
DAV:   8    -0.486561903483E+03    0.48017E-04   -0.12012E-04  1200   0.789E-02    0.150E-02
DAV:   9    -0.486561910202E+03   -0.67190E-05   -0.19356E-05   952   0.162E-02
 130 F= -.48656191E+03 E0= -.48654048E+03  d E =-.517251E-02
       N       E                     dE             d eps       ncg     rms          rms(c)
DAV:   1    -0.486561693652E+03    0.20983E-03   -0.23076E-01  1456   0.129E+00    0.839E-02
DAV:   2    -0.486562034007E+03   -0.34035E-03   -0.40257E-03  1776   0.198E-01    0.892E-02
DAV:   3    -0.486562102588E+03   -0.68582E-04   -0.64316E-04  1928   0.161E-01    0.137E-01
DAV:   4    -0.486561982126E+03    0.12046E-03   -0.25811E-04  1408   0.108E-01    0.342E-02
DAV:   5    -0.486562020366E+03   -0.38240E-04   -0.11413E-04  1608   0.592E-02    0.669E-02
DAV:   6    -0.486561995307E+03    0.25058E-04   -0.83684E-05  1136   0.616E-02    0.225E-02
DAV:   7    -0.486561999991E+03   -0.46842E-05   -0.20118E-05  1032   0.259E-02
 131 F= -.48656200E+03 E0= -.48654039E+03  d E =-.526230E-02
       N       E                     dE             d eps       ncg     rms          rms(c)
DAV:   1    -0.486559505938E+03    0.24894E-02   -0.46056E+00  1448   0.576E+00    0.416E-01
DAV:   2    -0.486566391990E+03   -0.68861E-02   -0.82630E-02  1712   0.849E-01    0.441E-01
DAV:   3    -0.486568301097E+03   -0.19091E-02   -0.19287E-02  2064   0.735E-01    0.680E-01
DAV:   4    -0.486565306817E+03    0.29943E-02   -0.81347E-03  1920   0.524E-01    0.290E-01
DAV:   5    -0.486565646843E+03   -0.34003E-03   -0.32893E-03  1976   0.400E-01    0.315E-01
DAV:   6    -0.486565508537E+03    0.13831E-03   -0.29009E-03  1920   0.327E-01    0.254E-01
DAV:   7    -0.486565278594E+03    0.22994E-03   -0.18841E-03  1832   0.281E-01    0.137E-01
DAV:   8    -0.486565175018E+03    0.10358E-03   -0.46865E-04  1512   0.115E-01    0.244E-02
DAV:   9    -0.486565190931E+03   -0.15912E-04   -0.53943E-05  1128   0.272E-02    0.135E-02
DAV:  10    -0.486565194380E+03   -0.34487E-05   -0.10818E-05   960   0.184E-02
 132 F= -.48656519E+03 E0= -.48654329E+03  d E =-.319439E-02
       N       E                     dE             d eps       ncg     rms          rms(c)
DAV:   1    -0.486564951201E+03    0.23973E-03   -0.38353E-01  1448   0.166E+00    0.119E-01
DAV:   2    -0.486565545699E+03   -0.59450E-03   -0.69545E-03  1696   0.247E-01    0.138E-01
DAV:   3    -0.486565644552E+03   -0.98854E-04   -0.16505E-03  2024   0.210E-01    0.183E-01
DAV:   4    -0.486565440822E+03    0.20373E-03   -0.64625E-04  1600   0.149E-01    0.952E-02
DAV:   5    -0.486565447137E+03   -0.63151E-05   -0.26604E-04  1384   0.117E-01    0.790E-02
DAV:   6    -0.486565461097E+03   -0.13960E-04   -0.24816E-04  1568   0.942E-02    0.790E-02
DAV:   7    -0.486565434317E+03    0.26780E-04   -0.16282E-04  1216   0.861E-02    0.372E-02
DAV:   8    -0.486565429685E+03    0.46316E-05   -0.35334E-05  1048   0.341E-02
 133 F= -.48656543E+03 E0= -.48654345E+03  d E =-.342969E-02
       N       E                     dE             d eps       ncg     rms          rms(c)
DAV:   1    -0.486565105347E+03    0.32897E-03   -0.27207E+00  1456   0.442E+00    0.308E-01
DAV:   2    -0.486568746729E+03   -0.36414E-02   -0.47933E-02  1720   0.633E-01    0.233E-01
DAV:   3    -0.486569959953E+03   -0.12132E-02   -0.61507E-03  2000   0.491E-01    0.490E-01
DAV:   4    -0.486568489557E+03    0.14704E-02   -0.40436E-03  1952   0.410E-01    0.152E-01
DAV:   5    -0.486568850164E+03   -0.36061E-03   -0.14979E-03  1920   0.208E-01    0.244E-01
DAV:   6    -0.486568631462E+03    0.21870E-03   -0.16493E-03  1816   0.252E-01    0.139E-01
DAV:   7    -0.486568579277E+03    0.52185E-04   -0.43412E-04  1544   0.119E-01    0.517E-02
DAV:   8    -0.486568588630E+03   -0.93529E-05   -0.16796E-04  1336   0.762E-02    0.500E-02
DAV:   9    -0.486568569070E+03    0.19560E-04   -0.64123E-05  1088   0.425E-02    0.882E-03
DAV:  10    -0.486568575106E+03   -0.60355E-05   -0.80450E-06   912   0.111E-02
 134 F= -.48656858E+03 E0= -.48654613E+03  d E =-.314542E-02
       N       E                     dE             d eps       ncg     rms          rms(c)
DAV:   1    -0.486568140810E+03    0.42826E-03   -0.69628E-01  1456   0.224E+00    0.155E-01
DAV:   2    -0.486569075326E+03   -0.93452E-03   -0.12292E-02  1728   0.325E-01    0.123E-01
DAV:   3    -0.486569411456E+03   -0.33613E-03   -0.17445E-03  2016   0.263E-01    0.257E-01
DAV:   4    -0.486568990476E+03    0.42098E-03   -0.10781E-03  1640   0.213E-01    0.729E-02
DAV:   5    -0.486569095956E+03   -0.10548E-03   -0.37929E-04  1752   0.105E-01    0.119E-01
DAV:   6    -0.486569044479E+03    0.51477E-04   -0.40344E-04  1528   0.127E-01    0.731E-02
DAV:   7    -0.486569034049E+03    0.10430E-04   -0.11801E-04  1112   0.652E-02    0.315E-02
DAV:   8    -0.486569033041E+03    0.10079E-05   -0.48392E-05  1144   0.408E-02
 135 F= -.48656903E+03 E0= -.48654642E+03  d E =-.360336E-02
       N       E                     dE             d eps       ncg     rms          rms(c)
DAV:   1    -0.486569296143E+03   -0.26209E-03   -0.18583E+00  1464   0.365E+00    0.249E-01
DAV:   2    -0.486572137890E+03   -0.28417E-02   -0.33426E-02  1888   0.569E-01    0.257E-01
DAV:   3    -0.486572434367E+03   -0.29648E-03   -0.57957E-03  1960   0.374E-01    0.309E-01
DAV:   4    -0.486571682275E+03    0.75209E-03   -0.21974E-03  1912   0.234E-01    0.129E-01
DAV:   5    -0.486572291606E+03   -0.60933E-03   -0.19804E-03  1920   0.274E-01    0.327E-01
DAV:   6    -0.486571721100E+03    0.57051E-03   -0.12876E-03  1744   0.238E-01    0.346E-02
DAV:   7    -0.486571805377E+03   -0.84276E-04   -0.23934E-04  1536   0.800E-02    0.831E-02
DAV:   8    -0.486571763360E+03    0.42017E-04   -0.13181E-04  1208   0.736E-02    0.216E-02
DAV:   9    -0.486571766731E+03   -0.33709E-05   -0.14037E-05   984   0.200E-02
 136 F= -.48657177E+03 E0= -.48654883E+03  d E =-.273369E-02
       N       E                     dE             d eps       ncg     rms          rms(c)
DAV:   1    -0.486569689490E+03    0.20739E-02   -0.25516E+00  1464   0.428E+00    0.292E-01
DAV:   2    -0.486573602984E+03   -0.39135E-02   -0.45957E-02  1880   0.660E-01    0.303E-01
DAV:   3    -0.486573995521E+03   -0.39254E-03   -0.83638E-03  1928   0.425E-01    0.360E-01
DAV:   4    -0.486572957910E+03    0.10376E-02   -0.31876E-03  1920   0.258E-01    0.158E-01
DAV:   5    -0.486573677797E+03   -0.71989E-03   -0.24202E-03  1944   0.318E-01    0.359E-01
DAV:   6    -0.486573007360E+03    0.67044E-03   -0.15364E-03  1848   0.265E-01    0.581E-02
DAV:   7    -0.486573157014E+03   -0.14965E-03   -0.56357E-04  1584   0.142E-01    0.141E-01
DAV:   8    -0.486573042001E+03    0.11501E-03   -0.29020E-04  1352   0.112E-01    0.198E-02
DAV:   9    -0.486573052227E+03   -0.10226E-04   -0.27110E-05  1032   0.196E-02    0.912E-03
DAV:  10    -0.486573055171E+03   -0.29442E-05   -0.54514E-06   928   0.104E-02
 137 F= -.48657306E+03 E0= -.48654977E+03  d E =-.402213E-02
       N       E                     dE             d eps       ncg     rms          rms(c)
DAV:   1    -0.486573498717E+03   -0.44649E-03   -0.16917E+00  1456   0.349E+00    0.247E-01
DAV:   2    -0.486575978906E+03   -0.24802E-02   -0.30364E-02  1688   0.488E-01    0.223E-01
DAV:   3    -0.486576877068E+03   -0.89816E-03   -0.63778E-03  2032   0.415E-01    0.415E-01
DAV:   4    -0.486575679820E+03    0.11972E-02   -0.32833E-03  1920   0.315E-01    0.150E-01
DAV:   5    -0.486576026976E+03   -0.34716E-03   -0.13886E-03  1872   0.250E-01    0.237E-01
DAV:   6    -0.486575781735E+03    0.24524E-03   -0.11541E-03  1800   0.212E-01    0.120E-01
DAV:   7    -0.486575770714E+03    0.11021E-04   -0.57083E-04  1512   0.152E-01    0.903E-02
DAV:   8    -0.486575730812E+03    0.39902E-04   -0.18816E-04  1256   0.778E-02    0.156E-02
DAV:   9    -0.486575737506E+03   -0.66935E-05   -0.25425E-05   984   0.179E-02
 138 F= -.48657574E+03 E0= -.48655240E+03  d E =-.268234E-02
       N       E                     dE             d eps       ncg     rms          rms(c)
