<?xml version="1.0" encoding="ISO-8859-1"?>
<modeling>
 <generator>
  <i name="program" type="string">vasp </i>
  <i name="version" type="string">6.3.2  </i>
  <i name="subversion" type="string">27Jun22 (build May 04 2024 18:40:40) complex                          parallel </i>
  <i name="platform" type="string">LinuxIFC </i>
  <i name="date" type="string">2024 09 03 </i>
  <i name="time" type="string">09:35:08 </i>
 </generator>
 <incar>
  <i type="string" name="SYSTEM">slab_Cel1-OPT</i>
  <i type="int" name="ISTART">     0</i>
  <i type="string" name="PREC">N</i>
  <i type="string" name="ALGO">N</i>
  <i type="int" name="ICHARG">     2</i>
  <i type="int" name="NELM">   200</i>
  <i type="int" name="IBRION">     2</i>
  <i name="EDIFF">      0.00001000</i>
  <i name="EDIFFG">     -0.05000000</i>
  <i type="int" name="NSW">  1000</i>
  <i type="int" name="ISIF">     3</i>
  <i name="ENCUT">    400.00000000</i>
  <i name="POTIM">      0.10000000</i>
  <i type="string" name="LREAL">AUTO</i>
  <i type="int" name="ISMEAR">     0</i>
  <i name="SIGMA">      0.10000000</i>
  <i type="logical" name="LWAVE"> F  </i>
  <i type="logical" name="LCHARG"> F  </i>
  <i type="logical" name="LELF"> F  </i>
  <i type="logical" name="LAECHG"> F  </i>
  <i type="logical" name="LDIPOL"> T  </i>
  <i type="int" name="IDIPOL">     3</i>
 </incar>
 <primitive_cell>
  <structure name="primitive_cell" >
   <crystal>
    <varray name="basis" >
     <v>      13.75970367       0.00000000       0.00000000 </v>
     <v>       0.00000000      11.28669971       0.00000000 </v>
     <v>       0.00000000       0.00000000      15.00000000 </v>
    </varray>
    <i name="volume">   2329.52465126 </i>
    <varray name="rec_basis" >
     <v>       0.07267598       0.00000000       0.00000000 </v>
     <v>       0.00000000       0.08859986       0.00000000 </v>
     <v>       0.00000000       0.00000000       0.06666667 </v>
    </varray>
   </crystal>
   <varray name="positions" >
    <v>       0.07054120       0.38816457       0.22227495 </v>
    <v>       0.98151180       0.21832942       0.16785344 </v>
    <v>       0.22877304       0.39667288       0.18904348 </v>
    <v>       0.82472337       0.57572318       0.18403191 </v>
    <v>       0.14970601       0.24663792       0.12277753 </v>
    <v>       0.90758628       0.38434512       0.21811946 </v>
    <v>       0.56886571       0.39316130       0.23173729 </v>
    <v>       0.47768100       0.22391730       0.18017943 </v>
    <v>       0.73035049       0.39802658       0.19909345 </v>
    <v>       0.31101118       0.58132963       0.17977696 </v>
    <v>       0.64681854       0.25040749       0.13377315 </v>
    <v>       0.40275100       0.39355427       0.22106508 </v>
    <v>       0.81808056       0.88988957       0.05647519 </v>
    <v>       0.73319531       0.72568325       0.12448457 </v>
    <v>       0.97932824       0.89597624       0.07999408 </v>
    <v>       0.06867909       0.07698375       0.09423854 </v>
    <v>       0.90528082       0.74258583       0.14719628 </v>
    <v>       0.65472406       0.89333727       0.07691603 </v>
    <v>       0.31825350       0.89473226       0.05377466 </v>
    <v>       0.22716619       0.72126926       0.10084126 </v>
    <v>       0.47498917       0.90396535       0.09489577 </v>
    <v>       0.56592959       0.08075138       0.11024766 </v>
    <v>       0.38612516       0.76037560       0.16363174 </v>
    <v>       0.15509033       0.88950396       0.05271529 </v>
    <v>       0.98784551       0.43883046       0.24713656 </v>
    <v>       0.89991795       0.26975381       0.19549767 </v>
    <v>       0.15759857       0.43325808       0.24240148 </v>
    <v>       0.14788829       0.14353661       0.08017307 </v>
    <v>       0.98633649       0.10796021       0.13653167 </v>
    <v>       0.22915942       0.31533454       0.12527490 </v>
    <v>       0.06735802       0.28598388       0.16888911 </v>
    <v>       0.82274912       0.45552252       0.21014877 </v>
    <v>       0.48493735       0.44793349       0.25146232 </v>
    <v>       0.39648714       0.27665554       0.20625030 </v>
    <v>       0.65756919       0.43524210       0.25419888 </v>
    <v>       0.64488604       0.14640144       0.09374788 </v>
    <v>       0.48286722       0.11321356       0.15081376 </v>
    <v>       0.72606390       0.31870920       0.13454719 </v>
    <v>       0.56470606       0.29135323       0.18008364 </v>
    <v>       0.31888640       0.46086995       0.20329135 </v>
    <v>       0.73287748       0.94248397       0.03965616 </v>
    <v>       0.64891188       0.78317499       0.11254597 </v>
    <v>       0.90382696       0.93469024       0.03189926 </v>
    <v>       0.90701680       0.63807548       0.18754912 </v>
    <v>       0.73647441       0.61699787       0.15934394 </v>
    <v>       0.98321706       0.81212363       0.14197152 </v>
    <v>       0.81925020       0.78400528       0.10639513 </v>
    <v>       0.56804185       0.96074410       0.08520074 </v>
    <v>       0.23699719       0.94478449       0.02657725 </v>
    <v>       0.14820250       0.77173059       0.06843984 </v>
    <v>       0.40793432       0.93556381       0.03646331 </v>
    <v>       0.38047481       0.65838217       0.20939239 </v>
    <v>       0.23501053       0.60894863       0.12850628 </v>
    <v>       0.46527775       0.83024755       0.16578047 </v>
    <v>       0.31113112       0.79334051       0.10891910 </v>
    <v>       0.06990262       0.95754122       0.06514651 </v>
    <v>       0.57736557       0.77647674       0.24193941 </v>
    <v>       0.65582252       0.60772566       0.29790490 </v>
    <v>       0.48700699       0.61617049       0.29396059 </v>
   </varray>
  </structure>
  <varray name="primitive_index" >
   <v type="int" >        1 </v>
   <v type="int" >        2 </v>
   <v type="int" >        3 </v>
   <v type="int" >        4 </v>
   <v type="int" >        5 </v>
   <v type="int" >        6 </v>
   <v type="int" >        7 </v>
   <v type="int" >        8 </v>
   <v type="int" >        9 </v>
   <v type="int" >       10 </v>
   <v type="int" >       11 </v>
   <v type="int" >       12 </v>
   <v type="int" >       13 </v>
   <v type="int" >       14 </v>
   <v type="int" >       15 </v>
   <v type="int" >       16 </v>
   <v type="int" >       17 </v>
   <v type="int" >       18 </v>
   <v type="int" >       19 </v>
   <v type="int" >       20 </v>
   <v type="int" >       21 </v>
   <v type="int" >       22 </v>
   <v type="int" >       23 </v>
   <v type="int" >       24 </v>
   <v type="int" >       25 </v>
   <v type="int" >       26 </v>
   <v type="int" >       27 </v>
   <v type="int" >       28 </v>
   <v type="int" >       29 </v>
   <v type="int" >       30 </v>
   <v type="int" >       31 </v>
   <v type="int" >       32 </v>
   <v type="int" >       33 </v>
   <v type="int" >       34 </v>
   <v type="int" >       35 </v>
   <v type="int" >       36 </v>
   <v type="int" >       37 </v>
   <v type="int" >       38 </v>
   <v type="int" >       39 </v>
   <v type="int" >       40 </v>
   <v type="int" >       41 </v>
   <v type="int" >       42 </v>
   <v type="int" >       43 </v>
   <v type="int" >       44 </v>
   <v type="int" >       45 </v>
   <v type="int" >       46 </v>
   <v type="int" >       47 </v>
   <v type="int" >       48 </v>
   <v type="int" >       49 </v>
   <v type="int" >       50 </v>
   <v type="int" >       51 </v>
   <v type="int" >       52 </v>
   <v type="int" >       53 </v>
   <v type="int" >       54 </v>
   <v type="int" >       55 </v>
   <v type="int" >       56 </v>
   <v type="int" >       57 </v>
   <v type="int" >       58 </v>
   <v type="int" >       59 </v>
  </varray>
 </primitive_cell>
 <kpoints>
  <generation param="Gamma">
   <v type="int" name="divisions">       2        2        1 </v>
   <v name="usershift">      0.00000000       0.00000000       0.00000000 </v>
   <v name="genvec1">      0.50000000       0.00000000       0.00000000 </v>
   <v name="genvec2">      0.00000000       0.50000000       0.00000000 </v>
   <v name="genvec3">      0.00000000       0.00000000       1.00000000 </v>
   <v name="shift">      0.00000000       0.00000000       0.00000000 </v>
  </generation>
  <varray name="kpointlist" >
   <v>       0.00000000       0.00000000       0.00000000 </v>
   <v>       0.50000000       0.00000000       0.00000000 </v>
   <v>       0.00000000       0.50000000       0.00000000 </v>
   <v>       0.50000000       0.50000000       0.00000000 </v>
  </varray>
  <varray name="weights" >
   <v>       0.25000000 </v>
   <v>       0.25000000 </v>
   <v>       0.25000000 </v>
   <v>       0.25000000 </v>
  </varray>
 </kpoints>
 <parameters>
  <separator name="general" >
   <i type="string" name="SYSTEM">slab_Cel1-OPT</i>
   <i type="logical" name="LCOMPAT"> F  </i>
  </separator>
  <separator name="electronic" >
   <i type="string" name="PREC">n</i>
   <i name="ENMAX">    400.00000000</i>
   <i name="ENAUG">    644.87300000</i>
   <i name="EDIFF">      0.00001000</i>
   <i type="int" name="IALGO">    38</i>
   <i type="int" name="IWAVPR">    11</i>
   <i type="int" name="NBANDS">   176</i>
   <i type="int" name="NBANDSLOW">    -1</i>
   <i type="int" name="NBANDSHIGH">    -1</i>
   <i name="NELECT">    286.00000000</i>
   <i type="int" name="TURBO">     0</i>
   <i type="int" name="IRESTART">     0</i>
   <i type="int" name="NREBOOT">     0</i>
   <i type="int" name="NMIN">     0</i>
   <i name="EREF">      0.00000000</i>
   <separator name="electronic smearing" >
    <i type="int" name="ISMEAR">     0</i>
    <i name="SIGMA">      0.10000000</i>
    <i name="KSPACING">      0.50000000</i>
    <i type="logical" name="KGAMMA"> T  </i>
    <i type="logical" name="KBLOWUP"> T  </i>
   </separator>
   <separator name="electronic projectors" >
    <i type="logical" name="LREAL"> T  </i>
    <v name="ROPT">     -0.00050000     -0.00050000     -0.00050000</v>
    <i type="int" name="LMAXPAW">  -100</i>
    <i type="int" name="LMAXMIX">     2</i>
    <i type="logical" name="NLSPLINE"> F  </i>
   </separator>
   <separator name="electronic startup" >
    <i type="int" name="ISTART">     0</i>
    <i type="int" name="ICHARG">     2</i>
    <i type="int" name="INIWAV">     1</i>
   </separator>
   <separator name="electronic spin" >
    <i type="int" name="ISPIN">     1</i>
    <i type="logical" name="LNONCOLLINEAR"> F  </i>
    <v name="MAGMOM">      1.00000000      1.00000000      1.00000000      1.00000000      1.00000000      1.00000000      1.00000000      1.00000000      1.00000000      1.00000000      1.00000000      1.00000000      1.00000000      1.00000000      1.00000000      1.00000000      1.00000000      1.00000000      1.00000000      1.00000000
      1.00000000      1.00000000      1.00000000      1.00000000      1.00000000      1.00000000      1.00000000      1.00000000      1.00000000      1.00000000      1.00000000      1.00000000      1.00000000      1.00000000      1.00000000      1.00000000      1.00000000      1.00000000      1.00000000      1.00000000
      1.00000000      1.00000000      1.00000000      1.00000000      1.00000000      1.00000000      1.00000000      1.00000000      1.00000000      1.00000000      1.00000000      1.00000000      1.00000000      1.00000000      1.00000000      1.00000000      1.00000000      1.00000000      1.00000000</v>
    <i name="NUPDOWN">     -1.00000000</i>
    <i type="logical" name="LSORBIT"> F  </i>
    <v name="SAXIS">      0.00000000      0.00000000      1.00000000</v>
    <i type="logical" name="LSPIRAL"> F  </i>
    <v name="QSPIRAL">      0.00000000      0.00000000      0.00000000</v>
    <i type="logical" name="LZEROZ"> F  </i>
   </separator>
   <separator name="electronic exchange-correlation" >
    <i type="logical" name="LASPH"> F  </i>
    <i type="logical" name="LMETAGGA"> F  </i>
   </separator>
   <separator name="electronic convergence" >
    <i type="int" name="NELM">   200</i>
    <i type="int" name="NELMDL">    -5</i>
    <i type="int" name="NELMIN">     2</i>
    <i name="ENINI">    400.00000000</i>
    <separator name="electronic convergence detail" >
     <i type="logical" name="LDIAG"> T  </i>
     <i type="logical" name="LSUBROT"> F  </i>
     <i name="WEIMIN">      0.00100000</i>
     <i name="EBREAK">      0.00000001</i>
     <i name="DEPER">      0.30000000</i>
     <i type="int" name="NRMM">     4</i>
     <i name="TIME">      0.40000000</i>
    </separator>
   </separator>
   <separator name="electronic mixer" >
    <i name="AMIX">      0.40000000</i>
    <i name="BMIX">      1.00000000</i>
    <i name="AMIN">      0.10000000</i>
    <i name="AMIX_MAG">      1.60000000</i>
    <i name="BMIX_MAG">      1.00000000</i>
    <separator name="electronic mixer details" >
     <i type="int" name="IMIX">     4</i>
     <i type="logical" name="MIXFIRST"> F  </i>
     <i type="int" name="MAXMIX">   -45</i>
     <i name="WC">    100.00000000</i>
     <i type="int" name="INIMIX">     1</i>
     <i type="int" name="MIXPRE">     1</i>
     <i type="int" name="MREMOVE">     5</i>
    </separator>
   </separator>
   <separator name="electronic dipolcorrection" >
    <i type="logical" name="LDIPOL"> T  </i>
    <i type="logical" name="LMONO"> F  </i>
    <i type="int" name="IDIPOL">     3</i>
    <i name="EPSILON">      1.00000000</i>
    <v name="DIPOL">   -100.00000000   -100.00000000   -100.00000000</v>
    <i name="EFIELD">      0.00000000</i>
   </separator>
  </separator>
  <separator name="grids" >
   <i type="int" name="NGX">    70</i>
   <i type="int" name="NGY">    56</i>
   <i type="int" name="NGZ">    80</i>
   <i type="int" name="NGXF">   140</i>
   <i type="int" name="NGYF">   112</i>
   <i type="int" name="NGZF">   160</i>
   <i type="logical" name="ADDGRID"> F  </i>
  </separator>
  <separator name="ionic" >
   <i type="int" name="NSW">  1000</i>
   <i type="int" name="IBRION">     2</i>
   <i type="int" name="MDALGO">     0</i>
   <i type="int" name="ISIF">     3</i>
   <i name="PSTRESS">      0.00000000</i>
   <i name="EDIFFG">     -0.05000000</i>
   <i type="int" name="NFREE">     1</i>
   <i name="POTIM">      0.10000000</i>
   <i name="SMASS">     -3.00000000</i>
   <i name="SCALEE">      1.00000000</i>
  </separator>
  <separator name="ionic md" >
   <i name="TEBEG">      0.00010000</i>
   <i name="TEEND">      0.00010000</i>
   <i type="int" name="NBLOCK">     1</i>
   <i type="int" name="KBLOCK">  1000</i>
   <i type="int" name="NPACO">   256</i>
   <i name="APACO">     10.00000000</i>
  </separator>
  <separator name="symmetry" >
   <i type="int" name="ISYM">     2</i>
   <i name="SYMPREC">      0.00001000</i>
  </separator>
  <separator name="dos" >
   <i type="int" name="LORBIT">     0</i>
   <v name="RWIGS">     -1.00000000     -1.00000000     -1.00000000</v>
   <i type="int" name="NEDOS">   301</i>
   <i name="EMIN">     10.00000000</i>
   <i name="EMAX">    -10.00000000</i>
   <i name="EFERMI">      0.00000000</i>
  </separator>
  <separator name="writing" >
   <i type="int" name="NWRITE">     2</i>
   <i type="logical" name="LWAVE"> F  </i>
   <i type="logical" name="LDOWNSAMPLE"> F  </i>
   <i type="logical" name="LCHARG"> F  </i>
   <i type="logical" name="LPARD"> F  </i>
   <i type="logical" name="LVTOT"> F  </i>
   <i type="logical" name="LVHAR"> F  </i>
   <i type="logical" name="LELF"> F  </i>
   <i type="logical" name="LOPTICS"> F  </i>
   <v name="STM">      0.00000000      0.00000000      0.00000000      0.00000000      0.00000000      0.00000000      0.00000000</v>
  </separator>
  <separator name="performance" >
   <i type="int" name="NPAR">     4</i>
   <i type="int" name="NSIM">     4</i>
   <i type="int" name="NBLK">    -1</i>
   <i type="logical" name="LPLANE"> T  </i>
   <i type="logical" name="LSCALAPACK"> T  </i>
   <i type="logical" name="LSCAAWARE"> F  </i>
   <i type="logical" name="LSCALU"> F  </i>
   <i type="logical" name="LASYNC"> F  </i>
   <i type="logical" name="LORBITALREAL"> F  </i>
  </separator>
  <separator name="miscellaneous" >
   <i type="int" name="IDIOT">     3</i>
   <i type="int" name="PHON_NSTRUCT">    -1</i>
   <i type="logical" name="LMUSIC"> F  </i>
   <v name="POMASS">     12.01100000     14.00100000     58.69000000</v>
   <v name="DARWINR">      0.00000000      0.00000000      0.00000000</v>
   <v name="DARWINV">      1.00000000      1.00000000      1.00000000</v>
   <i type="logical" name="LCORR"> T  </i>
  </separator>
  <i type="logical" name="GGA_COMPAT"> T  </i>
  <i type="logical" name="LBERRY"> F  </i>
  <i type="int" name="ICORELEVEL">     0</i>
  <i type="logical" name="LDAU"> F  </i>
  <i type="int" name="I_CONSTRAINED_M">     0</i>
  <separator name="electronic exchange-correlation" >
   <i type="string" name="GGA">--</i>
   <i type="int" name="VOSKOWN">     0</i>
   <i type="logical" name="LHFCALC"> F  </i>
   <i type="string" name="PRECFOCK"></i>
   <i type="logical" name="LSYMGRAD"> F  </i>
   <i type="logical" name="LHFONE"> F  </i>
   <i type="logical" name="LRHFCALC"> F  </i>
   <i type="logical" name="LTHOMAS"> F  </i>
   <i type="logical" name="LMODELHF"> F  </i>
   <i type="logical" name="LFOCKACE"> F  </i>
   <i name="ENCUT4O">     -1.00000000</i>
   <i type="int" name="EXXOEP">     0</i>
   <i type="int" name="FOURORBIT">     0</i>
   <i name="AEXX">      0.00000000</i>
   <i name="HFALPHA">      0.00000000</i>
   <i name="MCALPHA">      0.00000000</i>
   <i name="ALDAX">      1.00000000</i>
   <i name="AGGAX">      1.00000000</i>
   <i name="ALDAC">      1.00000000</i>
   <i name="AGGAC">      1.00000000</i>
   <i type="int" name="NKREDX">     1</i>
   <i type="int" name="NKREDY">     1</i>
   <i type="int" name="NKREDZ">     1</i>
   <i type="logical" name="SHIFTRED"> F  </i>
   <i type="logical" name="ODDONLY"> F  </i>
   <i type="logical" name="EVENONLY"> F  </i>
   <i type="int" name="LMAXFOCK">     0</i>
   <i type="int" name="NMAXFOCKAE">     0</i>
   <i type="logical" name="LFOCKAEDFT"> F  </i>
   <i name="HFSCREEN">      0.00000000</i>
   <i name="HFSCREENC">      0.00000000</i>
   <i type="int" name="NBANDSGWLOW">     0</i>
  </separator>
  <separator name="vdW DFT" >
   <i type="logical" name="LUSE_VDW"> F  </i>
   <i name="Zab_VDW">     -0.84910000</i>
   <i name="PARAM1">      0.12340000</i>
   <i name="PARAM2">      1.00000000</i>
   <i name="PARAM3">      0.00000000</i>
  </separator>
  <separator name="model GW" >
   <i type="int" name="MODEL_GW">     0</i>
   <i name="MODEL_EPS0">     23.69008120</i>
   <i name="MODEL_ALPHA">      1.00000000</i>
  </separator>
  <separator name="linear response parameters" >
   <i type="logical" name="LEPSILON"> F  </i>
   <i type="logical" name="LRPA"> F  </i>
   <i type="logical" name="LNABLA"> F  </i>
   <i type="logical" name="LVEL"> F  </i>
   <i name="CSHIFT">      0.10000000</i>
   <i name="OMEGAMAX">     -1.00000000</i>
   <i name="DEG_THRESHOLD">      0.00200000</i>
   <i name="RTIME">     -0.10000000</i>
   <i name="WPLASMAI">      0.00000000</i>
   <v name="DFIELD">      0.00000000      0.00000000      0.00000000</v>
   <v name="WPLASMA">      0.00000000      0.00000000      0.00000000      0.00000000      0.00000000      0.00000000      0.00000000      0.00000000      0.00000000</v>
  </separator>
  <separator name="orbital magnetization" >
   <i type="logical" name="NUCIND"> F  </i>
   <v name="MAGPOS">      0.00000000      0.00000000      0.00000000</v>
   <i type="logical" name="LNICSALL"> T  </i>
   <i type="logical" name="ORBITALMAG"> F  </i>
   <i type="logical" name="LMAGBLOCH"> F  </i>
   <i type="logical" name="LCHIMAG"> F  </i>
   <i type="logical" name="LGAUGE"> T  </i>
   <i type="int" name="MAGATOM">     0</i>
   <v name="MAGDIPOL">      0.00000000      0.00000000      0.00000000</v>
   <v name="AVECCONST">      0.00000000      0.00000000      0.00000000</v>
  </separator>
  <separator name="response functions" >
   <i type="logical" name="LFINITE_TEMPERATURE"> F  </i>
   <i type="logical" name="LADDER"> F  </i>
   <i type="logical" name="LRPAFORCE"> F  </i>
   <i type="logical" name="LFXC"> F  </i>
   <i type="logical" name="LHARTREE"> T  </i>
   <i type="int" name="IBSE">     0</i>
   <v type="int" name="KPOINT">    -1     0     0     0</v>
   <i type="logical" name="LTCTC"> F  </i>
   <i type="logical" name="LTCTE"> F  </i>
   <i type="logical" name="LTETE"> F  </i>
   <i type="logical" name="LTRIPLET"> F  </i>
   <i type="logical" name="LFXCEPS"> F  </i>
   <i type="logical" name="LFXHEG"> F  </i>
   <i type="int" name="NATURALO">     2</i>
   <i type="logical" name="LHOLEGF"> F  </i>
   <i type="logical" name="L2ORDER"> F  </i>
   <i type="logical" name="LDMP1"> F  </i>
   <i type="logical" name="LMP2LT"> F  </i>
   <i type="logical" name="LSMP2LT"> F  </i>
   <i type="logical" name="LGWLF"> F  </i>
   <i name="ENCUTGW">     -2.00000000</i>
   <i name="ENCUTGWSOFT">     -2.00000000</i>
   <i name="ENCUTLF">     -1.00000000</i>
   <i type="logical" name="LESF_SPLINES"> F  </i>
   <i type="int" name="LMAXMP2">    -1</i>
   <i name="SCISSOR">      0.00000000</i>
   <i type="int" name="NOMEGA">     0</i>
   <i type="int" name="NOMEGAR">     0</i>
   <i type="int" name="NBANDSGW">    -1</i>
   <i type="int" name="NBANDSO">    -1</i>
   <i type="int" name="NBANDSV">    -1</i>
   <i type="int" name="NELMGW">     1</i>
   <i type="int" name="NELMHF">     1</i>
   <i type="int" name="DIM">     3</i>
   <i type="int" name="IESPILON">     4</i>
   <i type="int" name="ANTIRES">     0</i>
   <i name="OMEGAMAX">    -30.00000000</i>
   <i name="OMEGAMIN">    -30.00000000</i>
   <i name="OMEGATL">   -200.00000000</i>
   <i type="int" name="OMEGAGRID">     0</i>
   <i name="CSHIFT">     -0.10000000</i>
   <i type="logical" name="LSELFENERGY"> F  </i>
   <i type="logical" name="LSPECTRAL"> F  </i>
   <i type="logical" name="LSPECTRALGW"> F  </i>
   <i type="logical" name="LSINGLES"> F  </i>
   <i type="logical" name="LFERMIGW"> F  </i>
   <i type="logical" name="ODDONLYGW"> F  </i>
   <i type="logical" name="EVENONLYGW"> F  </i>
   <i type="int" name="NKREDLFX">     1</i>
   <i type="int" name="NKREDLFY">     1</i>
   <i type="int" name="NKREDLFZ">     1</i>
   <i type="int" name="MAXMEM">  2800</i>
   <i type="int" name="TELESCOPE">     0</i>
   <i type="int" name="NTAUPAR">    -1</i>
   <i type="int" name="NOMEGAPAR">    -1</i>
   <i name="DAMP_NEWTON">      0.80000001</i>
   <i name="LAMBDA">      1.00000000</i>
  </separator>
  <separator name="External order field" >
   <i name="OFIELD_KAPPA">      0.00000000</i>
   <v name="OFIELD_K">      0.00000000      0.00000000      0.00000000</v>
   <i name="OFIELD_Q6_NEAR">      0.00000000</i>
   <i name="OFIELD_Q6_FAR">      0.00000000</i>
   <i name="OFIELD_A">      0.00000000</i>
  </separator>
  <separator name="optional k-points parameters" >
   <i type="int" name="KPOINTS_OPT_MODE">     1</i>
   <i type="logical" name="LKPOINTS_OPT"> F  </i>
  </separator>
  <separator name="solvation model" >
   <i type="logical" name="LSOL"> F  </i>
  </separator>
 </parameters>
 <atominfo>
  <atoms>      59 </atoms>
  <types>       3 </types>
  <array name="atoms" >
   <dimension dim="1">ion</dimension>
   <field type="string">element</field>
   <field type="int">atomtype</field>
   <set>
    <rc><c>C </c><c>   1</c></rc>
    <rc><c>C </c><c>   1</c></rc>
    <rc><c>C </c><c>   1</c></rc>
    <rc><c>C </c><c>   1</c></rc>
    <rc><c>C </c><c>   1</c></rc>
    <rc><c>C </c><c>   1</c></rc>
    <rc><c>C </c><c>   1</c></rc>
    <rc><c>C </c><c>   1</c></rc>
    <rc><c>C </c><c>   1</c></rc>
    <rc><c>C </c><c>   1</c></rc>
    <rc><c>C </c><c>   1</c></rc>
    <rc><c>C </c><c>   1</c></rc>
    <rc><c>C </c><c>   1</c></rc>
    <rc><c>C </c><c>   1</c></rc>
    <rc><c>C </c><c>   1</c></rc>
    <rc><c>C </c><c>   1</c></rc>
    <rc><c>C </c><c>   1</c></rc>
    <rc><c>C </c><c>   1</c></rc>
    <rc><c>C </c><c>   1</c></rc>
    <rc><c>C </c><c>   1</c></rc>
    <rc><c>C </c><c>   1</c></rc>
    <rc><c>C </c><c>   1</c></rc>
    <rc><c>C </c><c>   1</c></rc>
    <rc><c>C </c><c>   1</c></rc>
    <rc><c>N </c><c>   2</c></rc>
    <rc><c>N </c><c>   2</c></rc>
    <rc><c>N </c><c>   2</c></rc>
    <rc><c>N </c><c>   2</c></rc>
    <rc><c>N </c><c>   2</c></rc>
    <rc><c>N </c><c>   2</c></rc>
    <rc><c>N </c><c>   2</c></rc>
    <rc><c>N </c><c>   2</c></rc>
    <rc><c>N </c><c>   2</c></rc>
    <rc><c>N </c><c>   2</c></rc>
    <rc><c>N </c><c>   2</c></rc>
    <rc><c>N </c><c>   2</c></rc>
    <rc><c>N </c><c>   2</c></rc>
    <rc><c>N </c><c>   2</c></rc>
    <rc><c>N </c><c>   2</c></rc>
    <rc><c>N </c><c>   2</c></rc>
    <rc><c>N </c><c>   2</c></rc>
    <rc><c>N </c><c>   2</c></rc>
    <rc><c>N </c><c>   2</c></rc>
    <rc><c>N </c><c>   2</c></rc>
    <rc><c>N </c><c>   2</c></rc>
    <rc><c>N </c><c>   2</c></rc>
    <rc><c>N </c><c>   2</c></rc>
    <rc><c>N </c><c>   2</c></rc>
    <rc><c>N </c><c>   2</c></rc>
    <rc><c>N </c><c>   2</c></rc>
    <rc><c>N </c><c>   2</c></rc>
    <rc><c>N </c><c>   2</c></rc>
    <rc><c>N </c><c>   2</c></rc>
    <rc><c>N </c><c>   2</c></rc>
    <rc><c>N </c><c>   2</c></rc>
    <rc><c>N </c><c>   2</c></rc>
    <rc><c>Ni</c><c>   3</c></rc>
    <rc><c>Ni</c><c>   3</c></rc>
    <rc><c>Ni</c><c>   3</c></rc>
   </set>
  </array>
  <array name="atomtypes" >
   <dimension dim="1">type</dimension>
   <field type="int">atomspertype</field>
   <field type="string">element</field>
   <field>mass</field>
   <field>valence</field>
   <field type="string">pseudopotential</field>
   <set>
    <rc><c>  24</c><c>C </c><c>     12.01100000</c><c>      4.00000000</c><c>  PAW_PBE C 08Apr2002                   </c></rc>
    <rc><c>  32</c><c>N </c><c>     14.00100000</c><c>      5.00000000</c><c>  PAW_PBE N 08Apr2002                   </c></rc>
    <rc><c>   3</c><c>Ni</c><c>     58.69000000</c><c>     10.00000000</c><c>  PAW_PBE Ni 02Aug2007                  </c></rc>
   </set>
  </array>
 </atominfo>
 <structure name="initialpos" >
  <crystal>
   <varray name="basis" >
    <v>      13.75970367       0.00000000       0.00000000 </v>
    <v>       0.00000000      11.28669971       0.00000000 </v>
    <v>       0.00000000       0.00000000      15.00000000 </v>
   </varray>
   <i name="volume">   2329.52465126 </i>
   <varray name="rec_basis" >
    <v>       0.07267598       0.00000000       0.00000000 </v>
    <v>       0.00000000       0.08859986       0.00000000 </v>
    <v>       0.00000000       0.00000000       0.06666667 </v>
   </varray>
  </crystal>
  <varray name="positions" >
   <v>       0.07054120       0.38816457       0.22227495 </v>
   <v>       0.98151180       0.21832942       0.16785344 </v>
   <v>       0.22877304       0.39667288       0.18904348 </v>
   <v>       0.82472337       0.57572318       0.18403191 </v>
   <v>       0.14970601       0.24663792       0.12277753 </v>
   <v>       0.90758628       0.38434512       0.21811946 </v>
   <v>       0.56886571       0.39316130       0.23173729 </v>
   <v>       0.47768100       0.22391730       0.18017943 </v>
   <v>       0.73035049       0.39802658       0.19909345 </v>
   <v>       0.31101118       0.58132963       0.17977696 </v>
   <v>       0.64681854       0.25040749       0.13377315 </v>
   <v>       0.40275100       0.39355427       0.22106508 </v>
   <v>       0.81808056       0.88988957       0.05647519 </v>
   <v>       0.73319531       0.72568325       0.12448457 </v>
   <v>       0.97932824       0.89597624       0.07999408 </v>
   <v>       0.06867909       0.07698375       0.09423854 </v>
   <v>       0.90528082       0.74258583       0.14719628 </v>
   <v>       0.65472406       0.89333727       0.07691603 </v>
   <v>       0.31825350       0.89473226       0.05377466 </v>
   <v>       0.22716619       0.72126926       0.10084126 </v>
   <v>       0.47498917       0.90396535       0.09489577 </v>
   <v>       0.56592959       0.08075138       0.11024766 </v>
   <v>       0.38612516       0.76037560       0.16363174 </v>
   <v>       0.15509033       0.88950396       0.05271529 </v>
   <v>       0.98784551       0.43883046       0.24713656 </v>
   <v>       0.89991795       0.26975381       0.19549767 </v>
   <v>       0.15759857       0.43325808       0.24240148 </v>
   <v>       0.14788829       0.14353661       0.08017307 </v>
   <v>       0.98633649       0.10796021       0.13653167 </v>
   <v>       0.22915942       0.31533454       0.12527490 </v>
   <v>       0.06735802       0.28598388       0.16888911 </v>
   <v>       0.82274912       0.45552252       0.21014877 </v>
   <v>       0.48493735       0.44793349       0.25146232 </v>
   <v>       0.39648714       0.27665554       0.20625030 </v>
   <v>       0.65756919       0.43524210       0.25419888 </v>
   <v>       0.64488604       0.14640144       0.09374788 </v>
   <v>       0.48286722       0.11321356       0.15081376 </v>
   <v>       0.72606390       0.31870920       0.13454719 </v>
   <v>       0.56470606       0.29135323       0.18008364 </v>
   <v>       0.31888640       0.46086995       0.20329135 </v>
   <v>       0.73287748       0.94248397       0.03965616 </v>
   <v>       0.64891188       0.78317499       0.11254597 </v>
   <v>       0.90382696       0.93469024       0.03189926 </v>
   <v>       0.90701680       0.63807548       0.18754912 </v>
   <v>       0.73647441       0.61699787       0.15934394 </v>
   <v>       0.98321706       0.81212363       0.14197152 </v>
   <v>       0.81925020       0.78400528       0.10639513 </v>
   <v>       0.56804185       0.96074410       0.08520074 </v>
   <v>       0.23699719       0.94478449       0.02657725 </v>
   <v>       0.14820250       0.77173059       0.06843984 </v>
   <v>       0.40793432       0.93556381       0.03646331 </v>
   <v>       0.38047481       0.65838217       0.20939239 </v>
   <v>       0.23501053       0.60894863       0.12850628 </v>
   <v>       0.46527775       0.83024755       0.16578047 </v>
   <v>       0.31113112       0.79334051       0.10891910 </v>
   <v>       0.06990262       0.95754122       0.06514651 </v>
   <v>       0.57736557       0.77647674       0.24193941 </v>
   <v>       0.65582252       0.60772566       0.29790490 </v>
   <v>       0.48700699       0.61617049       0.29396059 </v>
  </varray>
 </structure>
 <calculation>
  <scstep>
   <time name="dav">    1.64    1.64</time>
   <time name="total">    1.67    1.68</time>
   <dipole>
    <v name="dipole">      0.00000000       0.00000000      -0.00001818 </v>
    <i name="Tr[quadrupol]">  -8014.54281030 </i>
    <i name="Echarged">      0.00000000 </i>
    <i name="Edipol_quadrupol">      0.00000000 </i>
    <i name="Eion">      0.00000000 </i>
   </dipole>
   <energy>
    <i name="alphaZ">    163.95590030 </i>
    <i name="ewald">  28505.50458751 </i>
    <i name="hartreedc"> -41073.49628501 </i>
    <i name="XCdc">   1048.20165338 </i>
    <i name="pawpsdc">  12051.21270649 </i>
    <i name="pawaedc"> -12303.53990104 </i>
    <i name="eentropy">     -0.08434424 </i>
    <i name="bandstr">   -986.21049982 </i>
    <i name="atom">  15227.24496155 </i>
    <i name="e_fr_energy">   2632.78877912 </i>
    <i name="e_wo_entrp">   2632.87312336 </i>
    <i name="e_0_energy">   2632.83095124 </i>
   </energy>
  </scstep>
  <scstep>
   <time name="dav">    1.89    1.90</time>
   <time name="total">    1.89    1.90</time>
   <dipole>
    <v name="dipole">      0.00000000       0.00000000      -0.00001818 </v>
    <i name="Tr[quadrupol]">  -8014.54281030 </i>
    <i name="Echarged">      0.00000000 </i>
    <i name="Edipol_quadrupol">      0.00000000 </i>
    <i name="Eion">      0.00000000 </i>
   </dipole>
   <energy>
    <i name="e_fr_energy">     20.56500890 </i>
    <i name="e_wo_entrp">     20.56500923 </i>
    <i name="e_0_energy">     20.56500906 </i>
   </energy>
  </scstep>
  <scstep>
   <time name="dav">    1.65    1.66</time>
   <time name="total">    1.66    1.66</time>
   <dipole>
    <v name="dipole">      0.00000000       0.00000000      -0.00001818 </v>
    <i name="Tr[quadrupol]">  -8014.54281030 </i>
    <i name="Echarged">      0.00000000 </i>
    <i name="Edipol_quadrupol">      0.00000000 </i>
    <i name="Eion">      0.00000000 </i>
   </dipole>
   <energy>
    <i name="e_fr_energy">   -504.59836823 </i>
    <i name="e_wo_entrp">   -504.41370439 </i>
    <i name="e_0_energy">   -504.50603631 </i>
   </energy>
  </scstep>
  <scstep>
   <time name="dav">    1.69    1.69</time>
   <time name="total">    1.69    1.69</time>
   <dipole>
    <v name="dipole">      0.00000000       0.00000000      -0.00001818 </v>
    <i name="Tr[quadrupol]">  -8014.54281030 </i>
    <i name="Echarged">      0.00000000 </i>
    <i name="Edipol_quadrupol">      0.00000000 </i>
    <i name="Eion">      0.00000000 </i>
   </dipole>
   <energy>
    <i name="e_fr_energy">   -528.75293824 </i>
    <i name="e_wo_entrp">   -528.63373637 </i>
    <i name="e_0_energy">   -528.69333731 </i>
   </energy>
  </scstep>
  <scstep>
   <time name="dav">    1.96    1.96</time>
   <time name="total">    2.01    2.01</time>
   <dipole>
    <v name="dipole">      0.00000000       0.00000000      -0.00001818 </v>
    <i name="Tr[quadrupol]">  -8014.54281030 </i>
    <i name="Echarged">      0.00000000 </i>
    <i name="Edipol_quadrupol">      0.00000000 </i>
    <i name="Eion">      0.00000000 </i>
   </dipole>
   <energy>
    <i name="e_fr_energy">   -530.10449025 </i>
    <i name="e_wo_entrp">   -529.98541111 </i>
    <i name="e_0_energy">   -530.04495068 </i>
   </energy>
  </scstep>
  <scstep>
   <time name="dav">    1.93    1.94</time>
   <time name="total">    2.01    2.01</time>
   <dipole>
    <v name="dipole">      0.00000000       0.00000000      -2.29333338 </v>
    <i name="Tr[quadrupol]">  -8018.34716041 </i>
    <i name="Echarged">      0.00000000 </i>
    <i name="Edipol_quadrupol">      0.00000000 </i>
    <i name="Eion">      0.00000000 </i>
   </dipole>
   <energy>
    <i name="e_fr_energy">   -765.92690637 </i>
    <i name="e_wo_entrp">   -765.82268114 </i>
    <i name="e_0_energy">   -765.87479375 </i>
   </energy>
  </scstep>
  <scstep>
   <time name="dav">    1.55    1.55</time>
   <time name="total">    1.63    1.63</time>
   <dipole>
    <v name="dipole">      0.00000000       0.00000000      -1.59453470 </v>
    <i name="Tr[quadrupol]">  -8017.90887790 </i>
    <i name="Echarged">      0.00000000 </i>
    <i name="Edipol_quadrupol">      0.00000000 </i>
    <i name="Eion">      0.00000000 </i>
   </dipole>
   <energy>
    <i name="e_fr_energy">   -672.30430304 </i>
    <i name="e_wo_entrp">   -672.22516735 </i>
    <i name="e_0_energy">   -672.26473519 </i>
   </energy>
  </scstep>
  <scstep>
   <time name="dav">    1.99    2.00</time>
   <time name="total">    2.08    2.09</time>
   <dipole>
    <v name="dipole">      0.00000000       0.00000000      -0.87944318 </v>
    <i name="Tr[quadrupol]">  -8016.93078973 </i>
    <i name="Echarged">      0.00000000 </i>
    <i name="Edipol_quadrupol">      0.00000000 </i>
    <i name="Eion">      0.00000000 </i>
   </dipole>
   <energy>
    <i name="e_fr_energy">   -517.17931088 </i>
    <i name="e_wo_entrp">   -517.17866834 </i>
    <i name="e_0_energy">   -517.17898961 </i>
   </energy>
  </scstep>
  <scstep>
   <time name="dav">    1.83    1.84</time>
   <time name="total">    1.90    1.92</time>
   <dipole>
    <v name="dipole">      0.00000000       0.00000000      -0.68317799 </v>
    <i name="Tr[quadrupol]">  -8017.12543702 </i>
    <i name="Echarged">      0.00000000 </i>
    <i name="Edipol_quadrupol">      0.00000000 </i>
    <i name="Eion">      0.00000000 </i>
   </dipole>
   <energy>
    <i name="e_fr_energy">   -493.70375348 </i>
    <i name="e_wo_entrp">   -493.63327723 </i>
    <i name="e_0_energy">   -493.66851536 </i>
   </energy>
  </scstep>
  <scstep>
   <time name="dav">    1.93    1.94</time>
   <time name="total">    2.01    2.01</time>
   <dipole>
    <v name="dipole">      0.00000000       0.00000000      -0.49557015 </v>
    <i name="Tr[quadrupol]">  -8016.96261491 </i>
    <i name="Echarged">      0.00000000 </i>
    <i name="Edipol_quadrupol">      0.00000000 </i>
    <i name="Eion">      0.00000000 </i>
   </dipole>
   <energy>
    <i name="e_fr_energy">   -487.42997362 </i>
    <i name="e_wo_entrp">   -487.42997305 </i>
    <i name="e_0_energy">   -487.42997334 </i>
   </energy>
  </scstep>
  <scstep>
   <time name="dav">    1.84    1.84</time>
   <time name="total">    1.92    1.92</time>
   <dipole>
    <v name="dipole">      0.00000000       0.00000000      -0.17487740 </v>
    <i name="Tr[quadrupol]">  -8017.11901705 </i>
    <i name="Echarged">      0.00000000 </i>
    <i name="Edipol_quadrupol">      0.00000000 </i>
    <i name="Eion">      0.00000000 </i>
   </dipole>
   <energy>
    <i name="e_fr_energy">   -486.62232235 </i>
    <i name="e_wo_entrp">   -486.41867313 </i>
    <i name="e_0_energy">   -486.52049774 </i>
   </energy>
  </scstep>
  <scstep>
   <time name="dav">    1.88    1.89</time>
   <time name="total">    1.96    1.96</time>
   <dipole>
    <v name="dipole">      0.00000000       0.00000000      -0.29911687 </v>
    <i name="Tr[quadrupol]">  -8017.61294945 </i>
    <i name="Echarged">      0.00000000 </i>
    <i name="Edipol_quadrupol">      0.00000000 </i>
    <i name="Eion">      0.00000000 </i>
   </dipole>
   <energy>
    <i name="e_fr_energy">   -488.45309257 </i>
    <i name="e_wo_entrp">   -488.34692941 </i>
    <i name="e_0_energy">   -488.40001099 </i>
   </energy>
  </scstep>
  <scstep>
   <time name="dav">    1.88    1.88</time>
   <time name="total">    1.96    1.96</time>
   <dipole>
    <v name="dipole">      0.00000000       0.00000000      -0.29063444 </v>
    <i name="Tr[quadrupol]">  -8017.79677707 </i>
    <i name="Echarged">      0.00000000 </i>
    <i name="Edipol_quadrupol">      0.00000000 </i>
    <i name="Eion">      0.00000000 </i>
   </dipole>
   <energy>
    <i name="e_fr_energy">   -487.08017380 </i>
    <i name="e_wo_entrp">   -487.06889792 </i>
    <i name="e_0_energy">   -487.07453586 </i>
   </energy>
  </scstep>
  <scstep>
   <time name="dav">    1.87    1.88</time>
   <time name="total">    1.95    1.96</time>
   <dipole>
    <v name="dipole">      0.00000000       0.00000000      -0.26959298 </v>
    <i name="Tr[quadrupol]">  -8017.96405450 </i>
    <i name="Echarged">      0.00000000 </i>
    <i name="Edipol_quadrupol">      0.00000000 </i>
    <i name="Eion">      0.00000000 </i>
   </dipole>
   <energy>
    <i name="e_fr_energy">   -486.93555912 </i>
    <i name="e_wo_entrp">   -486.91709067 </i>
    <i name="e_0_energy">   -486.92632489 </i>
   </energy>
  </scstep>
  <scstep>
   <time name="dav">    1.92    1.92</time>
   <time name="total">    2.00    2.00</time>
   <dipole>
    <v name="dipole">      0.00000000       0.00000000      -0.21202614 </v>
    <i name="Tr[quadrupol]">  -8018.17605605 </i>
    <i name="Echarged">      0.00000000 </i>
    <i name="Edipol_quadrupol">      0.00000000 </i>
    <i name="Eion">      0.00000000 </i>
   </dipole>
   <energy>
    <i name="e_fr_energy">   -485.90695659 </i>
    <i name="e_wo_entrp">   -485.89321575 </i>
    <i name="e_0_energy">   -485.90008617 </i>
   </energy>
  </scstep>
  <scstep>
   <time name="dav">    1.93    1.93</time>
   <time name="total">    2.01    2.01</time>
   <dipole>
    <v name="dipole">      0.00000000       0.00000000      -0.18229648 </v>
    <i name="Tr[quadrupol]">  -8018.31615458 </i>
    <i name="Echarged">      0.00000000 </i>
    <i name="Edipol_quadrupol">      0.00000000 </i>
    <i name="Eion">      0.00000000 </i>
   </dipole>
   <energy>
    <i name="e_fr_energy">   -485.65393992 </i>
    <i name="e_wo_entrp">   -485.63041629 </i>
    <i name="e_0_energy">   -485.64217810 </i>
   </energy>
  </scstep>
  <scstep>
   <time name="dav">    1.98    1.98</time>
   <time name="total">    2.05    2.05</time>
   <dipole>
    <v name="dipole">      0.00000000       0.00000000      -0.14500581 </v>
    <i name="Tr[quadrupol]">  -8018.48190090 </i>
    <i name="Echarged">      0.00000000 </i>
    <i name="Edipol_quadrupol">      0.00000000 </i>
    <i name="Eion">      0.00000000 </i>
   </dipole>
   <energy>
    <i name="e_fr_energy">   -485.48223143 </i>
    <i name="e_wo_entrp">   -485.42351889 </i>
    <i name="e_0_energy">   -485.45287516 </i>
   </energy>
  </scstep>
  <scstep>
   <time name="dav">    1.85    1.86</time>
   <time name="total">    1.93    1.93</time>
   <dipole>
    <v name="dipole">      0.00000000       0.00000000      -0.13021266 </v>
    <i name="Tr[quadrupol]">  -8018.62752583 </i>
    <i name="Echarged">      0.00000000 </i>
    <i name="Edipol_quadrupol">      0.00000000 </i>
    <i name="Eion">      0.00000000 </i>
   </dipole>
   <energy>
    <i name="e_fr_energy">   -485.45545090 </i>
    <i name="e_wo_entrp">   -485.38825929 </i>
    <i name="e_0_energy">   -485.42185509 </i>
   </energy>
  </scstep>
  <scstep>
   <time name="dav">    1.78    1.79</time>
   <time name="total">    1.85    1.86</time>
   <dipole>
    <v name="dipole">      0.00000000       0.00000000      -0.11049730 </v>
    <i name="Tr[quadrupol]">  -8018.89357399 </i>
    <i name="Echarged">      0.00000000 </i>
    <i name="Edipol_quadrupol">      0.00000000 </i>
    <i name="Eion">      0.00000000 </i>
   </dipole>
   <energy>
    <i name="e_fr_energy">   -485.46602927 </i>
    <i name="e_wo_entrp">   -485.37949164 </i>
    <i name="e_0_energy">   -485.42276046 </i>
   </energy>
  </scstep>
  <scstep>
   <time name="dav">    1.86    1.86</time>
   <time name="total">    1.94    1.94</time>
   <dipole>
    <v name="dipole">      0.00000000       0.00000000      -0.09511862 </v>
    <i name="Tr[quadrupol]">  -8019.10684861 </i>
    <i name="Echarged">      0.00000000 </i>
    <i name="Edipol_quadrupol">      0.00000000 </i>
    <i name="Eion">      0.00000000 </i>
   </dipole>
   <energy>
    <i name="e_fr_energy">   -485.46130729 </i>
    <i name="e_wo_entrp">   -485.39721824 </i>
    <i name="e_0_energy">   -485.42926276 </i>
   </energy>
  </scstep>
  <scstep>
   <time name="dav">    1.87    1.87</time>
   <time name="total">    1.95    1.95</time>
   <dipole>
    <v name="dipole">      0.00000000       0.00000000      -0.08571311 </v>
    <i name="Tr[quadrupol]">  -8019.22539019 </i>
    <i name="Echarged">      0.00000000 </i>
    <i name="Edipol_quadrupol">      0.00000000 </i>
    <i name="Eion">      0.00000000 </i>
   </dipole>
   <energy>
    <i name="e_fr_energy">   -485.45076368 </i>
    <i name="e_wo_entrp">   -485.35093656 </i>
    <i name="e_0_energy">   -485.40085012 </i>
   </energy>
  </scstep>
  <scstep>
   <time name="dav">    1.78    1.78</time>
   <time name="total">    1.87    1.87</time>
   <dipole>
    <v name="dipole">      0.00000000       0.00000000      -0.08224701 </v>
    <i name="Tr[quadrupol]">  -8019.31233916 </i>
    <i name="Echarged">      0.00000000 </i>
    <i name="Edipol_quadrupol">      0.00000000 </i>
    <i name="Eion">      0.00000000 </i>
   </dipole>
   <energy>
    <i name="e_fr_energy">   -485.45201686 </i>
    <i name="e_wo_entrp">   -485.35671081 </i>
    <i name="e_0_energy">   -485.40436383 </i>
   </energy>
  </scstep>
  <scstep>
   <time name="dav">    1.86    1.86</time>
   <time name="total">    1.94    1.95</time>
   <dipole>
    <v name="dipole">      0.00000000       0.00000000      -0.07587283 </v>
    <i name="Tr[quadrupol]">  -8019.45281572 </i>
    <i name="Echarged">      0.00000000 </i>
    <i name="Edipol_quadrupol">      0.00000000 </i>
    <i name="Eion">      0.00000000 </i>
   </dipole>
   <energy>
    <i name="e_fr_energy">   -485.45484569 </i>
    <i name="e_wo_entrp">   -485.37345306 </i>
    <i name="e_0_energy">   -485.41414938 </i>
   </energy>
  </scstep>
  <scstep>
   <time name="dav">    1.77    1.78</time>
   <time name="total">    1.85    1.86</time>
   <dipole>
    <v name="dipole">      0.00000000       0.00000000      -0.05794473 </v>
    <i name="Tr[quadrupol]">  -8019.70613890 </i>
    <i name="Echarged">      0.00000000 </i>
    <i name="Edipol_quadrupol">      0.00000000 </i>
    <i name="Eion">      0.00000000 </i>
   </dipole>
   <energy>
    <i name="e_fr_energy">   -485.45736227 </i>
    <i name="e_wo_entrp">   -485.36447441 </i>
    <i name="e_0_energy">   -485.41091834 </i>
   </energy>
  </scstep>
  <scstep>
   <time name="dav">    1.80    1.80</time>
   <time name="total">    1.87    1.87</time>
   <dipole>
    <v name="dipole">      0.00000000       0.00000000      -0.04724063 </v>
    <i name="Tr[quadrupol]">  -8019.90960581 </i>
    <i name="Echarged">      0.00000000 </i>
    <i name="Edipol_quadrupol">      0.00000000 </i>
    <i name="Eion">      0.00000000 </i>
   </dipole>
   <energy>
    <i name="e_fr_energy">   -485.46095647 </i>
    <i name="e_wo_entrp">   -485.37597542 </i>
    <i name="e_0_energy">   -485.41846594 </i>
   </energy>
  </scstep>
  <scstep>
   <time name="dav">    1.81    1.81</time>
   <time name="total">    1.88    1.88</time>
   <dipole>
    <v name="dipole">      0.00000000       0.00000000      -0.03813033 </v>
    <i name="Tr[quadrupol]">  -8020.05649158 </i>
    <i name="Echarged">      0.00000000 </i>
    <i name="Edipol_quadrupol">      0.00000000 </i>
    <i name="Eion">      0.00000000 </i>
   </dipole>
   <energy>
    <i name="e_fr_energy">   -485.46289241 </i>
    <i name="e_wo_entrp">   -485.37094533 </i>
    <i name="e_0_energy">   -485.41691887 </i>
   </energy>
  </scstep>
  <scstep>
   <time name="dav">    1.75    1.75</time>
   <time name="total">    1.82    1.82</time>
   <dipole>
    <v name="dipole">      0.00000000       0.00000000      -0.03281726 </v>
    <i name="Tr[quadrupol]">  -8020.24069935 </i>
    <i name="Echarged">      0.00000000 </i>
    <i name="Edipol_quadrupol">      0.00000000 </i>
    <i name="Eion">      0.00000000 </i>
   </dipole>
   <energy>
    <i name="e_fr_energy">   -485.46566027 </i>
    <i name="e_wo_entrp">   -485.37400170 </i>
    <i name="e_0_energy">   -485.41983099 </i>
   </energy>
  </scstep>
  <scstep>
   <time name="dav">    1.49    1.49</time>
   <time name="total">    1.57    1.57</time>
   <dipole>
    <v name="dipole">      0.00000000       0.00000000      -0.03014864 </v>
    <i name="Tr[quadrupol]">  -8020.35660474 </i>
    <i name="Echarged">      0.00000000 </i>
    <i name="Edipol_quadrupol">      0.00000000 </i>
    <i name="Eion">      0.00000000 </i>
   </dipole>
   <energy>
    <i name="e_fr_energy">   -485.46696973 </i>
    <i name="e_wo_entrp">   -485.37563778 </i>
    <i name="e_0_energy">   -485.42130376 </i>
   </energy>
  </scstep>
  <scstep>
   <time name="dav">    1.60    1.60</time>
   <time name="total">    1.67    1.67</time>
   <dipole>
    <v name="dipole">      0.00000000       0.00000000      -0.00862971 </v>
    <i name="Tr[quadrupol]">  -8020.43067491 </i>
    <i name="Echarged">      0.00000000 </i>
    <i name="Edipol_quadrupol">      0.00000000 </i>
    <i name="Eion">      0.00000000 </i>
   </dipole>
   <energy>
    <i name="e_fr_energy">   -485.46802121 </i>
    <i name="e_wo_entrp">   -485.37333392 </i>
    <i name="e_0_energy">   -485.42067756 </i>
   </energy>
  </scstep>
  <scstep>
   <time name="dav">    1.37    1.38</time>
   <time name="total">    1.46    1.48</time>
   <dipole>
    <v name="dipole">      0.00000000       0.00000000      -0.00266944 </v>
    <i name="Tr[quadrupol]">  -8020.44206089 </i>
    <i name="Echarged">      0.00000000 </i>
    <i name="Edipol_quadrupol">      0.00000000 </i>
    <i name="Eion">      0.00000000 </i>
   </dipole>
   <energy>
    <i name="e_fr_energy">   -485.46810687 </i>
    <i name="e_wo_entrp">   -485.37454275 </i>
    <i name="e_0_energy">   -485.42132481 </i>
   </energy>
  </scstep>
  <scstep>
   <time name="dav">    1.12    1.12</time>
   <time name="total">    1.20    1.20</time>
   <dipole>
    <v name="dipole">      0.00000000       0.00000000      -0.00149641 </v>
    <i name="Tr[quadrupol]">  -8020.45644245 </i>
    <i name="Echarged">      0.00000000 </i>
    <i name="Edipol_quadrupol">      0.00000000 </i>
    <i name="Eion">      0.00000000 </i>
   </dipole>
   <energy>
    <i name="e_fr_energy">   -485.46826782 </i>
    <i name="e_wo_entrp">   -485.37508685 </i>
    <i name="e_0_energy">   -485.42167734 </i>
   </energy>
  </scstep>
  <scstep>
   <time name="dav">    1.61    1.61</time>
   <time name="total">    1.69    1.69</time>
   <dipole>
    <v name="dipole">      0.00000000       0.00000000      -0.01043892 </v>
    <i name="Tr[quadrupol]">  -8020.50963763 </i>
    <i name="Echarged">      0.00000000 </i>
    <i name="Edipol_quadrupol">      0.00000000 </i>
    <i name="Eion">      0.00000000 </i>
   </dipole>
   <energy>
    <i name="e_fr_energy">   -485.46869747 </i>
    <i name="e_wo_entrp">   -485.37878267 </i>
    <i name="e_0_energy">   -485.42374007 </i>
   </energy>
  </scstep>
  <scstep>
   <time name="dav">    1.29    1.29</time>
   <time name="total">    1.37    1.37</time>
   <dipole>
    <v name="dipole">      0.00000000       0.00000000      -0.01272552 </v>
    <i name="Tr[quadrupol]">  -8020.52907753 </i>
    <i name="Echarged">      0.00000000 </i>
    <i name="Edipol_quadrupol">      0.00000000 </i>
    <i name="Eion">      0.00000000 </i>
   </dipole>
   <energy>
    <i name="e_fr_energy">   -485.46878922 </i>
    <i name="e_wo_entrp">   -485.37801392 </i>
    <i name="e_0_energy">   -485.42340157 </i>
   </energy>
  </scstep>
  <scstep>
   <time name="dav">    1.15    1.15</time>
   <time name="total">    1.23    1.23</time>
   <dipole>
    <v name="dipole">      0.00000000       0.00000000      -0.01521641 </v>
    <i name="Tr[quadrupol]">  -8020.54790927 </i>
    <i name="Echarged">      0.00000000 </i>
    <i name="Edipol_quadrupol">      0.00000000 </i>
    <i name="Eion">      0.00000000 </i>
   </dipole>
   <energy>
    <i name="e_fr_energy">   -485.46889845 </i>
    <i name="e_wo_entrp">   -485.37777886 </i>
    <i name="e_0_energy">   -485.42333865 </i>
   </energy>
  </scstep>
  <scstep>
   <time name="dav">    1.13    1.13</time>
   <time name="total">    1.21    1.21</time>
   <dipole>
    <v name="dipole">      0.00000000       0.00000000      -0.01759019 </v>
    <i name="Tr[quadrupol]">  -8020.56507260 </i>
    <i name="Echarged">      0.00000000 </i>
    <i name="Edipol_quadrupol">      0.00000000 </i>
    <i name="Eion">      0.00000000 </i>
   </dipole>
   <energy>
    <i name="e_fr_energy">   -485.46899516 </i>
    <i name="e_wo_entrp">   -485.37756766 </i>
    <i name="e_0_energy">   -485.42328141 </i>
   </energy>
  </scstep>
  <scstep>
   <time name="dav">    1.11    1.11</time>
   <time name="total">    1.19    1.19</time>
   <dipole>
    <v name="dipole">      0.00000000       0.00000000      -0.01918867 </v>
    <i name="Tr[quadrupol]">  -8020.57522954 </i>
    <i name="Echarged">      0.00000000 </i>
    <i name="Edipol_quadrupol">      0.00000000 </i>
    <i name="Eion">      0.00000000 </i>
   </dipole>
   <energy>
    <i name="e_fr_energy">   -485.46903586 </i>
    <i name="e_wo_entrp">   -485.37763472 </i>
    <i name="e_0_energy">   -485.42333529 </i>
   </energy>
  </scstep>
  <scstep>
   <time name="dav">    1.08    1.09</time>
   <time name="total">    1.17    1.18</time>
   <dipole>
    <v name="dipole">      0.00000000       0.00000000      -0.02050910 </v>
    <i name="Tr[quadrupol]">  -8020.58628642 </i>
    <i name="Echarged">      0.00000000 </i>
    <i name="Edipol_quadrupol">      0.00000000 </i>
    <i name="Eion">      0.00000000 </i>
   </dipole>
   <energy>
    <i name="e_fr_energy">   -485.46907344 </i>
    <i name="e_wo_entrp">   -485.37776095 </i>
    <i name="e_0_energy">   -485.42341720 </i>
   </energy>
  </scstep>
  <scstep>
   <time name="dav">    1.11    1.11</time>
   <time name="total">    1.19    1.19</time>
   <dipole>
    <v name="dipole">      0.00000000       0.00000000      -0.02196916 </v>
    <i name="Tr[quadrupol]">  -8020.60083215 </i>
    <i name="Echarged">      0.00000000 </i>
    <i name="Edipol_quadrupol">      0.00000000 </i>
    <i name="Eion">      0.00000000 </i>
   </dipole>
   <energy>
    <i name="e_fr_energy">   -485.46910902 </i>
    <i name="e_wo_entrp">   -485.37769538 </i>
    <i name="e_0_energy">   -485.42340220 </i>
   </energy>
  </scstep>
  <scstep>
   <time name="dav">    1.11    1.11</time>
   <time name="total">    1.14    1.14</time>
   <dipole>
    <v name="dipole">      0.00000000       0.00000000      -0.02242225 </v>
    <i name="Tr[quadrupol]">  -8020.60811493 </i>
    <i name="Echarged">      0.00000000 </i>
    <i name="Edipol_quadrupol">      0.00000000 </i>
    <i name="Eion">      0.00000000 </i>
   </dipole>
   <energy>
    <i name="alphaZ">    163.86008188 </i>
    <i name="ewald">  28505.50458751 </i>
    <i name="hartreedc"> -41715.84303479 </i>
    <i name="XCdc">   1078.14502657 </i>
    <i name="pawpsdc">  30594.82442048 </i>
    <i name="pawaedc"> -30861.32568266 </i>
    <i name="eentropy">     -0.09119192 </i>
    <i name="bandstr">  -3477.78828694 </i>
    <i name="atom">  15227.24496155 </i>
    <i name="e_fr_energy">   -485.46911832 </i>
    <i name="e_wo_entrp">   -485.37792640 </i>
    <i name="e_0_energy">   -485.42352236 </i>
   </energy>
  </scstep>
  <structure>
   <crystal>
    <varray name="basis" >
     <v>      13.75970367       0.00000000       0.00000000 </v>
     <v>       0.00000000      11.28669971       0.00000000 </v>
     <v>       0.00000000       0.00000000      15.00000000 </v>
    </varray>
    <i name="volume">   2329.52465126 </i>
    <varray name="rec_basis" >
     <v>       0.07267598       0.00000000       0.00000000 </v>
     <v>       0.00000000       0.08859986       0.00000000 </v>
     <v>       0.00000000       0.00000000       0.06666667 </v>
    </varray>
   </crystal>
   <varray name="positions" >
    <v>       0.07054120       0.38816457       0.22227495 </v>
    <v>       0.98151180       0.21832942       0.16785344 </v>
    <v>       0.22877304       0.39667288       0.18904348 </v>
    <v>       0.82472337       0.57572318       0.18403191 </v>
    <v>       0.14970601       0.24663792       0.12277753 </v>
    <v>       0.90758628       0.38434512       0.21811946 </v>
    <v>       0.56886571       0.39316130       0.23173729 </v>
    <v>       0.47768100       0.22391730       0.18017943 </v>
    <v>       0.73035049       0.39802658       0.19909345 </v>
    <v>       0.31101118       0.58132963       0.17977696 </v>
    <v>       0.64681854       0.25040749       0.13377315 </v>
    <v>       0.40275100       0.39355427       0.22106508 </v>
    <v>       0.81808056       0.88988957       0.05647519 </v>
    <v>       0.73319531       0.72568325       0.12448457 </v>
    <v>       0.97932824       0.89597624       0.07999408 </v>
    <v>       0.06867909       0.07698375       0.09423854 </v>
    <v>       0.90528082       0.74258583       0.14719628 </v>
    <v>       0.65472406       0.89333727       0.07691603 </v>
    <v>       0.31825350       0.89473226       0.05377466 </v>
    <v>       0.22716619       0.72126926       0.10084126 </v>
    <v>       0.47498917       0.90396535       0.09489577 </v>
    <v>       0.56592959       0.08075138       0.11024766 </v>
    <v>       0.38612516       0.76037560       0.16363174 </v>
    <v>       0.15509033       0.88950396       0.05271529 </v>
    <v>       0.98784551       0.43883046       0.24713656 </v>
    <v>       0.89991795       0.26975381       0.19549767 </v>
    <v>       0.15759857       0.43325808       0.24240148 </v>
    <v>       0.14788829       0.14353661       0.08017307 </v>
    <v>       0.98633649       0.10796021       0.13653167 </v>
    <v>       0.22915942       0.31533454       0.12527490 </v>
    <v>       0.06735802       0.28598388       0.16888911 </v>
    <v>       0.82274912       0.45552252       0.21014877 </v>
    <v>       0.48493735       0.44793349       0.25146232 </v>
    <v>       0.39648714       0.27665554       0.20625030 </v>
    <v>       0.65756919       0.43524210       0.25419888 </v>
    <v>       0.64488604       0.14640144       0.09374788 </v>
    <v>       0.48286722       0.11321356       0.15081376 </v>
    <v>       0.72606390       0.31870920       0.13454719 </v>
    <v>       0.56470606       0.29135323       0.18008364 </v>
    <v>       0.31888640       0.46086995       0.20329135 </v>
    <v>       0.73287748       0.94248397       0.03965616 </v>
    <v>       0.64891188       0.78317499       0.11254597 </v>
    <v>       0.90382696       0.93469024       0.03189926 </v>
    <v>       0.90701680       0.63807548       0.18754912 </v>
    <v>       0.73647441       0.61699787       0.15934394 </v>
    <v>       0.98321706       0.81212363       0.14197152 </v>
    <v>       0.81925020       0.78400528       0.10639513 </v>
    <v>       0.56804185       0.96074410       0.08520074 </v>
    <v>       0.23699719       0.94478449       0.02657725 </v>
    <v>       0.14820250       0.77173059       0.06843984 </v>
    <v>       0.40793432       0.93556381       0.03646331 </v>
    <v>       0.38047481       0.65838217       0.20939239 </v>
    <v>       0.23501053       0.60894863       0.12850628 </v>
    <v>       0.46527775       0.83024755       0.16578047 </v>
    <v>       0.31113112       0.79334051       0.10891910 </v>
    <v>       0.06990262       0.95754122       0.06514651 </v>
    <v>       0.57736557       0.77647674       0.24193941 </v>
    <v>       0.65582252       0.60772566       0.29790490 </v>
    <v>       0.48700699       0.61617049       0.29396059 </v>
   </varray>
  </structure>
  <varray name="forces" >
   <v>      -0.08558891      -0.05257118      -0.05514656 </v>
   <v>       0.02714308       0.14029522       0.04219433 </v>
   <v>      -0.07084534       0.00274667      -0.04979949 </v>
   <v>       0.27197308       0.06004401       0.31244203 </v>
   <v>      -0.07502427       0.06244532       0.07481137 </v>
   <v>      -0.13065951       0.10038623      -0.06146504 </v>
   <v>       0.10301338      -0.27744104      -0.22123052 </v>
   <v>       0.26826509       0.06681323      -0.06234435 </v>
   <v>       0.21107713       0.06640535      -0.08799493 </v>
   <v>      -0.08845745       0.07683212      -0.02873289 </v>
   <v>       0.06403653       0.24938199       0.07938636 </v>
   <v>      -0.02749186      -0.02646251       0.04612239 </v>
   <v>       0.19679775      -0.01713495       0.00059658 </v>
   <v>       0.25484671       0.20035311       0.10450322 </v>
   <v>       0.04954124      -0.00889943       0.04749622 </v>
   <v>      -0.02586660       0.05075171      -0.00332685 </v>
   <v>       0.11255840       0.05093047       0.03061729 </v>
   <v>       0.10203126       0.20651328       0.05923800 </v>
   <v>       0.02560085      -0.12051761       0.07591236 </v>
   <v>       0.09503323       0.27507583      -0.05040239 </v>
   <v>       0.19513517       0.14001246      -0.07940400 </v>
   <v>       0.21745407       0.19853941      -0.16457408 </v>
   <v>      -0.18488592       0.19996239      -0.27938537 </v>
   <v>       0.00695996       0.09452259      -0.08210935 </v>
   <v>       0.06267622      -0.03045976      -0.00248868 </v>
   <v>       0.00431097      -0.03116285       0.02120728 </v>
   <v>       0.13176934       0.00146271      -0.00233582 </v>
   <v>      -0.03258811      -0.03312522      -0.01294472 </v>
   <v>       0.10176111      -0.05738387      -0.05226737 </v>
   <v>       0.04638763       0.00133352      -0.02907965 </v>
   <v>       0.03660244      -0.00768722       0.02388964 </v>
   <v>      -0.00036125      -0.21940830      -0.02151356 </v>
   <v>      -0.29520253       0.81942468       0.28739855 </v>
   <v>      -0.05828323       0.21272723      -0.02156369 </v>
   <v>      -0.06480303       0.69446636       0.27986913 </v>
   <v>      -0.24223577      -0.34418552      -0.03979243 </v>
   <v>      -0.03378166      -0.05337994       0.02629440 </v>
   <v>      -0.11729363      -0.09790201       0.01726096 </v>
   <v>      -0.17237761       0.02542501       0.17139674 </v>
   <v>      -0.03336098      -0.13292500       0.04937820 </v>
   <v>      -0.13914436      -0.02073159       0.02860761 </v>
   <v>      -0.35946385      -0.04239234       0.31455589 </v>
   <v>      -0.12585208       0.00651937       0.00844614 </v>
   <v>      -0.10324402      -0.09543191       0.03103566 </v>
   <v>      -0.46781791      -0.14590761       0.37719942 </v>
   <v>      -0.01226415      -0.04430765      -0.06701587 </v>
   <v>      -0.27074230      -0.13536164       0.06867034 </v>
   <v>      -0.11215686      -0.14580923      -0.07424552 </v>
   <v>      -0.18039895       0.02518059       0.06135911 </v>
   <v>      -0.02365529       0.02277045      -0.01217735 </v>
   <v>       0.05385861      -0.05113487       0.09727948 </v>
   <v>       0.40473402      -0.46657954       0.73487676 </v>
   <v>       0.21513884      -0.14354837       0.07654930 </v>
   <v>       0.63182113      -0.23311764       0.58296746 </v>
   <v>       0.06330932      -0.12488443       0.05986847 </v>
   <v>      -0.03560880      -0.07312410      -0.02074506 </v>
   <v>      -0.64819502      -0.67236925      -0.49920739 </v>
   <v>      -0.42950035      -0.09024340      -0.84549850 </v>
   <v>       0.69331503      -0.05573134      -1.26463922 </v>
  </varray>
  <varray name="stress" >
   <v>      -8.85714891       4.53804996       0.13926778 </v>
   <v>       4.53804995     -10.15605239       0.24496123 </v>
   <v>       0.13926777       0.24496123     -15.95785113 </v>
  </varray>
  <energy>
   <i name="e_fr_energy">   -485.46911832 </i>
   <i name="e_wo_entrp">   -485.37792640 </i>
   <i name="e_0_energy">   -485.42352236 </i>
  </energy>
  <time name="totalsc">   68.62   68.79</time>
 </calculation>
 <calculation>
  <scstep>
   <time name="dav">    1.46    1.46</time>
   <time name="total">    1.54    1.54</time>
   <dipole>
    <v name="dipole">      0.00000000       0.00000000      -0.02245539 </v>
    <i name="Tr[quadrupol]">  -7989.02850454 </i>
    <i name="Echarged">      0.00000000 </i>
    <i name="Edipol_quadrupol">      0.00000000 </i>
    <i name="Eion">      0.00000000 </i>
   </dipole>
   <energy>
    <i name="alphaZ">    164.60307866 </i>
    <i name="ewald">  28688.45643089 </i>
    <i name="hartreedc"> -41909.38810238 </i>
    <i name="XCdc">   1079.77356583 </i>
    <i name="pawpsdc">  30594.84690284 </i>
    <i name="pawaedc"> -30861.34817788 </i>
    <i name="eentropy">     -0.12638981 </i>
    <i name="bandstr">  -3469.70878859 </i>
    <i name="atom">  15227.24496155 </i>
    <i name="e_fr_energy">   -485.64651889 </i>
    <i name="e_wo_entrp">   -485.52012908 </i>
    <i name="e_0_energy">   -485.58332398 </i>
   </energy>
  </scstep>
  <scstep>
   <time name="dav">    2.01    2.01</time>
   <time name="total">    2.08    2.08</time>
   <dipole>
    <v name="dipole">      0.00000000       0.00000000      -0.10918106 </v>
    <i name="Tr[quadrupol]">  -7989.10976308 </i>
    <i name="Echarged">      0.00000000 </i>
    <i name="Edipol_quadrupol">      0.00000000 </i>
    <i name="Eion">      0.00000000 </i>
   </dipole>
   <energy>
    <i name="e_fr_energy">   -487.60802044 </i>
    <i name="e_wo_entrp">   -487.51833508 </i>
    <i name="e_0_energy">   -487.56317776 </i>
   </energy>
  </scstep>
  <scstep>
   <time name="dav">    1.86    1.86</time>
   <time name="total">    1.93    1.94</time>
   <dipole>
    <v name="dipole">      0.00000000       0.00000000      -0.06885462 </v>
    <i name="Tr[quadrupol]">  -7989.07472413 </i>
    <i name="Echarged">      0.00000000 </i>
    <i name="Edipol_quadrupol">      0.00000000 </i>
    <i name="Eion">      0.00000000 </i>
   </dipole>
   <energy>
    <i name="e_fr_energy">   -485.78393131 </i>
    <i name="e_wo_entrp">   -485.78105431 </i>
    <i name="e_0_energy">   -485.78249281 </i>
   </energy>
  </scstep>
  <scstep>
   <time name="dav">    1.92    1.92</time>
   <time name="total">    1.99    2.00</time>
   <dipole>
    <v name="dipole">      0.00000000       0.00000000      -0.03211148 </v>
    <i name="Tr[quadrupol]">  -7989.04487412 </i>
    <i name="Echarged">      0.00000000 </i>
    <i name="Edipol_quadrupol">      0.00000000 </i>
    <i name="Eion">      0.00000000 </i>
   </dipole>
   <energy>
    <i name="e_fr_energy">   -485.60714200 </i>
    <i name="e_wo_entrp">   -485.55766835 </i>
    <i name="e_0_energy">   -485.58240517 </i>
   </energy>
  </scstep>
  <scstep>
   <time name="dav">    1.90    1.90</time>
   <time name="total">    1.97    1.97</time>
   <dipole>
    <v name="dipole">      0.00000000       0.00000000      -0.02892744 </v>
    <i name="Tr[quadrupol]">  -7989.04395761 </i>
    <i name="Echarged">      0.00000000 </i>
    <i name="Edipol_quadrupol">      0.00000000 </i>
    <i name="Eion">      0.00000000 </i>
   </dipole>
   <energy>
    <i name="e_fr_energy">   -485.61356963 </i>
    <i name="e_wo_entrp">   -485.55292894 </i>
    <i name="e_0_energy">   -485.58324928 </i>
   </energy>
  </scstep>
  <scstep>
   <time name="dav">    1.91    1.91</time>
   <time name="total">    1.99    1.99</time>
   <dipole>
    <v name="dipole">      0.00000000       0.00000000      -0.01712343 </v>
    <i name="Tr[quadrupol]">  -7989.03466020 </i>
    <i name="Echarged">      0.00000000 </i>
    <i name="Edipol_quadrupol">      0.00000000 </i>
    <i name="Eion">      0.00000000 </i>
   </dipole>
   <energy>
    <i name="e_fr_energy">   -485.60293193 </i>
    <i name="e_wo_entrp">   -485.50830616 </i>
    <i name="e_0_energy">   -485.55561904 </i>
   </energy>
  </scstep>
  <scstep>
   <time name="dav">    1.87    1.87</time>
   <time name="total">    1.95    1.95</time>
   <dipole>
    <v name="dipole">      0.00000000       0.00000000      -0.01559005 </v>
    <i name="Tr[quadrupol]">  -7989.03008647 </i>
    <i name="Echarged">      0.00000000 </i>
    <i name="Edipol_quadrupol">      0.00000000 </i>
    <i name="Eion">      0.00000000 </i>
   </dipole>
   <energy>
    <i name="e_fr_energy">   -485.60861317 </i>
    <i name="e_wo_entrp">   -485.52446960 </i>
    <i name="e_0_energy">   -485.56654138 </i>
   </energy>
  </scstep>
  <scstep>
   <time name="dav">    1.86    1.86</time>
   <time name="total">    1.95    1.95</time>
   <dipole>
    <v name="dipole">      0.00000000       0.00000000      -0.01682105 </v>
    <i name="Tr[quadrupol]">  -7989.03387908 </i>
    <i name="Echarged">      0.00000000 </i>
    <i name="Edipol_quadrupol">      0.00000000 </i>
    <i name="Eion">      0.00000000 </i>
   </dipole>
   <energy>
    <i name="e_fr_energy">   -485.59822293 </i>
    <i name="e_wo_entrp">   -485.51854202 </i>
    <i name="e_0_energy">   -485.55838247 </i>
   </energy>
  </scstep>
  <scstep>
   <time name="dav">    1.69    1.69</time>
   <time name="total">    1.76    1.77</time>
   <dipole>
    <v name="dipole">      0.00000000       0.00000000      -0.01633946 </v>
    <i name="Tr[quadrupol]">  -7989.04085927 </i>
    <i name="Echarged">      0.00000000 </i>
    <i name="Edipol_quadrupol">      0.00000000 </i>
    <i name="Eion">      0.00000000 </i>
   </dipole>
   <energy>
    <i name="e_fr_energy">   -485.59883734 </i>
    <i name="e_wo_entrp">   -485.52123123 </i>
    <i name="e_0_energy">   -485.56003429 </i>
   </energy>
  </scstep>
  <scstep>
   <time name="dav">    1.63    1.64</time>
   <time name="total">    1.71    1.71</time>
   <dipole>
    <v name="dipole">      0.00000000       0.00000000      -0.01574080 </v>
    <i name="Tr[quadrupol]">  -7989.04246351 </i>
    <i name="Echarged">      0.00000000 </i>
    <i name="Edipol_quadrupol">      0.00000000 </i>
    <i name="Eion">      0.00000000 </i>
   </dipole>
   <energy>
    <i name="e_fr_energy">   -485.59836891 </i>
    <i name="e_wo_entrp">   -485.51815465 </i>
    <i name="e_0_energy">   -485.55826178 </i>
   </energy>
  </scstep>
  <scstep>
   <time name="dav">    1.36    1.36</time>
   <time name="total">    1.43    1.44</time>
   <dipole>
    <v name="dipole">      0.00000000       0.00000000      -0.01465179 </v>
    <i name="Tr[quadrupol]">  -7989.04712723 </i>
    <i name="Echarged">      0.00000000 </i>
    <i name="Edipol_quadrupol">      0.00000000 </i>
    <i name="Eion">      0.00000000 </i>
   </dipole>
   <energy>
    <i name="e_fr_energy">   -485.59848185 </i>
    <i name="e_wo_entrp">   -485.51719743 </i>
    <i name="e_0_energy">   -485.55783964 </i>
   </energy>
  </scstep>
  <scstep>
   <time name="dav">    1.25    1.25</time>
   <time name="total">    1.32    1.32</time>
   <dipole>
    <v name="dipole">      0.00000000       0.00000000      -0.01403614 </v>
    <i name="Tr[quadrupol]">  -7989.04906010 </i>
    <i name="Echarged">      0.00000000 </i>
    <i name="Edipol_quadrupol">      0.00000000 </i>
    <i name="Eion">      0.00000000 </i>
   </dipole>
   <energy>
    <i name="e_fr_energy">   -485.59846340 </i>
    <i name="e_wo_entrp">   -485.51708251 </i>
    <i name="e_0_energy">   -485.55777296 </i>
   </energy>
  </scstep>
  <scstep>
   <time name="dav">    1.10    1.10</time>
   <time name="total">    1.18    1.18</time>
   <dipole>
    <v name="dipole">      0.00000000       0.00000000      -0.01334565 </v>
    <i name="Tr[quadrupol]">  -7989.05152310 </i>
    <i name="Echarged">      0.00000000 </i>
    <i name="Edipol_quadrupol">      0.00000000 </i>
    <i name="Eion">      0.00000000 </i>
   </dipole>
   <energy>
    <i name="e_fr_energy">   -485.59850636 </i>
    <i name="e_wo_entrp">   -485.51721851 </i>
    <i name="e_0_energy">   -485.55786243 </i>
   </energy>
  </scstep>
  <scstep>
   <time name="dav">    1.11    1.11</time>
   <time name="total">    1.14    1.14</time>
   <dipole>
    <v name="dipole">      0.00000000       0.00000000      -0.01275440 </v>
    <i name="Tr[quadrupol]">  -7989.05328679 </i>
    <i name="Echarged">      0.00000000 </i>
    <i name="Edipol_quadrupol">      0.00000000 </i>
    <i name="Eion">      0.00000000 </i>
   </dipole>
   <energy>
    <i name="alphaZ">    164.67254153 </i>
    <i name="ewald">  28688.45643089 </i>
    <i name="hartreedc"> -41897.85615240 </i>
    <i name="XCdc">   1079.05862572 </i>
    <i name="pawpsdc">  30783.54747597 </i>
    <i name="pawaedc"> -31050.32614675 </i>
    <i name="eentropy">     -0.08133808 </i>
    <i name="bandstr">  -3480.31491160 </i>
    <i name="atom">  15227.24496155 </i>
    <i name="e_fr_energy">   -485.59851315 </i>
    <i name="e_wo_entrp">   -485.51717508 </i>
    <i name="e_0_energy">   -485.55784412 </i>
   </energy>
  </scstep>
  <structure>
   <crystal>
    <varray name="basis" >
     <v>      13.73072564       0.00000000       0.00000000 </v>
     <v>       0.00000000      11.25944398       0.00000000 </v>
     <v>       0.00000000       0.00000000      15.00000000 </v>
    </varray>
    <i name="volume">   2319.00504145 </i>
    <varray name="rec_basis" >
     <v>       0.07282936       0.00000000       0.00000000 </v>
     <v>       0.00000000       0.08881433       0.00000000 </v>
     <v>       0.00000000       0.00000000       0.06666667 </v>
    </varray>
   </crystal>
   <varray name="positions" >
    <v>       0.07048119       0.38811963       0.22223948 </v>
    <v>       0.98153083       0.21844936       0.16788058 </v>
    <v>       0.22872336       0.39667523       0.18901145 </v>
    <v>       0.82491408       0.57577451       0.18423289 </v>
    <v>       0.14965340       0.24669130       0.12282565 </v>
    <v>       0.90749466       0.38443093       0.21807992 </v>
    <v>       0.56893795       0.39292413       0.23159499 </v>
    <v>       0.47786911       0.22397441       0.18013933 </v>
    <v>       0.73049850       0.39808335       0.19903685 </v>
    <v>       0.31094915       0.58139531       0.17975847 </v>
    <v>       0.64686345       0.25062067       0.13382421 </v>
    <v>       0.40273172       0.39353165       0.22109474 </v>
    <v>       0.81821856       0.88987492       0.05647558 </v>
    <v>       0.73337401       0.72585452       0.12455179 </v>
    <v>       0.97936298       0.89596863       0.08002463 </v>
    <v>       0.06866095       0.07702714       0.09423640 </v>
    <v>       0.90535975       0.74262936       0.14721597 </v>
    <v>       0.65479560       0.89351381       0.07695414 </v>
    <v>       0.31827145       0.89462924       0.05382349 </v>
    <v>       0.22723282       0.72150441       0.10080884 </v>
    <v>       0.47512600       0.90408504       0.09484469 </v>
    <v>       0.56608208       0.08092110       0.11014180 </v>
    <v>       0.38599551       0.76054654       0.16345203 </v>
    <v>       0.15509521       0.88958476       0.05266247 </v>
    <v>       0.98788946       0.43880442       0.24713496 </v>
    <v>       0.89992097       0.26972717       0.19551131 </v>
    <v>       0.15769097       0.43325933       0.24239998 </v>
    <v>       0.14786544       0.14350829       0.08016474 </v>
    <v>       0.98640785       0.10791116       0.13649805 </v>
    <v>       0.22919195       0.31533568       0.12525620 </v>
    <v>       0.06738368       0.28597731       0.16890448 </v>
    <v>       0.82274887       0.45533495       0.21013494 </v>
    <v>       0.48473035       0.44863398       0.25164718 </v>
    <v>       0.39644628       0.27683739       0.20623643 </v>
    <v>       0.65752375       0.43583577       0.25437890 </v>
    <v>       0.64471618       0.14610721       0.09372229 </v>
    <v>       0.48284353       0.11316793       0.15083067 </v>
    <v>       0.72598165       0.31862550       0.13455830 </v>
    <v>       0.56458519       0.29137496       0.18019388 </v>
    <v>       0.31886301       0.46075632       0.20332311 </v>
    <v>       0.73277991       0.94246624       0.03967456 </v>
    <v>       0.64865981       0.78313875       0.11274830 </v>
    <v>       0.90373871       0.93469581       0.03190469 </v>
    <v>       0.90694440       0.63799390       0.18756909 </v>
    <v>       0.73614637       0.61687313       0.15958656 </v>
    <v>       0.98320846       0.81208575       0.14192841 </v>
    <v>       0.81906035       0.78388956       0.10643930 </v>
    <v>       0.56796320       0.96061945       0.08515298 </v>
    <v>       0.23687069       0.94480602       0.02661672 </v>
    <v>       0.14818591       0.77175006       0.06843201 </v>
    <v>       0.40797209       0.93552010       0.03652589 </v>
    <v>       0.38075862       0.65798331       0.20986509 </v>
    <v>       0.23516139       0.60882592       0.12855552 </v>
    <v>       0.46572079       0.83004826       0.16615546 </v>
    <v>       0.31117552       0.79323375       0.10895761 </v>
    <v>       0.06987765       0.95747870       0.06513316 </v>
    <v>       0.57691105       0.77590196       0.24161830 </v>
    <v>       0.65552134       0.60764851       0.29736104 </v>
    <v>       0.48749315       0.61612284       0.29314713 </v>
   </varray>
  </structure>
  <varray name="forces" >
   <v>       0.01850764      -0.01206879      -0.02275762 </v>
   <v>       0.01959448       0.02556383       0.00880132 </v>
   <v>       0.02319098       0.00819546      -0.04117721 </v>
   <v>      -0.01802543      -0.03439272       0.27861256 </v>
   <v>      -0.01316891       0.02544466       0.01116211 </v>
   <v>      -0.11171802       0.06112346      -0.02434301 </v>
   <v>      -0.06287622       0.06889717       0.02058621 </v>
   <v>       0.07991938       0.00084606      -0.01731458 </v>
   <v>       0.10670260       0.13490055       0.04263816 </v>
   <v>       0.09290607      -0.02148709       0.13899421 </v>
   <v>      -0.00561530       0.01878329      -0.04282589 </v>
   <v>      -0.05233641       0.15436801       0.09692583 </v>
   <v>      -0.00899317      -0.02223329      -0.00929807 </v>
   <v>      -0.05934982       0.04253225       0.16332821 </v>
   <v>       0.07270170       0.02034548      -0.00259130 </v>
   <v>      -0.01843798      -0.02138072      -0.04458259 </v>
   <v>       0.02651914      -0.02731971       0.06330591 </v>
   <v>      -0.05802881       0.06882924       0.11656216 </v>
   <v>       0.00278740      -0.04500641       0.01509972 </v>
   <v>       0.03884101       0.06688302      -0.00465614 </v>
   <v>       0.23033674      -0.01420414       0.09531428 </v>
   <v>       0.01127462      -0.02256455      -0.14657301 </v>
   <v>       0.08796218      -0.06508175       0.10056212 </v>
   <v>      -0.10214816       0.10626493      -0.08622478 </v>
   <v>      -0.00298343       0.07066529       0.06298436 </v>
   <v>      -0.10078017      -0.08263702       0.03700207 </v>
   <v>       0.06608028       0.03222952       0.07315056 </v>
   <v>       0.06113617      -0.00122509      -0.06348863 </v>
   <v>      -0.03069457      -0.06723895       0.00739688 </v>
   <v>       0.08813525      -0.00127078      -0.08783739 </v>
   <v>       0.01924945       0.01439183       0.02852775 </v>
   <v>       0.04909975      -0.11845948      -0.00272066 </v>
   <v>      -0.10992672       0.54560235       0.20704607 </v>
   <v>      -0.03500714       0.05752301      -0.04115699 </v>
   <v>      -0.00644402       0.50028464       0.13110162 </v>
   <v>       0.00340662      -0.05217942      -0.05906688 </v>
   <v>      -0.08048513      -0.05995365       0.03043923 </v>
   <v>       0.00136882      -0.03263552      -0.00738195 </v>
   <v>      -0.03668293       0.02318484       0.13014782 </v>
   <v>      -0.08042872      -0.09973927       0.05388199 </v>
   <v>      -0.01644066       0.06818657      -0.05243050 </v>
   <v>      -0.25756530      -0.03585065       0.26841559 </v>
   <v>      -0.00171987       0.06249104      -0.04381304 </v>
   <v>       0.10649029      -0.01986474       0.07978546 </v>
   <v>      -0.34774234      -0.11877770       0.39341429 </v>
   <v>       0.10260717      -0.01520790      -0.01861832 </v>
   <v>      -0.04644293      -0.05181819       0.04056327 </v>
   <v>      -0.02526055      -0.02404327      -0.12423337 </v>
   <v>      -0.04657613       0.10076367       0.01052278 </v>
   <v>      -0.06970871      -0.06978750      -0.02616191 </v>
   <v>       0.05395726      -0.01956770       0.05306902 </v>
   <v>       0.23661837      -0.15814799       0.48558021 </v>
   <v>       0.08573279      -0.06637632      -0.04480063 </v>
   <v>       0.42299713      -0.10950454       0.35224915 </v>
   <v>       0.04975455      -0.03708251       0.01356186 </v>
   <v>      -0.04168850      -0.03241669      -0.04770207 </v>
   <v>      -0.59153949      -0.55475368      -0.51195902 </v>
   <v>      -0.30748273      -0.08459073      -0.82034184 </v>
   <v>       0.58842041      -0.07943169      -1.21667542 </v>
  </varray>
  <varray name="stress" >
   <v>      -4.00720722       5.28498687      -0.03544803 </v>
   <v>       5.28498687      -6.28343546       0.27013453 </v>
   <v>      -0.03544802       0.27013453     -15.15495593 </v>
  </varray>
  <energy>
   <i name="e_fr_energy">   -485.59851315 </i>
   <i name="e_wo_entrp">   -485.51717508 </i>
   <i name="e_0_energy">   -485.55784412 </i>
  </energy>
  <time name="totalsc">   25.19   25.23</time>
 </calculation>
 <calculation>
  <scstep>
   <time name="dav">    1.45    1.46</time>
   <time name="total">    1.52    1.53</time>
   <dipole>
    <v name="dipole">      0.00000000       0.00000000      -0.01209770 </v>
    <i name="Tr[quadrupol]">  -7945.01454449 </i>
    <i name="Echarged">      0.00000000 </i>
    <i name="Edipol_quadrupol">      0.00000000 </i>
    <i name="Eion">      0.00000000 </i>
   </dipole>
   <energy>
    <i name="alphaZ">    165.72158396 </i>
    <i name="ewald">  28946.79448459 </i>
[...]
    <v>       0.66524281       0.81960185       0.14416250 </v>
    <v>       0.90638421       0.91450328       0.00978511 </v>
    <v>       0.91751100       0.63849760       0.19937071 </v>
    <v>       0.74638793       0.65123583       0.21060523 </v>
    <v>       0.99151209       0.80884254       0.12964831 </v>
    <v>       0.82596632       0.77569492       0.10612539 </v>
    <v>       0.57181368       0.96133694       0.06145074 </v>
    <v>       0.23860383       0.94958735       0.00954299 </v>
    <v>       0.15042275       0.76732178       0.05266263 </v>
    <v>       0.40991484       0.93538071       0.01583712 </v>
    <v>       0.38025113       0.66191087       0.20457268 </v>
    <v>       0.22996548       0.60826693       0.13368430 </v>
    <v>       0.47050080       0.82551123       0.14374311 </v>
    <v>       0.31209530       0.79325317       0.09555288 </v>
    <v>       0.06915349       0.95790947       0.04294242 </v>
    <v>       0.56743735       0.77501616       0.22326384 </v>
    <v>       0.64879703       0.61864252       0.29595407 </v>
    <v>       0.48268181       0.62057612       0.28141862 </v>
   </varray>
  </structure>
  <varray name="forces" >
   <v>       0.07515405      -0.02205416      -0.05175571 </v>
   <v>       0.00419167       0.05481379      -0.00040332 </v>
   <v>       0.04512112      -0.02845748      -0.06704373 </v>
   <v>      -0.00607456       0.02380967       0.00684834 </v>
   <v>       0.02283123       0.03293799       0.03502682 </v>
   <v>      -0.02770582      -0.04029132      -0.00128305 </v>
   <v>      -0.05987780      -0.00532507      -0.03697439 </v>
   <v>      -0.02765380       0.03420340      -0.00363467 </v>
   <v>       0.02377148      -0.00812205       0.02201186 </v>
   <v>       0.06016652      -0.00504121      -0.01104839 </v>
   <v>      -0.03853852       0.00961810       0.02178672 </v>
   <v>       0.04243676       0.05892203       0.01195661 </v>
   <v>       0.07610848      -0.00477028       0.03392428 </v>
   <v>       0.08694111      -0.06236929       0.03388213 </v>
   <v>       0.00632801       0.03145666      -0.01056623 </v>
   <v>       0.00296391       0.03464498      -0.02674361 </v>
   <v>       0.01451964      -0.01601624       0.04774717 </v>
   <v>      -0.02246006      -0.01200445       0.01137601 </v>
   <v>      -0.00403265       0.02406726      -0.01102429 </v>
   <v>      -0.02886832      -0.05029585      -0.00234169 </v>
   <v>       0.03975496       0.01151914       0.08776039 </v>
   <v>      -0.01249311      -0.00543891       0.01391985 </v>
   <v>      -0.01979386      -0.02599570       0.00362939 </v>
   <v>      -0.04568167       0.01796726      -0.01873064 </v>
   <v>      -0.06412503      -0.03928545      -0.00924787 </v>
   <v>       0.02066429       0.03953253      -0.04614777 </v>
   <v>      -0.02428478      -0.05338945      -0.03779977 </v>
   <v>      -0.04057472      -0.07234443       0.00056257 </v>
   <v>      -0.00462632       0.00327208      -0.03754046 </v>
   <v>       0.00205553       0.01036301      -0.00160496 </v>
   <v>      -0.01020934       0.01735281       0.02561052 </v>
   <v>      -0.00093930       0.03794308      -0.05564021 </v>
   <v>      -0.03808910       0.00487065       0.02909735 </v>
   <v>       0.02004188      -0.00138714      -0.00432252 </v>
   <v>      -0.02035258      -0.00457257      -0.01020313 </v>
   <v>      -0.05427055      -0.00650140       0.02716454 </v>
   <v>       0.05821619       0.03190896      -0.00837586 </v>
   <v>      -0.03205714      -0.01626028      -0.02804568 </v>
   <v>       0.02293301       0.00788882      -0.01181710 </v>
   <v>       0.01265239       0.05560209       0.04810786 </v>
   <v>      -0.00226084       0.03087522       0.06751764 </v>
   <v>       0.03724229       0.00525945      -0.00041813 </v>
   <v>      -0.01093446      -0.05268528       0.00231953 </v>
   <v>      -0.07803208      -0.00686995       0.00848513 </v>
   <v>      -0.01138561       0.00385837      -0.01942336 </v>
   <v>      -0.00681332      -0.03972157      -0.02428980 </v>
   <v>       0.00390183       0.00818703       0.00827976 </v>
   <v>       0.06380735      -0.00826051      -0.04129103 </v>
   <v>      -0.01099222       0.00782857       0.01719962 </v>
   <v>       0.04713423      -0.01375665       0.02823830 </v>
   <v>      -0.01112465      -0.01316141       0.00929854 </v>
   <v>      -0.02969247      -0.02791053       0.01196102 </v>
   <v>       0.00108625       0.00276947      -0.05430590 </v>
   <v>      -0.02453875       0.01437018       0.00499004 </v>
   <v>      -0.01145879      -0.00662038      -0.04473502 </v>
   <v>       0.02475188       0.03258225      -0.00823350 </v>
   <v>      -0.04190422       0.03469187      -0.02854135 </v>
   <v>       0.04736532      -0.03975074       0.04194201 </v>
   <v>      -0.04029497       0.00554303       0.05288914 </v>
  </varray>
  <varray name="stress" >
   <v>      -0.30587832       6.98781879      -0.23137514 </v>
   <v>       6.98781881      -0.08530291      -0.04197441 </v>
   <v>      -0.23137513      -0.04197439     -11.91983315 </v>
  </varray>
  <energy>
   <i name="e_fr_energy">   -486.57305517 </i>
   <i name="e_wo_entrp">   -486.52649480 </i>
   <i name="e_0_energy">   -486.54977499 </i>
  </energy>
  <time name="totalsc">   17.87   17.90</time>
 </calculation>
 <calculation>
  <scstep>
   <time name="dav">    1.47    1.48</time>
   <time name="total">    1.55    1.56</time>
   <dipole>
    <v name="dipole">      0.00000000       0.00000000      -0.19434934 </v>
    <i name="Tr[quadrupol]">  -7645.64560644 </i>
    <i name="Echarged">      0.00000000 </i>
    <i name="Edipol_quadrupol">      0.00000000 </i>
    <i name="Eion">      0.00000000 </i>
   </dipole>
   <energy>
    <i name="alphaZ">    172.26269987 </i>
    <i name="ewald">  28516.33117165 </i>
    <i name="hartreedc"> -41739.39258052 </i>
    <i name="XCdc">   1079.95872299 </i>
    <i name="pawpsdc">  31024.02266945 </i>
    <i name="pawaedc"> -31293.07827794 </i>
    <i name="eentropy">     -0.04644277 </i>
    <i name="bandstr">  -3473.87642299 </i>
    <i name="atom">  15227.24496155 </i>
    <i name="e_fr_energy">   -486.57349872 </i>
    <i name="e_wo_entrp">   -486.52705594 </i>
    <i name="e_0_energy">   -486.55027733 </i>
   </energy>
  </scstep>
  <scstep>
   <time name="dav">    1.67    1.67</time>
   <time name="total">    1.74    1.74</time>
   <dipole>
    <v name="dipole">      0.00000000       0.00000000      -0.19550823 </v>
    <i name="Tr[quadrupol]">  -7645.64159294 </i>
    <i name="Echarged">      0.00000000 </i>
    <i name="Edipol_quadrupol">      0.00000000 </i>
    <i name="Eion">      0.00000000 </i>
   </dipole>
   <energy>
    <i name="e_fr_energy">   -486.57597891 </i>
    <i name="e_wo_entrp">   -486.53061632 </i>
    <i name="e_0_energy">   -486.55329761 </i>
   </energy>
  </scstep>
  <scstep>
   <time name="dav">    1.93    1.93</time>
   <time name="total">    2.01    2.01</time>
   <dipole>
    <v name="dipole">      0.00000000       0.00000000      -0.19262178 </v>
    <i name="Tr[quadrupol]">  -7645.63850256 </i>
    <i name="Echarged">      0.00000000 </i>
    <i name="Edipol_quadrupol">      0.00000000 </i>
    <i name="Eion">      0.00000000 </i>
   </dipole>
   <energy>
    <i name="e_fr_energy">   -486.57687707 </i>
    <i name="e_wo_entrp">   -486.52734142 </i>
    <i name="e_0_energy">   -486.55210924 </i>
   </energy>
  </scstep>
  <scstep>
   <time name="dav">    1.84    1.84</time>
   <time name="total">    1.92    1.92</time>
   <dipole>
    <v name="dipole">      0.00000000       0.00000000      -0.19467075 </v>
    <i name="Tr[quadrupol]">  -7645.64064286 </i>
    <i name="Echarged">      0.00000000 </i>
    <i name="Edipol_quadrupol">      0.00000000 </i>
    <i name="Eion">      0.00000000 </i>
   </dipole>
   <energy>
    <i name="e_fr_energy">   -486.57567982 </i>
    <i name="e_wo_entrp">   -486.52931940 </i>
    <i name="e_0_energy">   -486.55249961 </i>
   </energy>
  </scstep>
  <scstep>
   <time name="dav">    1.81    1.81</time>
   <time name="total">    1.88    1.88</time>
   <dipole>
    <v name="dipole">      0.00000000       0.00000000      -0.19505452 </v>
    <i name="Tr[quadrupol]">  -7645.64007197 </i>
    <i name="Echarged">      0.00000000 </i>
    <i name="Edipol_quadrupol">      0.00000000 </i>
    <i name="Eion">      0.00000000 </i>
   </dipole>
   <energy>
    <i name="e_fr_energy">   -486.57602698 </i>
    <i name="e_wo_entrp">   -486.52957474 </i>
    <i name="e_0_energy">   -486.55280086 </i>
   </energy>
  </scstep>
  <scstep>
   <time name="dav">    1.75    1.76</time>
   <time name="total">    1.83    1.83</time>
   <dipole>
    <v name="dipole">      0.00000000       0.00000000      -0.19432227 </v>
    <i name="Tr[quadrupol]">  -7645.63906876 </i>
    <i name="Echarged">      0.00000000 </i>
    <i name="Edipol_quadrupol">      0.00000000 </i>
    <i name="Eion">      0.00000000 </i>
   </dipole>
   <energy>
    <i name="e_fr_energy">   -486.57578174 </i>
    <i name="e_wo_entrp">   -486.52910661 </i>
    <i name="e_0_energy">   -486.55244417 </i>
   </energy>
  </scstep>
  <scstep>
   <time name="dav">    1.52    1.52</time>
   <time name="total">    1.60    1.60</time>
   <dipole>
    <v name="dipole">      0.00000000       0.00000000      -0.19417099 </v>
    <i name="Tr[quadrupol]">  -7645.63886737 </i>
    <i name="Echarged">      0.00000000 </i>
    <i name="Edipol_quadrupol">      0.00000000 </i>
    <i name="Eion">      0.00000000 </i>
   </dipole>
   <energy>
    <i name="e_fr_energy">   -486.57577071 </i>
    <i name="e_wo_entrp">   -486.52878654 </i>
    <i name="e_0_energy">   -486.55227863 </i>
   </energy>
  </scstep>
  <scstep>
   <time name="dav">    1.34    1.34</time>
   <time name="total">    1.42    1.42</time>
   <dipole>
    <v name="dipole">      0.00000000       0.00000000      -0.19473132 </v>
    <i name="Tr[quadrupol]">  -7645.63926263 </i>
    <i name="Echarged">      0.00000000 </i>
    <i name="Edipol_quadrupol">      0.00000000 </i>
    <i name="Eion">      0.00000000 </i>
   </dipole>
   <energy>
    <i name="e_fr_energy">   -486.57573081 </i>
    <i name="e_wo_entrp">   -486.52920321 </i>
    <i name="e_0_energy">   -486.55246701 </i>
   </energy>
  </scstep>
  <scstep>
   <time name="dav">    1.15    1.15</time>
   <time name="total">    1.18    1.19</time>
   <dipole>
    <v name="dipole">      0.00000000       0.00000000      -0.19455920 </v>
    <i name="Tr[quadrupol]">  -7645.63868519 </i>
    <i name="Echarged">      0.00000000 </i>
    <i name="Edipol_quadrupol">      0.00000000 </i>
    <i name="Eion">      0.00000000 </i>
   </dipole>
   <energy>
    <i name="alphaZ">    172.26218315 </i>
    <i name="ewald">  28516.33117165 </i>
    <i name="hartreedc"> -41738.95378523 </i>
    <i name="XCdc">   1079.93271635 </i>
    <i name="pawpsdc">  31033.95884409 </i>
    <i name="pawaedc"> -31303.01898182 </i>
    <i name="eentropy">     -0.04667860 </i>
    <i name="bandstr">  -3474.28616865 </i>
    <i name="atom">  15227.24496155 </i>
    <i name="e_fr_energy">   -486.57573751 </i>
    <i name="e_wo_entrp">   -486.52905890 </i>
    <i name="e_0_energy">   -486.55239820 </i>
   </energy>
  </scstep>
  <structure>
   <crystal>
    <varray name="basis" >
     <v>      13.77631492       0.00000000       0.00000000 </v>
     <v>       0.00000000      10.69986409       0.00000000 </v>
     <v>       0.00000000       0.00000000      15.00000000 </v>
    </varray>
    <i name="volume">   2211.07045952 </i>
    <varray name="rec_basis" >
     <v>       0.07258835       0.00000000       0.00000000 </v>
     <v>       0.00000000       0.09345913       0.00000000 </v>
     <v>       0.00000000       0.00000000       0.06666667 </v>
    </varray>
   </crystal>
   <varray name="positions" >
    <v>       0.06658203       0.37869188       0.23955838 </v>
    <v>       0.97607362       0.21234727       0.16860830 </v>
    <v>       0.22281831       0.39428539       0.20299698 </v>
    <v>       0.83185101       0.58555580       0.21613982 </v>
    <v>       0.14216885       0.25246403       0.12291590 </v>
    <v>       0.90404676       0.37672674       0.23692695 </v>
    <v>       0.56449124       0.39081980       0.24547484 </v>
    <v>       0.47787874       0.22078645       0.17668306 </v>
    <v>       0.72804362       0.40295462       0.21958672 </v>
    <v>       0.30624369       0.58246471       0.18467044 </v>
    <v>       0.64879012       0.25379988       0.14180140 </v>
    <v>       0.39806484       0.38995001       0.22979129 </v>
    <v>       0.82218512       0.87074564       0.04053383 </v>
    <v>       0.74444839       0.74686195       0.15400519 </v>
    <v>       0.98287789       0.88616964       0.06066794 </v>
    <v>       0.06319483       0.07958504       0.07984006 </v>
    <v>       0.91530693       0.73815958       0.14695358 </v>
    <v>       0.66231402       0.89519551       0.07203001 </v>
    <v>       0.32041111       0.89599571       0.03635950 </v>
    <v>       0.22688205       0.71990404       0.09301254 </v>
    <v>       0.48003042       0.90079194       0.07122816 </v>
    <v>       0.56819210       0.08287069       0.09712739 </v>
    <v>       0.38733081       0.76053314       0.14912923 </v>
    <v>       0.15695279       0.89093292       0.03338811 </v>
    <v>       0.98489430       0.42687110       0.27112508 </v>
    <v>       0.89546049       0.26107681       0.20277752 </v>
    <v>       0.15425003       0.42259472       0.26184562 </v>
    <v>       0.13994883       0.15421116       0.06898635 </v>
    <v>       0.98113061       0.10275168       0.12554577 </v>
    <v>       0.22155284       0.32295073       0.13095655 </v>
    <v>       0.06195063       0.28256475       0.17575019 </v>
    <v>       0.82142191       0.45739670       0.23645329 </v>
    <v>       0.47790183       0.44616500       0.26508947 </v>
    <v>       0.39459240       0.27280458       0.20050096 </v>
    <v>       0.65048558       0.44181319       0.27026440 </v>
    <v>       0.64863362       0.15192469       0.09161634 </v>
    <v>       0.48312404       0.11189152       0.13518443 </v>
    <v>       0.72605481       0.32693140       0.15001278 </v>
    <v>       0.56491956       0.28678381       0.19126132 </v>
    <v>       0.31229909       0.46081259       0.21870562 </v>
    <v>       0.73577260       0.91815801       0.01685304 </v>
    <v>       0.66534016       0.81979535       0.14442511 </v>
    <v>       0.90645119       0.91438748       0.00973845 </v>
    <v>       0.91751859       0.63826461       0.19933485 </v>
    <v>       0.74652915       0.65149107       0.21088973 </v>
    <v>       0.99163563       0.80847153       0.12945547 </v>
    <v>       0.82603583       0.77574377       0.10624127 </v>
    <v>       0.57195423       0.96140519       0.06159466 </v>
    <v>       0.23866837       0.94966761       0.00954502 </v>
    <v>       0.15052092       0.76717979       0.05239752 </v>
    <v>       0.40998273       0.93547046       0.01591147 </v>
    <v>       0.38018391       0.66182271       0.20461839 </v>
    <v>       0.23005083       0.60807821       0.13341956 </v>
    <v>       0.47048138       0.82554345       0.14381045 </v>
    <v>       0.31210727       0.79323421       0.09549957 </v>
    <v>       0.06924414       0.95786269       0.04288811 </v>
    <v>       0.56736997       0.77520308       0.22350432 </v>
    <v>       0.64882744       0.61865687       0.29606078 </v>
    <v>       0.48268669       0.62051650       0.28148452 </v>
   </varray>
  </structure>
  <varray name="forces" >
   <v>      -0.02963023      -0.01074757      -0.02649187 </v>
   <v>       0.02332786       0.01703594      -0.02784244 </v>
   <v>       0.02589581      -0.00306889      -0.04369453 </v>
   <v>      -0.00094697       0.01594020       0.00308867 </v>
   <v>       0.02070381       0.00813231       0.02543586 </v>
   <v>      -0.02136970       0.00829196       0.00386870 </v>
   <v>      -0.02539741      -0.00209420      -0.01479944 </v>
   <v>      -0.01293967       0.02383096      -0.01472854 </v>
   <v>       0.00955400       0.00009676       0.01242708 </v>
   <v>       0.01703907      -0.02475961      -0.02577636 </v>
   <v>      -0.02090847       0.00178593       0.01457439 </v>
   <v>      -0.01677331       0.03137884      -0.01105871 </v>
   <v>      -0.00842148      -0.00842791       0.05038658 </v>
   <v>       0.04548973      -0.02249950       0.00187627 </v>
   <v>       0.01414608       0.00361261       0.00786590 </v>
   <v>      -0.03099417      -0.01329105      -0.02996468 </v>
   <v>       0.00102668       0.02321824       0.01319219 </v>
   <v>       0.00385312      -0.02410569       0.00721311 </v>
   <v>       0.00478485       0.00925123       0.00414885 </v>
   <v>      -0.00459793       0.00325945      -0.01775487 </v>
   <v>       0.02281807       0.02712595       0.04665971 </v>
   <v>       0.00228096      -0.02458955      -0.00271225 </v>
   <v>      -0.02560315      -0.02858816      -0.00198157 </v>
   <v>      -0.02055599      -0.02045027      -0.00697761 </v>
   <v>      -0.00006829      -0.04719971      -0.01662293 </v>
   <v>      -0.01793262       0.01720106      -0.03929550 </v>
   <v>       0.01953033      -0.02897918      -0.02380546 </v>
   <v>      -0.00025754      -0.00441978       0.01895744 </v>
   <v>      -0.00010650       0.04401325      -0.01700463 </v>
   <v>       0.00092290      -0.00955051      -0.02317230 </v>
   <v>       0.02189677      -0.00141597      -0.00575878 </v>
   <v>       0.00320496      -0.00407633      -0.06213006 </v>
   <v>      -0.00908389       0.00474550       0.03575529 </v>
   <v>       0.00910319       0.02545455       0.01109659 </v>
   <v>      -0.04199943      -0.01322801      -0.00517663 </v>
   <v>      -0.02288694       0.00762821       0.01817229 </v>
   <v>       0.02090656       0.02058851       0.00350966 </v>
   <v>      -0.01524084      -0.00234856      -0.02162677 </v>
   <v>      -0.00518120       0.01299807      -0.00222673 </v>
   <v>       0.03182819       0.04233772       0.03956358 </v>
   <v>       0.01299440       0.03922534       0.04866623 </v>
   <v>       0.04342192      -0.00838181       0.02719360 </v>
   <v>       0.01606935      -0.04263657      -0.00531312 </v>
   <v>      -0.03328972      -0.00910120       0.01278896 </v>
   <v>      -0.02742027      -0.01126378      -0.00025840 </v>
   <v>       0.01547887      -0.02103514      -0.02767239 </v>
   <v>       0.03114199      -0.01381068       0.02490010 </v>
   <v>       0.01014313      -0.00608717      -0.03270775 </v>
   <v>      -0.01960902       0.01180646       0.00996788 </v>
   <v>       0.02685919       0.01305232       0.01242024 </v>
   <v>       0.02144092      -0.01565922       0.02507753 </v>
   <v>      -0.00804406       0.01476204      -0.00317140 </v>
   <v>       0.01116188      -0.02188486      -0.02982284 </v>
   <v>      -0.01619227      -0.00340340       0.03616146 </v>
   <v>      -0.00624852      -0.02296380      -0.03020033 </v>
   <v>      -0.00473727       0.01987820      -0.00517305 </v>
   <v>      -0.03217730       0.03626933      -0.03670333 </v>
   <v>       0.04009547      -0.03543154       0.04526572 </v>
   <v>      -0.04850591       0.02257868       0.05139141 </v>
  </varray>
  <varray name="stress" >
   <v>       0.02636190       7.05754700      -0.24279966 </v>
   <v>       7.05754699      -0.04476076       0.02464110 </v>
   <v>      -0.24279966       0.02464107     -11.90272555 </v>
  </varray>
  <energy>
   <i name="e_fr_energy">   -486.57573751 </i>
   <i name="e_wo_entrp">   -486.52905890 </i>
   <i name="e_0_energy">   -486.55239820 </i>
  </energy>
  <time name="totalsc">   16.38   16.41</time>
 </calculation>
 <calculation>
