slab_Cel1-OPT                           
           1
    13.759704    0.000000    0.000000
     0.000000   11.286700    0.000000
     0.000000    0.000000   15.000000
   C    N    Ni
    24    32     3
Direct configuration=     1
   0.07054120  0.38816457  0.22227495
   0.98151180  0.21832942  0.16785344
   0.22877304  0.39667288  0.18904348
   0.82472337  0.57572318  0.18403191
   0.14970601  0.24663792  0.12277753
   0.90758628  0.38434512  0.21811946
   0.56886571  0.39316130  0.23173729
   0.47768100  0.22391730  0.18017943
   0.73035049  0.39802658  0.19909345
   0.31101118  0.58132963  0.17977696
   0.64681854  0.25040749  0.13377315
   0.40275100  0.39355427  0.22106508
   0.81808056  0.88988957  0.05647519
   0.73319531  0.72568325  0.12448457
   0.97932824  0.89597624  0.07999408
   0.06867909  0.07698375  0.09423854
   0.90528082  0.74258583  0.14719628
   0.65472406  0.89333727  0.07691603
   0.31825350  0.89473226  0.05377466
   0.22716619  0.72126926  0.10084126
   0.47498917  0.90396535  0.09489577
   0.56592959  0.08075138  0.11024766
   0.38612516  0.76037560  0.16363174
   0.15509033  0.88950396  0.05271529
   0.98784551  0.43883046  0.24713656
   0.89991795  0.26975381  0.19549767
   0.15759857  0.43325808  0.24240148
   0.14788829  0.14353661  0.08017307
   0.98633649  0.10796021  0.13653167
   0.22915942  0.31533454  0.12527490
   0.06735802  0.28598388  0.16888911
   0.82274912  0.45552252  0.21014877
   0.48493735  0.44793349  0.25146232
   0.39648714  0.27665554  0.20625030
   0.65756919  0.43524210  0.25419888
   0.64488604  0.14640144  0.09374788
   0.48286722  0.11321356  0.15081376
   0.72606390  0.31870920  0.13454719
   0.56470606  0.29135323  0.18008364
   0.31888640  0.46086995  0.20329135
   0.73287748  0.94248397  0.03965616
   0.64891188  0.78317499  0.11254597
   0.90382696  0.93469024  0.03189926
   0.90701680  0.63807548  0.18754912
   0.73647441  0.61699787  0.15934394
   0.98321706  0.81212363  0.14197152
   0.81925020  0.78400528  0.10639513
   0.56804185  0.96074410  0.08520074
   0.23699719  0.94478449  0.02657725
   0.14820250  0.77173059  0.06843984
   0.40793432  0.93556381  0.03646331
   0.38047481  0.65838217  0.20939239
   0.23501053  0.60894863  0.12850628
   0.46527775  0.83024755  0.16578047
   0.31113112  0.79334051  0.10891910
   0.06990262  0.95754122  0.06514651
   0.57736557  0.77647674  0.24193941
   0.65582252  0.60772566  0.29790490
   0.48700699  0.61617049  0.29396059
slab_Cel1-OPT                           
           1
    13.730726    0.000000    0.000000
     0.000000   11.259444    0.000000
     0.000000    0.000000   15.000000
   C    N    Ni
    24    32     3
Direct configuration=     2
   0.07048119  0.38811963  0.22223948
   0.98153083  0.21844936  0.16788058
   0.22872336  0.39667523  0.18901145
   0.82491408  0.57577451  0.18423289
   0.14965340  0.24669130  0.12282565
   0.90749466  0.38443093  0.21807992
   0.56893795  0.39292413  0.23159499
   0.47786911  0.22397441  0.18013933
   0.73049850  0.39808335  0.19903685
   0.31094915  0.58139531  0.17975847
   0.64686345  0.25062067  0.13382421
   0.40273172  0.39353165  0.22109474
   0.81821856  0.88987492  0.05647558
   0.73337401  0.72585452  0.12455179
   0.97936298  0.89596863  0.08002463
   0.06866095  0.07702714  0.09423640
   0.90535975  0.74262936  0.14721597
   0.65479560  0.89351381  0.07695414
   0.31827145  0.89462924  0.05382349
   0.22723282  0.72150441  0.10080884
   0.47512600  0.90408504  0.09484469
   0.56608208  0.08092110  0.11014180
   0.38599551  0.76054654  0.16345203
   0.15509521  0.88958476  0.05266247
   0.98788946  0.43880442  0.24713496
   0.89992097  0.26972717  0.19551131
   0.15769097  0.43325933  0.24239998
   0.14786544  0.14350829  0.08016474
   0.98640785  0.10791116  0.13649805
   0.22919195  0.31533568  0.12525620
   0.06738368  0.28597731  0.16890448
   0.82274887  0.45533495  0.21013494
   0.48473035  0.44863398  0.25164718
   0.39644628  0.27683739  0.20623643
   0.65752375  0.43583577  0.25437890
   0.64471618  0.14610721  0.09372229
   0.48284353  0.11316793  0.15083067
   0.72598165  0.31862550  0.13455830
   0.56458519  0.29137496  0.18019388
   0.31886301  0.46075632  0.20332311
   0.73277991  0.94246624  0.03967456
   0.64865981  0.78313875  0.11274830
   0.90373871  0.93469581  0.03190469
   0.90694440  0.63799390  0.18756909
   0.73614637  0.61687313  0.15958656
   0.98320846  0.81208575  0.14192841
   0.81906035  0.78388956  0.10643930
   0.56796320  0.96061945  0.08515298
   0.23687069  0.94480602  0.02661672
   0.14818591  0.77175006  0.06843201
   0.40797209  0.93552010  0.03652589
   0.38075862  0.65798331  0.20986509
   0.23516139  0.60882592  0.12855552
   0.46572079  0.83004826  0.16615546
   0.31117552  0.79323375  0.10895761
   0.06987765  0.95747870  0.06513316
   0.57691105  0.77590196  0.24161830
   0.65552134  0.60764851  0.29736104
   0.48749315  0.61612284  0.29314713
slab_Cel1-OPT                           
           1
    13.690227    0.000000    0.000000
     0.000000   11.221352    0.000000
     0.000000    0.000000   15.000000
   C    N    Ni
    24    32     3
Direct configuration=     3
   0.07039713  0.38805667  0.22218990
   0.98155749  0.21861738  0.16791851
   0.22865378  0.39667852  0.18896668
   0.82518118  0.57584642  0.18451376
   0.14957972  0.24676608  0.12289290
   0.90736635  0.38455116  0.21802467
   0.56903911  0.39259186  0.23139611
   0.47813257  0.22405443  0.18008328
   0.73070579  0.39816287  0.19895775
   0.31086228  0.58148732  0.17973264
   0.64692634  0.25091934  0.13389558
   0.40270472  0.39349995  0.22113621
   0.81841183  0.88985440  0.05647611
   0.73362429  0.72609447  0.12464574
   0.97941163  0.89595797  0.08006733
   0.06863555  0.07708792  0.09423341
   0.90547029  0.74269036  0.14724350
   0.65489580  0.89376114  0.07700739
   0.31829659  0.89448490  0.05389173
   0.22732615  0.72183385  0.10076353
   0.47531764  0.90425272  0.09477331
   0.56629563  0.08115887  0.10999386
   0.38581394  0.76078601  0.16320087
   0.15510205  0.88969796  0.05258866
   0.98795101  0.43876794  0.24713272
   0.89992520  0.26968985  0.19553038
   0.15782037  0.43326108  0.24239788
   0.14783343  0.14346862  0.08015311
   0.98650778  0.10784244  0.13645106
   0.22923750  0.31533728  0.12523006
   0.06741963  0.28596810  0.16892595
   0.82274852  0.45507219  0.21011560
   0.48444044  0.44961534  0.25190554
   0.39638904  0.27709216  0.20621705
   0.65746011  0.43666747  0.25463050
   0.64447829  0.14569501  0.09368651
   0.48281035  0.11310400  0.15085431
   0.72586646  0.31850825  0.13457381
   0.56441590  0.29140541  0.18034796
   0.31883025  0.46059713  0.20336750
   0.73264326  0.94244141  0.03970028
   0.64830680  0.78308798  0.11303108
   0.90361511  0.93470362  0.03191229
   0.90684301  0.63787961  0.18759699
   0.73568694  0.61669839  0.15992565
   0.98319642  0.81203269  0.14186817
   0.81879446  0.78372745  0.10650103
   0.56785305  0.96044483  0.08508623
   0.23669353  0.94483617  0.02667188
   0.14816268  0.77177733  0.06842106
   0.40802498  0.93545886  0.03661334
   0.38115609  0.65742453  0.21052572
   0.23537267  0.60865400  0.12862434
   0.46634128  0.82976908  0.16667953
   0.31123769  0.79308419  0.10901143
   0.06984268  0.95739113  0.06511452
   0.57627448  0.77509672  0.24116953
   0.65509955  0.60754044  0.29660097
   0.48817403  0.61605610  0.29201026
slab_Cel1-OPT                           
           1
    13.685228    0.000000    0.000000
     0.000000   11.202454    0.000000
     0.000000    0.000000   15.000000
   C    N    Ni
    24    32     3
Direct configuration=     4
   0.07051125  0.38807487  0.22218638
   0.98157724  0.21853676  0.16790408
   0.22876421  0.39670115  0.18892241
   0.82490542  0.57569071  0.18483355
   0.14961356  0.24677497  0.12286059
   0.90723620  0.38461113  0.21802304
   0.56883126  0.39306414  0.23160814
   0.47807666  0.22398957  0.18009868
   0.73075848  0.39844877  0.19910266
   0.31114997  0.58135084  0.18004116
   0.64684532  0.25071477  0.13375474
   0.40261188  0.39394138  0.22129762
   0.81822617  0.88981142  0.05645929
   0.73326321  0.72599482  0.12489641
   0.97952483  0.89602060  0.08002523
   0.06862051  0.07698192  0.09414386
   0.90542780  0.74256738  0.14734368
   0.65468021  0.89373064  0.07719763
   0.31828010  0.89447955  0.05386645
   0.22733362  0.72172871  0.10079321
   0.47564798  0.90407387  0.09501899
   0.56610410  0.08087718  0.10983570
   0.38616934  0.76042933  0.16361260
   0.15486868  0.88988139  0.05247833
   0.98788702  0.43898824  0.24726116
   0.89969898  0.26950198  0.19558854
   0.15785175  0.43334517  0.24254659
   0.14799447  0.14350001  0.08003517
   0.98635297  0.10772283  0.13650688
   0.22939073  0.31533372  0.12507624
   0.06743046  0.28601472  0.16896461
   0.82285578  0.45498700  0.21012779
   0.48443115  0.45023031  0.25210012
   0.39636209  0.27701671  0.20614989
   0.65749451  0.43728486  0.25468359
   0.64471652  0.14592412  0.09359069
   0.48266630  0.11299239  0.15089199
   0.72597967  0.31853356  0.13454705
   0.56449014  0.29143326  0.18046821
   0.31868087  0.46047226  0.20343525
   0.73272798  0.94264592  0.03956880
   0.64804846  0.78303774  0.11332493
   0.90372429  0.93486703  0.03181542
   0.90717138  0.63793086  0.18773114
   0.73531745  0.61653343  0.16041881
   0.98343373  0.81204125  0.14188183
   0.81893724  0.78373708  0.10652511
   0.56789719  0.96053385  0.08489251
   0.23674271  0.94508496  0.02664255
   0.14802441  0.77157217  0.06837555
   0.40809536  0.93546180  0.03664067
   0.38132688  0.65745307  0.21093667
   0.23536840  0.60862862  0.12847070
   0.46672896  0.82971164  0.16693921
   0.31128487  0.79312541  0.10898265
   0.06977957  0.95738140  0.06503405
   0.57556077  0.77429269  0.24052494
   0.65479466  0.60738955  0.29561971
   0.48888515  0.61590388  0.29057416
slab_Cel1-OPT                           
           1
    13.677824    0.000000    0.000000
     0.000000   11.174468    0.000000
     0.000000    0.000000   15.000000
   C    N    Ni
    24    32     3
Direct configuration=     5
   0.07068031  0.38810187  0.22218117
   0.98160649  0.21841718  0.16788272
   0.22892780  0.39673472  0.18885686
   0.82449690  0.57545974  0.18530712
   0.14966369  0.24678816  0.12281274
   0.90704339  0.38470009  0.21802064
   0.56852334  0.39376472  0.23192212
   0.47799384  0.22389335  0.18012148
   0.73083652  0.39887286  0.19931726
   0.31157616  0.58114838  0.18049803
   0.64672530  0.25041133  0.13354617
   0.40247433  0.39459618  0.22153665
   0.81795113  0.88974767  0.05643438
   0.73272831  0.72584700  0.12526763
   0.97969254  0.89611351  0.07996289
   0.06859823  0.07682468  0.09401126
   0.90536484  0.74238496  0.14749204
   0.65436082  0.89368541  0.07747936
   0.31825567  0.89447161  0.05382901
   0.22734468  0.72157277  0.10083717
   0.47613735  0.90380857  0.09538280
   0.56582037  0.08045931  0.10960149
   0.38669583  0.75990025  0.16422232
   0.15452298  0.89015348  0.05231495
   0.98779221  0.43931501  0.24745136
   0.89936386  0.26922329  0.19567468
   0.15789824  0.43346991  0.24276681
   0.14823304  0.14354657  0.07986053
   0.98612363  0.10754542  0.13658953
   0.22961772  0.31532843  0.12484846
   0.06744651  0.28608388  0.16902186
   0.82301467  0.45486064  0.21014585
   0.48441739  0.45114254  0.25238826
   0.39632218  0.27690480  0.20605043
   0.65754547  0.43820068  0.25476222
   0.64506944  0.14626398  0.09344880
   0.48245289  0.11282682  0.15094780
   0.72614739  0.31857109  0.13450742
   0.56460011  0.29147457  0.18064627
   0.31845958  0.46028704  0.20353558
   0.73285349  0.94294928  0.03937408
   0.64766577  0.78296321  0.11376009
   0.90388603  0.93510943  0.03167198
   0.90765784  0.63800689  0.18792981
   0.73477009  0.61628874  0.16114911
   0.98378528  0.81205394  0.14190207
   0.81914875  0.78375137  0.10656077
   0.56796258  0.96066590  0.08460562
   0.23681556  0.94545400  0.02659911
   0.14781956  0.77126785  0.06830815
   0.40819963  0.93546616  0.03668116
   0.38157989  0.65749541  0.21154524
   0.23536208  0.60859096  0.12824319
   0.46730328  0.82962644  0.16732377
   0.31135476  0.79318656  0.10894004
   0.06968607  0.95736697  0.06491490
   0.57450347  0.77310002  0.23957039
   0.65434299  0.60716572  0.29416659
   0.48993862  0.61567809  0.28844747
slab_Cel1-OPT                           
           1
    13.681194    0.000000    0.000000
     0.000000   11.171213    0.000000
     0.000000    0.000000   15.000000
   C    N    Ni
    24    32     3
Direct configuration=     6
   0.07060310  0.38833171  0.22232147
   0.98142442  0.21841068  0.16796039
   0.22887924  0.39668255  0.18885202
   0.82447465  0.57556245  0.18570346
   0.14976501  0.24684383  0.12273349
   0.90713732  0.38461604  0.21810588
   0.56858732  0.39427136  0.23215737
   0.47791134  0.22399841  0.18020636
   0.73071140  0.39883942  0.19937113
   0.31151932  0.58110896  0.18067987
   0.64677411  0.25068229  0.13357423
   0.40241786  0.39472307  0.22175282
   0.81806488  0.88982598  0.05635136
   0.73246827  0.72567924  0.12562274
   0.97961397  0.89604244  0.07989828
   0.06855945  0.07687372  0.09393315
   0.90552275  0.74249036  0.14756284
   0.65440974  0.89375625  0.07750537
   0.31836027  0.89451621  0.05383822
   0.22733100  0.72156668  0.10081622
   0.47612836  0.90357412  0.09547373
   0.56573413  0.08063613  0.10946412
   0.38696770  0.75990460  0.16450651
   0.15452606  0.89009933  0.05215447
   0.98778834  0.43948254  0.24756456
   0.89920801  0.26892422  0.19572915
   0.15806615  0.43353155  0.24289322
   0.14830201  0.14343914  0.07968757
   0.98606924  0.10722030  0.13655840
   0.22978846  0.31541635  0.12469117
   0.06749563  0.28608819  0.16900321
   0.82299121  0.45494048  0.21020642
   0.48427214  0.45155415  0.25255489
   0.39627585  0.27706811  0.20605843
   0.65747299  0.43864812  0.25473098
   0.64505740  0.14597443  0.09320317
   0.48239728  0.11240797  0.15086109
   0.72627222  0.31882829  0.13460961
   0.56463503  0.29161523  0.18085133
   0.31847490  0.46040759  0.20368994
   0.73261294  0.94306430  0.03932001
   0.64741521  0.78297462  0.11405075
   0.90390166  0.93522354  0.03155947
   0.90767572  0.63769600  0.18818553
   0.73444589  0.61625074  0.16176907
   0.98399499  0.81205138  0.14194358
   0.81898276  0.78357001  0.10664139
   0.56800969  0.96063112  0.08435831
   0.23674129  0.94576414  0.02653238
   0.14765485  0.77113519  0.06819449
   0.40851014  0.93539120  0.03687620
   0.38161252  0.65748335  0.21196126
   0.23566698  0.60822263  0.12833834
   0.46749831  0.82955918  0.16751274
   0.31164587  0.79307364  0.10915139
   0.06964604  0.95749488  0.06474983
   0.57386865  0.77245780  0.23875804
   0.65421634  0.60704235  0.29298672
   0.49060252  0.61542082  0.28684949
slab_Cel1-OPT                           
           1
    13.685950    0.000000    0.000000
     0.000000   11.166619    0.000000
     0.000000    0.000000   15.000000
   C    N    Ni
    24    32     3
Direct configuration=     7
   0.07049416  0.38865617  0.22251946
   0.98116752  0.21840150  0.16807001
   0.22881072  0.39660890  0.18884520
   0.82444326  0.57570746  0.18626282
   0.14990797  0.24692241  0.12262166
   0.90726986  0.38449738  0.21822617
   0.56867758  0.39498658  0.23248938
   0.47779494  0.22414672  0.18032616
   0.73053487  0.39879222  0.19944715
   0.31143912  0.58105332  0.18093650
   0.64684297  0.25106481  0.13361384
   0.40233817  0.39490221  0.22205791
   0.81822538  0.88993653  0.05623419
   0.73210137  0.72544241  0.12612389
   0.97950313  0.89594211  0.07980711
   0.06850472  0.07694296  0.09382292
   0.90574554  0.74263915  0.14766277
   0.65447876  0.89385626  0.07754207
   0.31850785  0.89457915  0.05385121
   0.22731171  0.72155808  0.10078664
   0.47611567  0.90324315  0.09560205
   0.56561245  0.08088574  0.10927027
   0.38735129  0.75991075  0.16490758
   0.15453041  0.89002289  0.05192798
   0.98778289  0.43971904  0.24772433
   0.89898811  0.26850201  0.19580603
   0.15830304  0.43361856  0.24307163
   0.14839933  0.14328749  0.07944347
   0.98599250  0.10676133  0.13651447
   0.23002937  0.31554046  0.12446920
   0.06756494  0.28609426  0.16897689
   0.82295810  0.45505320  0.21029191
   0.48406720  0.45213521  0.25279006
   0.39621047  0.27729865  0.20606973
   0.65737073  0.43927978  0.25468688
   0.64504042  0.14556567  0.09285651
   0.48231882  0.11181668  0.15073872
   0.72644835  0.31919138  0.13475383
   0.56468431  0.29181379  0.18114073
   0.31849651  0.46057777  0.20390778
   0.73227353  0.94322666  0.03924369
   0.64706169  0.78299074  0.11446096
   0.90392373  0.93538464  0.03140069
   0.90770095  0.63725712  0.18854641
   0.73398846  0.61619710  0.16264401
   0.98429087  0.81204777  0.14200216
   0.81874855  0.78331398  0.10675518
   0.56807616  0.96058204  0.08400929
   0.23663649  0.94620196  0.02643819
   0.14742244  0.77094792  0.06803408
   0.40894824  0.93528538  0.03715146
   0.38165856  0.65746633  0.21254838
   0.23609717  0.60770267  0.12847261
   0.46777349  0.82946422  0.16777944
   0.31205660  0.79291423  0.10944966
   0.06958957  0.95767545  0.06451687
   0.57297296  0.77155120  0.23761158
   0.65403764  0.60686821  0.29132160
   0.49153924  0.61505765  0.28459429
slab_Cel1-OPT                           
           1
    13.689761    0.000000    0.000000
     0.000000   11.173733    0.000000
     0.000000    0.000000   15.000000
   C    N    Ni
    24    32     3
Direct configuration=     8
   0.07056582  0.38884821  0.22266816
   0.98112909  0.21806874  0.16804409
   0.22878772  0.39660431  0.18888724
   0.82455773  0.57591905  0.18662786
   0.15000251  0.24685309  0.12244901
   0.90725656  0.38438368  0.21836169
   0.56874627  0.39497112  0.23252591
   0.47782333  0.22398171  0.18032915
   0.73056939  0.39884575  0.19956775
   0.31134400  0.58125151  0.18109143
   0.64693083  0.25110530  0.13358831
   0.40235906  0.39478001  0.22226728
   0.81813883  0.89005374  0.05613911
   0.73207720  0.72551142  0.12642014
   0.97951733  0.89592275  0.07971921
   0.06849371  0.07709462  0.09375858
   0.90586053  0.74238742  0.14788151
   0.65456615  0.89389089  0.07745732
   0.31863472  0.89469982  0.05391653
   0.22741596  0.72136829  0.10084519
   0.47621200  0.90320669  0.09554925
   0.56567153  0.08105398  0.10911971
   0.38716258  0.76009840  0.16496159
   0.15468112  0.88996426  0.05177204
   0.98779157  0.43965731  0.24777396
   0.89901088  0.26850329  0.19593857
   0.15829043  0.43352240  0.24310183
   0.14828893  0.14335529  0.07938287
   0.98606059  0.10676337  0.13652193
   0.23000848  0.31567366  0.12442390
   0.06750624  0.28615400  0.16898893
   0.82288194  0.45494474  0.21044937
   0.48390575  0.45188603  0.25283191
   0.39625236  0.27754487  0.20614973
   0.65726235  0.43928092  0.25459831
   0.64486792  0.14585454  0.09281926
   0.48229302  0.11201946  0.15077858
   0.72630939  0.31922597  0.13480125
   0.56468050  0.29200842  0.18136555
   0.31860903  0.46064070  0.20414143
   0.73230487  0.94302735  0.03927985
   0.64711161  0.78310779  0.11459602
   0.90374561  0.93528208  0.03137822
   0.90747520  0.63738753  0.18865112
   0.73392563  0.61643158  0.16324783
   0.98421830  0.81201552  0.14197036
   0.81848922  0.78312554  0.10685398
   0.56796021  0.96040206  0.08385986
   0.23678763  0.94609733  0.02649356
   0.14761945  0.77085988  0.06795547
   0.40892753  0.93513869  0.03731273
   0.38141023  0.65749386  0.21268389
   0.23631841  0.60769159  0.12851847
   0.46759353  0.82947212  0.16778416
   0.31215740  0.79286197  0.10963034
   0.06959273  0.95758709  0.06427910
   0.57292876  0.77159956  0.23686789
   0.65435194  0.60690956  0.29028946
   0.49171929  0.61469854  0.28350989
slab_Cel1-OPT                           
           1
    13.697035    0.000000    0.000000
     0.000000   11.187314    0.000000
     0.000000    0.000000   15.000000
   C    N    Ni
    24    32     3
Direct configuration=     9
   0.07070257  0.38921458  0.22295200
   0.98105573  0.21743394  0.16799460
   0.22874382  0.39659554  0.18896749
   0.82477617  0.57632271  0.18732468
   0.15018293  0.24672086  0.12211945
   0.90723118  0.38416676  0.21862037
   0.56887734  0.39494163  0.23259563
   0.47787750  0.22366692  0.18033486
   0.73063528  0.39894787  0.19979797
   0.31116247  0.58162960  0.18138719
   0.64709850  0.25118253  0.13353958
   0.40239893  0.39454690  0.22266695
   0.81797366  0.89027734  0.05595760
   0.73203106  0.72564307  0.12698567
   0.97954444  0.89588583  0.07955144
   0.06847268  0.07738396  0.09363578
   0.90607999  0.74190721  0.14829907
   0.65473291  0.89395693  0.07729554
   0.31887683  0.89493001  0.05404121
   0.22761490  0.72100623  0.10095695
   0.47639583  0.90313712  0.09544846
   0.56578427  0.08137493  0.10883231
   0.38680244  0.76045639  0.16506470
   0.15496871  0.88985242  0.05147437
   0.98780813  0.43953956  0.24786871
   0.89905434  0.26850572  0.19619158
   0.15826636  0.43333895  0.24315948
   0.14807826  0.14348462  0.07926719
   0.98619053  0.10676726  0.13653618
   0.22996861  0.31592775  0.12433742
   0.06739422  0.28626796  0.16901192
   0.82273659  0.45473783  0.21074995
   0.48359763  0.45141067  0.25291180
   0.39633231  0.27801458  0.20630245
   0.65705553  0.43928311  0.25442925
   0.64453872  0.14640561  0.09274813
   0.48224378  0.11240629  0.15085467
   0.72604420  0.31929195  0.13489177
   0.56467323  0.29237970  0.18179471
   0.31882375  0.46076077  0.20458745
   0.73236468  0.94264714  0.03934888
   0.64720687  0.78333110  0.11485383
   0.90340570  0.93508641  0.03133532
   0.90704439  0.63763633  0.18885099
   0.73380573  0.61687890  0.16440049
   0.98407981  0.81195401  0.14190965
   0.81799432  0.78276606  0.10704258
   0.56773893  0.96005872  0.08357461
   0.23707605  0.94589773  0.02659926
   0.14799541  0.77069192  0.06780541
   0.40888799  0.93485887  0.03762058
   0.38093634  0.65754638  0.21294256
   0.23674063  0.60767046  0.12860602
   0.46725008  0.82948718  0.16779317
   0.31234976  0.79276229  0.10997523
   0.06959878  0.95741852  0.06382522
   0.57284440  0.77169183  0.23544825
   0.65495174  0.60698846  0.28831920
   0.49206290  0.61401345  0.28143985
slab_Cel1-OPT                           
           1
    13.701573    0.000000    0.000000
     0.000000   11.194009    0.000000
     0.000000    0.000000   15.000000
   C    N    Ni
    24    32     3
Direct configuration=    10
   0.07065433  0.38910606  0.22295799
   0.98107223  0.21751810  0.16808665
   0.22882504  0.39664233  0.18902460
   0.82464701  0.57628222  0.18769585
   0.15012645  0.24689402  0.12210310
   0.90721839  0.38405270  0.21874278
   0.56875000  0.39473305  0.23258185
   0.47786426  0.22389587  0.18046254
   0.73066918  0.39891859  0.19985508
   0.31118952  0.58162546  0.18161437
   0.64702618  0.25133982  0.13363694
   0.40238697  0.39445579  0.22281980
   0.81789381  0.89007444  0.05601129
   0.73207765  0.72582170  0.12725919
   0.97950711  0.89578355  0.07947173
   0.06847005  0.07730519  0.09352184
   0.90602003  0.74196695  0.14835927
   0.65470097  0.89383333  0.07726440
   0.31890782  0.89486527  0.05420806
   0.22774802  0.72096830  0.10098072
   0.47643737  0.90306626  0.09542644
   0.56569935  0.08135814  0.10873310
   0.38654553  0.76050462  0.16516949
   0.15509068  0.88972703  0.05138372
   0.98777487  0.43946336  0.24792704
   0.89917075  0.26846033  0.19630161
   0.15830204  0.43328560  0.24319873
   0.14798446  0.14354292  0.07917714
   0.98627219  0.10669068  0.13650125
   0.22989476  0.31602575  0.12431605
   0.06739532  0.28623157  0.16897916
   0.82276734  0.45472116  0.21093196
   0.48364596  0.45107978  0.25298452
   0.39645497  0.27794831  0.20632614
   0.65701747  0.43923575  0.25437354
   0.64437769  0.14668277  0.09268478
   0.48234576  0.11255118  0.15080577
   0.72597339  0.31934665  0.13494384
   0.56470680  0.29225458  0.18187825
   0.31876441  0.46080165  0.20479004
   0.73237556  0.94255877  0.03933333
   0.64730121  0.78352343  0.11492547
   0.90331185  0.93495726  0.03135454
   0.90701030  0.63775399  0.18904458
   0.73382853  0.61721058  0.16500828
   0.98395760  0.81191379  0.14182570
   0.81796783  0.78268397  0.10710977
   0.56775874  0.96016614  0.08348156
   0.23725323  0.94573578  0.02666684
   0.14830927  0.77064992  0.06774323
   0.40883681  0.93482237  0.03767498
   0.38070399  0.65779250  0.21296797
   0.23677924  0.60774238  0.12857084
   0.46705086  0.82956395  0.16773654
   0.31220217  0.79284431  0.11000358
   0.06964295  0.95738944  0.06361976
   0.57299865  0.77190707  0.23475001
   0.65537513  0.60710388  0.28731252
   0.49212085  0.61370903  0.28055747
slab_Cel1-OPT                           
           1
    13.715186    0.000000    0.000000
     0.000000   11.214092    0.000000
     0.000000    0.000000   15.000000
   C    N    Ni
    24    32     3
Direct configuration=    11
   0.07050966  0.38878069  0.22297597
   0.98112172  0.21777044  0.16836279
   0.22906864  0.39678263  0.18919594
   0.82425964  0.57616084  0.18880936
   0.14995705  0.24741318  0.12205406
   0.90718002  0.38371074  0.21911002
   0.56836810  0.39410770  0.23254054
   0.47782456  0.22458229  0.18084556
   0.73077084  0.39883082  0.20002643
   0.31127062  0.58161307  0.18229592
   0.64680930  0.25181143  0.13392900
   0.40235109  0.39418261  0.22327834
   0.81765435  0.88946607  0.05617238
   0.73221736  0.72635728  0.12807975
   0.97939518  0.89547689  0.07923261
   0.06846214  0.07706905  0.09318000
   0.90584020  0.74214606  0.14853987
   0.65460518  0.89346273  0.07717098
   0.31900074  0.89467116  0.05470864
   0.22814724  0.72085455  0.10105205
   0.47656194  0.90285379  0.09536038
   0.56544469  0.08130780  0.10843547
   0.38577506  0.76064924  0.16548388
   0.15545645  0.88935110  0.05111178
   0.98767509  0.43923489  0.24810204
   0.89951987  0.26832425  0.19663168
   0.15840904  0.43312562  0.24331648
   0.14770315  0.14371773  0.07890699
   0.98651710  0.10646109  0.13639645
   0.22967328  0.31631959  0.12425192
   0.06739861  0.28612248  0.16888088
   0.82285957  0.45467118  0.21147800
   0.48379090  0.45008769  0.25320266
   0.39682283  0.27774962  0.20639721
   0.65690334  0.43909376  0.25420642
   0.64389475  0.14751375  0.09249473
   0.48265157  0.11298556  0.15065907
   0.72576104  0.31951065  0.13510007
   0.56480747  0.29187945  0.18212890
   0.31858643  0.46092422  0.20539780
   0.73240818  0.94229382  0.03928668
   0.64758412  0.78410009  0.11514039
   0.90303037  0.93457003  0.03141217
   0.90690805  0.63810676  0.18962534
   0.73389693  0.61820502  0.16683166
   0.98359108  0.81179319  0.14157386
   0.81788838  0.78243782  0.10731136
   0.56781813  0.96048820  0.08320242
   0.23778459  0.94525022  0.02686960
   0.14925055  0.77052400  0.06755668
   0.40868333  0.93471292  0.03783816
   0.38000718  0.65853042  0.21304422
   0.23689503  0.60795803  0.12846532
   0.46645338  0.82979413  0.16756667
   0.31175952  0.79309022  0.11008860
   0.06977544  0.95730223  0.06300336
   0.57346126  0.77255239  0.23265530
   0.65664489  0.60744993  0.28429251
   0.49229464  0.61279631  0.27791034
slab_Cel1-OPT                           
           1
    13.720119    0.000000    0.000000
     0.000000   11.221370    0.000000
     0.000000    0.000000   15.000000
   C    N    Ni
    24    32     3
Direct configuration=    12
   0.07045728  0.38866299  0.22298249
   0.98113963  0.21786172  0.16846286
   0.22915683  0.39683338  0.18925802
   0.82411941  0.57611692  0.18921288
   0.14989573  0.24760098  0.12203628
   0.90716613  0.38358704  0.21924310
   0.56822984  0.39388148  0.23252557
   0.47781018  0.22483060  0.18098437
   0.73080765  0.39879906  0.20008852
   0.31129998  0.58160858  0.18254291
   0.64673078  0.25198203  0.13403484
   0.40233810  0.39408379  0.22344451
   0.81756766  0.88924600  0.05623076
   0.73226794  0.72655103  0.12837711
   0.97935466  0.89536596  0.07914596
   0.06845927  0.07698363  0.09305612
   0.90577510  0.74221085  0.14860532
   0.65457051  0.89332867  0.07713712
   0.31903438  0.89460094  0.05489004
   0.22829177  0.72081340  0.10107790
   0.47660704  0.90277693  0.09533644
   0.56535250  0.08128958  0.10832762
   0.38549613  0.76070155  0.16559781
   0.15558888  0.88921510  0.05101323
   0.98763897  0.43915224  0.24816545
   0.89964626  0.26827502  0.19675130
   0.15844778  0.43306775  0.24335916
   0.14760131  0.14378096  0.07880909
   0.98660576  0.10637803  0.13635848
   0.22959310  0.31642589  0.12422868
   0.06739981  0.28608302  0.16884526
   0.82289296  0.45465310  0.21167588
   0.48384337  0.44972880  0.25328171
   0.39695601  0.27767774  0.20642297
   0.65686201  0.43904239  0.25414586
   0.64371991  0.14781435  0.09242586
   0.48276229  0.11314270  0.15060591
   0.72568416  0.31956997  0.13515668
   0.56484392  0.29174375  0.18221973
   0.31852200  0.46096856  0.20561805
   0.73241999  0.94219798  0.03926977
   0.64768654  0.78430869  0.11521828
   0.90292847  0.93442995  0.03143306
   0.90687103  0.63823437  0.18983580
   0.73392169  0.61856475  0.16749244
   0.98345839  0.81174957  0.14148259
   0.81785962  0.78234878  0.10738441
   0.56783963  0.96060470  0.08310126
   0.23797695  0.94507457  0.02694308
   0.14959132  0.77047845  0.06748907
   0.40862777  0.93467333  0.03789730
   0.37975492  0.65879736  0.21307185
   0.23693695  0.60803604  0.12842708
   0.46623708  0.82987739  0.16750511
   0.31159927  0.79317918  0.11011942
   0.06982341  0.95727069  0.06277998
   0.57362874  0.77278584  0.23189619
   0.65710458  0.60757511  0.28319808
   0.49235756  0.61246615  0.27695104
slab_Cel1-OPT                           
           1
    13.725351    0.000000    0.000000
     0.000000   11.222339    0.000000
     0.000000    0.000000   15.000000
   C    N    Ni
    24    32     3
Direct configuration=    13
   0.07045371  0.38842446  0.22293646
   0.98137964  0.21774726  0.16846114