  59  59   0   0
  0.3948347E+02  0.1375970E-08  0.1128670E-08  0.1500000E-08  0.1000000E-15
  1.000000000000000E-004
  CAR 
 slab_Cel1-OPT                           
      4.41617321    -27.72383996  301     -1.94772639      1.00000000
    -27.724  0.0000E+00  0.0000E+00
    -27.617  0.0000E+00  0.0000E+00
    -27.510  0.0000E+00  0.0000E+00
    -27.402  0.0000E+00  0.0000E+00
    -27.295  0.0000E+00  0.0000E+00
    -27.188  0.0000E+00  0.0000E+00
    -27.081  0.0000E+00  0.0000E+00
    -26.974  0.0000E+00  0.0000E+00
    -26.867  0.0000E+00  0.0000E+00
    -26.760  0.7046E-14  0.7549E-15
    -26.653  0.1332E-09  0.1428E-10
    -26.545  0.2810E-06  0.3012E-07
    -26.438  0.6923E-04  0.7447E-05
    -26.331  0.2152E-02  0.2380E-03
    -26.224  0.9583E-02  0.1265E-02
    -26.117  0.1016E-01  0.2353E-02
    -26.010  0.1693E-01  0.4167E-02
    -25.903  0.1842E-01  0.6140E-02
    -25.795  0.1301E-01  0.7534E-02
    -25.688  0.4113E-02  0.7974E-02
    -25.581  0.2373E-03  0.8000E-02
    -25.474  0.1818E-05  0.8000E-02
    -25.367  0.1404E-06  0.8000E-02
    -25.260  0.3359E-04  0.8004E-02
    -25.153  0.1192E-02  0.8131E-02
    -25.046  0.8507E-02  0.9043E-02
    -24.938  0.1657E-01  0.1082E-01
    -24.831  0.1336E-01  0.1225E-01
    -24.724  0.9303E-02  0.1325E-01
    -24.617  0.8786E-02  0.1419E-01
    -24.510  0.9111E-02  0.1516E-01
    -24.403  0.2970E-02  0.1548E-01
    -24.296  0.1729E-03  0.1550E-01
    -24.188  0.1077E-03  0.1551E-01
    -24.081  0.1500E-02  0.1567E-01
    -23.974  0.6391E-02  0.1636E-01
    -23.867  0.1850E-01  0.1834E-01
    -23.760  0.2419E-01  0.2093E-01
    -23.653  0.2313E-01  0.2341E-01
    -23.546  0.9216E-02  0.2440E-01
    -23.439  0.9467E-03  0.2450E-01
    -23.331  0.1594E-03  0.2451E-01
    -23.224  0.2617E-02  0.2480E-01
    -23.117  0.8790E-02  0.2574E-01
    -23.010  0.8965E-02  0.2670E-01
    -22.903  0.7729E-02  0.2753E-01
    -22.796  0.1218E-01  0.2883E-01
    -22.689  0.1376E-01  0.3030E-01
    -22.581  0.1061E-01  0.3144E-01
    -22.474  0.4643E-02  0.3194E-01
    -22.367  0.5606E-03  0.3200E-01
    -22.260  0.1179E-04  0.3200E-01
    -22.153  0.3702E-04  0.3200E-01
    -22.046  0.1540E-02  0.3217E-01
    -21.939  0.1294E-01  0.3356E-01
    -21.832  0.3245E-01  0.3703E-01
    -21.724  0.3472E-01  0.4075E-01
    -21.617  0.2881E-01  0.4384E-01
    -21.510  0.2547E-01  0.4657E-01
    -21.403  0.1159E-01  0.4781E-01
    -21.296  0.1743E-02  0.4799E-01
    -21.189  0.4149E-03  0.4804E-01
    -21.082  0.3752E-02  0.4844E-01
    -20.974  0.1437E-01  0.4998E-01
    -20.867  0.2250E-01  0.5239E-01
    -20.760  0.1967E-01  0.5450E-01
    -20.653  0.1137E-01  0.5572E-01
    -20.546  0.4953E-02  0.5625E-01
    -20.439  0.1135E-01  0.5746E-01
    -20.332  0.1766E-01  0.5936E-01
    -20.225  0.1923E-01  0.6142E-01
    -20.117  0.1344E-01  0.6286E-01
    -20.010  0.9022E-02  0.6382E-01
    -19.903  0.1618E-02  0.6400E-01
    -19.796  0.4428E-04  0.6400E-01
    -19.689  0.1598E-06  0.6400E-01
    -19.582  0.6961E-10  0.6400E-01
    -19.475  0.3444E-14  0.6400E-01
    -19.367  0.0000E+00  0.6400E-01
    -19.260  0.0000E+00  0.6400E-01
    -19.153  0.0000E+00  0.6400E-01
    -19.046  0.0000E+00  0.6400E-01
    -18.939  0.0000E+00  0.6400E-01
    -18.832  0.0000E+00  0.6400E-01
    -18.725  0.0000E+00  0.6400E-01
    -18.618  0.0000E+00  0.6400E-01
    -18.510  0.0000E+00  0.6400E-01
    -18.403  0.0000E+00  0.6400E-01
    -18.296  0.0000E+00  0.6400E-01
    -18.189  0.0000E+00  0.6400E-01
    -18.082  0.0000E+00  0.6400E-01
    -17.975  0.4832E-15  0.6400E-01
    -17.868  0.1428E-10  0.6400E-01
    -17.760  0.4638E-07  0.6400E-01
    -17.653  0.1760E-04  0.6400E-01
    -17.546  0.8820E-03  0.6410E-01
    -17.439  0.7325E-02  0.6488E-01
    -17.332  0.1494E-01  0.6648E-01
    -17.225  0.1431E-01  0.6802E-01
    -17.118  0.1319E-01  0.6943E-01
    -17.011  0.1792E-01  0.7135E-01
    -16.903  0.1893E-01  0.7338E-01
    -16.796  0.1923E-01  0.7544E-01
    -16.689  0.1242E-01  0.7677E-01
    -16.582  0.1208E-01  0.7806E-01
    -16.475  0.1042E-01  0.7918E-01
    -16.368  0.2868E-02  0.7949E-01
    -16.261  0.2178E-03  0.7951E-01
    -16.153  0.1219E-02  0.7964E-01
    -16.046  0.2542E-02  0.7991E-01
    -15.939  0.7897E-03  0.8000E-01
    -15.832  0.3532E-04  0.8000E-01
    -15.725  0.2002E-03  0.8002E-01
    -15.618  0.3804E-02  0.8043E-01
    -15.511  0.1605E-01  0.8215E-01
    -15.404  0.2667E-01  0.8501E-01
    -15.296  0.1934E-01  0.8708E-01
    -15.189  0.6078E-02  0.8773E-01
    -15.082  0.2322E-02  0.8798E-01
    -14.975  0.1661E-02  0.8816E-01
    -14.868  0.2930E-02  0.8847E-01
    -14.761  0.2946E-02  0.8879E-01
    -14.654  0.1801E-02  0.8898E-01
    -14.546  0.8640E-03  0.8907E-01
    -14.439  0.6847E-02  0.8981E-01
    -14.332  0.1400E-01  0.9131E-01
    -14.225  0.1221E-01  0.9261E-01
    -14.118  0.1410E-01  0.9412E-01
    -14.011  0.1505E-01  0.9574E-01
    -13.904  0.1674E-01  0.9753E-01
    -13.797  0.2055E-01  0.9973E-01
    -13.689  0.2427E-01  0.1023E+00
    -13.582  0.2573E-01  0.1051E+00
    -13.475  0.2425E-01  0.1077E+00
    -13.368  0.2516E-01  0.1104E+00
    -13.261  0.2117E-01  0.1126E+00
    -13.154  0.1431E-01  0.1142E+00
    -13.047  0.6373E-02  0.1149E+00
    -12.939  0.6199E-02  0.1155E+00
    -12.832  0.8369E-02  0.1164E+00
    -12.725  0.9725E-02  0.1175E+00
    -12.618  0.7133E-02  0.1182E+00
    -12.511  0.3645E-02  0.1186E+00
    -12.404  0.5742E-02  0.1192E+00
    -12.297  0.7491E-02  0.1200E+00
    -12.190  0.8991E-02  0.1210E+00
    -12.082  0.7103E-02  0.1218E+00
    -11.975  0.1089E-01  0.1229E+00
    -11.868  0.1533E-01  0.1246E+00
    -11.761  0.2193E-01  0.1269E+00
    -11.654  0.2198E-01  0.1293E+00
    -11.547  0.1813E-01  0.1312E+00
    -11.440  0.1716E-01  0.1331E+00
    -11.332  0.1738E-01  0.1349E+00
    -11.225  0.1737E-01  0.1368E+00
    -11.118  0.1684E-01  0.1386E+00
    -11.011  0.1178E-01  0.1398E+00
    -10.904  0.8018E-02  0.1407E+00
    -10.797  0.4756E-02  0.1412E+00
    -10.690  0.1114E-01  0.1424E+00
    -10.582  0.1682E-01  0.1442E+00
    -10.475  0.1618E-01  0.1459E+00
    -10.368  0.1561E-01  0.1476E+00
    -10.261  0.1338E-01  0.1490E+00
    -10.154  0.1442E-01  0.1506E+00
    -10.047  0.1027E-01  0.1517E+00
     -9.940  0.3424E-02  0.1521E+00
     -9.833  0.3240E-02  0.1524E+00
     -9.725  0.7110E-02  0.1532E+00
     -9.618  0.1298E-01  0.1546E+00
     -9.511  0.1603E-01  0.1563E+00
     -9.404  0.2105E-01  0.1585E+00
     -9.297  0.1625E-01  0.1603E+00
     -9.190  0.2027E-01  0.1624E+00
     -9.083  0.2105E-01  0.1647E+00
     -8.975  0.1903E-01  0.1667E+00
     -8.868  0.1341E-01  0.1682E+00
     -8.761  0.1383E-01  0.1697E+00
     -8.654  0.1599E-01  0.1714E+00
     -8.547  0.6130E-02  0.1720E+00
     -8.440  0.2860E-02  0.1723E+00
     -8.333  0.3703E-02  0.1727E+00
     -8.226  0.1123E-01  0.1739E+00
     -8.118  0.1808E-01  0.1759E+00
     -8.011  0.1713E-01  0.1777E+00
     -7.904  0.1801E-01  0.1796E+00
     -7.797  0.1943E-01  0.1817E+00
     -7.690  0.1819E-01  0.1837E+00
     -7.583  0.1315E-01  0.1851E+00
     -7.476  0.1476E-01  0.1867E+00
     -7.368  0.2416E-01  0.1892E+00
     -7.261  0.2890E-01  0.1923E+00
     -7.154  0.2689E-01  0.1952E+00
     -7.047  0.3012E-01  0.1984E+00
     -6.940  0.2820E-01  0.2015E+00
     -6.833  0.2136E-01  0.2038E+00
     -6.726  0.1679E-01  0.2056E+00
     -6.619  0.1997E-01  0.2077E+00
     -6.511  0.2220E-01  0.2101E+00
     -6.404  0.1566E-01  0.2118E+00
     -6.297  0.1267E-01  0.2131E+00
     -6.190  0.1391E-01  0.2146E+00
     -6.083  0.1006E-01  0.2157E+00
     -5.976  0.6830E-02  0.2164E+00
     -5.869  0.1398E-01  0.2179E+00
     -5.761  0.1872E-01  0.2199E+00
     -5.654  0.1926E-01  0.2220E+00
     -5.547  0.2446E-01  0.2246E+00
     -5.440  0.2901E-01  0.2277E+00
     -5.333  0.2540E-01  0.2304E+00
     -5.226  0.2871E-01  0.2335E+00
     -5.119  0.3259E-01  0.2370E+00
     -5.012  0.2734E-01  0.2399E+00
     -4.904  0.2406E-01  0.2425E+00
     -4.797  0.2242E-01  0.2449E+00
     -4.690  0.2121E-01  0.2472E+00
     -4.583  0.2404E-01  0.2497E+00
     -4.476  0.2299E-01  0.2522E+00
     -4.369  0.2423E-01  0.2548E+00
     -4.262  0.3064E-01  0.2581E+00
     -4.154  0.2688E-01  0.2610E+00
     -4.047  0.1554E-01  0.2626E+00
     -3.940  0.1552E-01  0.2643E+00
     -3.833  0.1358E-01  0.2658E+00
     -3.726  0.9230E-02  0.2667E+00
     -3.619  0.9742E-02  0.2678E+00
     -3.512  0.6088E-02  0.2684E+00
     -3.405  0.1774E-01  0.2703E+00
     -3.297  0.2330E-01  0.2728E+00
     -3.190  0.1198E-01  0.2741E+00
     -3.083  0.1046E-01  0.2752E+00
     -2.976  0.9628E-02  0.2763E+00
     -2.869  0.1082E-01  0.2774E+00
     -2.762  0.6396E-02  0.2781E+00
     -2.655  0.1176E-01  0.2794E+00
     -2.547  0.1922E-01  0.2814E+00
     -2.440  0.1396E-01  0.2829E+00
     -2.333  0.9281E-02  0.2839E+00
     -2.226  0.6970E-02  0.2847E+00
     -2.119  0.9663E-02  0.2857E+00
     -2.012  0.6209E-02  0.2864E+00
     -1.905  0.1097E-01  0.2875E+00
     -1.798  0.1365E-01  0.2890E+00
     -1.690  0.1323E-01  0.2904E+00
     -1.583  0.1469E-01  0.2920E+00
     -1.476  0.1474E-01  0.2936E+00
     -1.369  0.1115E-01  0.2948E+00
     -1.262  0.8374E-02  0.2957E+00
     -1.155  0.1342E-01  0.2971E+00
     -1.048  0.2195E-01  0.2995E+00
     -0.940  0.2176E-01  0.3018E+00
     -0.833  0.1570E-01  0.3035E+00
     -0.726  0.8810E-02  0.3044E+00
     -0.619  0.1278E-01  0.3058E+00
     -0.512  0.1168E-01  0.3070E+00
     -0.405  0.1436E-01  0.3086E+00
     -0.298  0.1863E-01  0.3106E+00
     -0.191  0.1100E-01  0.3117E+00
     -0.083  0.2268E-02  0.3120E+00
      0.024  0.9001E-04  0.3120E+00
      0.131  0.5721E-06  0.3120E+00
      0.238  0.2586E-04  0.3120E+00
      0.345  0.1211E-02  0.3121E+00
      0.452  0.8000E-02  0.3130E+00
      0.559  0.8790E-02  0.3139E+00
      0.667  0.5922E-02  0.3146E+00
      0.774  0.9701E-02  0.3156E+00
      0.881  0.1253E-01  0.3169E+00
      0.988  0.1072E-01  0.3181E+00
      1.095  0.1100E-01  0.3193E+00
      1.202  0.8562E-02  0.3202E+00
      1.309  0.9966E-02  0.3213E+00
      1.416  0.1776E-01  0.3232E+00
      1.524  0.2443E-01  0.3258E+00
      1.631  0.2029E-01  0.3280E+00
      1.738  0.2388E-01  0.3305E+00
      1.845  0.2836E-01  0.3336E+00
      1.952  0.2249E-01  0.3360E+00
      2.059  0.1620E-01  0.3377E+00
      2.166  0.1805E-01  0.3396E+00
      2.274  0.1461E-01  0.3412E+00
      2.381  0.1539E-01  0.3428E+00
      2.488  0.1480E-01  0.3444E+00
      2.595  0.1528E-01  0.3461E+00
      2.702  0.1893E-01  0.3481E+00
      2.809  0.2036E-01  0.3503E+00
      2.916  0.1132E-01  0.3515E+00
      3.023  0.3966E-02  0.3519E+00
      3.131  0.7914E-03  0.3520E+00
      3.238  0.3073E-04  0.3520E+00
      3.345  0.1514E-06  0.3520E+00
      3.452  0.8400E-10  0.3520E+00
      3.559  0.5012E-14  0.3520E+00
      3.666  0.0000E+00  0.3520E+00
      3.773  0.0000E+00  0.3520E+00
      3.881  0.0000E+00  0.3520E+00
      3.988  0.0000E+00  0.3520E+00
      4.095  0.0000E+00  0.3520E+00
      4.202  0.0000E+00  0.3520E+00
      4.309  0.0000E+00  0.3520E+00
      4.416  0.0000E+00  0.3520E+00
