       N       E                     dE             d eps       ncg     rms          rms(c)
DAV:   1     0.264747018886E+04    0.26475E+04   -0.10191E+05  1600   0.104E+03
DAV:   2     0.457504090228E+01   -0.26429E+04   -0.25154E+04  2040   0.297E+02
DAV:   3    -0.490283603193E+03   -0.49486E+03   -0.48724E+03  1736   0.141E+02
DAV:   4    -0.519016350803E+03   -0.28733E+02   -0.27647E+02  2144   0.520E+01
DAV:   5    -0.519683803544E+03   -0.66745E+00   -0.63921E+00  1896   0.460E+00    0.661E+01
DAV:   6    -0.586025362225E+03   -0.66342E+02   -0.51055E+02  1888   0.195E+02    0.452E+01
DAV:   7    -0.509461256036E+03    0.76564E+02   -0.20568E+02  1712   0.385E+01    0.290E+01
DAV:   8    -0.483287532528E+03    0.26174E+02   -0.11213E+02  2000   0.959E+01    0.115E+01
DAV:   9    -0.522289166322E+03   -0.39002E+02   -0.73611E+01  2200   0.788E+01    0.777E+01
DAV:  10    -0.485577329762E+03    0.36712E+02   -0.32414E+00  2096   0.910E+00    0.231E+01
DAV:  11    -0.485999091002E+03   -0.42176E+00   -0.42459E+00  1984   0.595E+00    0.370E+01
DAV:  12    -0.484502964021E+03    0.14961E+01   -0.50391E+01  2136   0.295E+01    0.884E+00
DAV:  13    -0.483596632211E+03    0.90633E+00   -0.20876E+00  2056   0.151E+01    0.578E+00
DAV:  14    -0.483694522938E+03   -0.97891E-01   -0.24836E-01  2048   0.234E+00    0.610E+00
DAV:  15    -0.483241063302E+03    0.45346E+00   -0.41764E-01  2256   0.928E+00    0.405E+00
DAV:  16    -0.483229152695E+03    0.11911E-01   -0.55352E-02  1840   0.881E-01    0.364E+00
DAV:  17    -0.483071414585E+03    0.15774E+00   -0.15866E-01  2200   0.555E+00    0.204E+00
DAV:  18    -0.483053684851E+03    0.17730E-01   -0.24329E-02  2112   0.995E-01    0.169E+00
DAV:  19    -0.483046420564E+03    0.72643E-02   -0.47521E-03  2032   0.581E-01    0.155E+00
DAV:  20    -0.483021978033E+03    0.24443E-01   -0.18866E-02  2144   0.178E+00    0.993E-01
DAV:  21    -0.483028528950E+03   -0.65509E-02   -0.39892E-03  2160   0.497E-01    0.118E+00
DAV:  22    -0.483020413025E+03    0.81159E-02   -0.40404E-03  2080   0.754E-01    0.905E-01
DAV:  23    -0.483013614761E+03    0.67983E-02   -0.78348E-03  2128   0.104E+00    0.560E-01
DAV:  24    -0.483012845128E+03    0.76963E-03   -0.19196E-03  2112   0.198E-01    0.490E-01
DAV:  25    -0.483011225208E+03    0.16199E-02   -0.94357E-04  1856   0.394E-01    0.354E-01
DAV:  26    -0.483010714446E+03    0.51076E-03   -0.48755E-04  1960   0.154E-01    0.299E-01
DAV:  27    -0.483010212244E+03    0.50220E-03   -0.24428E-04  1864   0.177E-01    0.237E-01
DAV:  28    -0.483010085358E+03    0.12689E-03   -0.14138E-04  1632   0.773E-02    0.215E-01
DAV:  29    -0.483009995677E+03    0.89681E-04   -0.25892E-05  1208   0.509E-02    0.197E-01
DAV:  30    -0.483009713017E+03    0.28266E-03   -0.27928E-04  1544   0.198E-01    0.120E-01
DAV:  31    -0.483009661332E+03    0.51685E-04   -0.92481E-05  1616   0.622E-02    0.962E-02
DAV:  32    -0.483009627877E+03    0.33455E-04   -0.19692E-05  1208   0.403E-02    0.815E-02
DAV:  33    -0.483009587687E+03    0.40190E-04   -0.44263E-05  1352   0.730E-02    0.531E-02
DAV:  34    -0.483009560219E+03    0.27468E-04   -0.28411E-05  1280   0.463E-02    0.339E-02
DAV:  35    -0.483009554682E+03    0.55373E-05   -0.76776E-06  1112   0.174E-02
   1 F= -.48300955E+03 E0= -.48297570E+03  d E =-.483010E+03
       N       E                     dE             d eps       ncg     rms          rms(c)
DAV:   1    -0.483134975754E+03   -0.12542E+00   -0.81766E+00  1456   0.548E+00    0.782E-01
DAV:   2    -0.483153762778E+03   -0.18787E-01   -0.17656E-01  1976   0.147E+00    0.113E+00
DAV:   3    -0.483147261549E+03    0.65012E-02   -0.26409E-02  1984   0.877E-01    0.488E-01
DAV:   4    -0.483147940053E+03   -0.67850E-03   -0.77186E-03  1976   0.573E-01    0.516E-01
DAV:   5    -0.483147016889E+03    0.92316E-03   -0.91015E-03  1952   0.550E-01    0.323E-01
DAV:   6    -0.483146153767E+03    0.86312E-03   -0.36072E-03  1872   0.275E-01    0.604E-02
DAV:   7    -0.483146155235E+03   -0.14677E-05   -0.41435E-04  1880   0.148E-01    0.636E-02
DAV:   8    -0.483146123511E+03    0.31724E-04   -0.17882E-04  1536   0.118E-01    0.329E-02
DAV:   9    -0.483146118775E+03    0.47356E-05   -0.46271E-05  1320   0.448E-02
   2 F= -.48314612E+03 E0= -.48311104E+03  d E =-.136564E+00
       N       E                     dE             d eps       ncg     rms          rms(c)
DAV:   1    -0.483220265756E+03   -0.74142E-01   -0.38501E+01  1416   0.119E+01    0.158E+00
DAV:   2    -0.483309217443E+03   -0.88952E-01   -0.87679E-01  2000   0.287E+00    0.230E+00
DAV:   3    -0.483283063237E+03    0.26154E-01   -0.11497E-01  1720   0.122E+00    0.105E+00
DAV:   4    -0.483286291082E+03   -0.32278E-02   -0.41790E-02  2040   0.164E+00    0.130E+00
DAV:   5    -0.483278746797E+03    0.75443E-02   -0.51878E-02  2064   0.197E+00    0.785E-01
DAV:   6    -0.483275014985E+03    0.37318E-02   -0.18065E-02  2008   0.998E-01    0.184E-01
DAV:   7    -0.483274972469E+03    0.42516E-04   -0.26792E-03  1928   0.315E-01    0.149E-01
DAV:   8    -0.483274772586E+03    0.19988E-03   -0.12229E-03  2000   0.243E-01    0.813E-02
DAV:   9    -0.483274741679E+03    0.30907E-04   -0.23904E-04  1776   0.642E-02    0.314E-02
DAV:  10    -0.483274774078E+03   -0.32398E-04   -0.54494E-05  1320   0.195E-02    0.144E-02
DAV:  11    -0.483274800876E+03   -0.26798E-04   -0.74416E-06   984   0.124E-02    0.397E-03
DAV:  12    -0.483274828706E+03   -0.27830E-04   -0.45073E-06  1008   0.691E-03    0.237E-03
DAV:  13    -0.483274856138E+03   -0.27432E-04   -0.27126E-06  1000   0.635E-03    0.246E-03
DAV:  14    -0.483274876967E+03   -0.20829E-04   -0.21218E-06  1024   0.476E-03    0.111E-03
DAV:  15    -0.483274888699E+03   -0.11732E-04   -0.15506E-06   984   0.337E-03    0.910E-04
DAV:  16    -0.483274894790E+03   -0.60903E-05   -0.86741E-07   952   0.295E-03
   3 F= -.48327489E+03 E0= -.48323684E+03  d E =-.265340E+00
       N       E                     dE             d eps       ncg     rms          rms(c)
DAV:   1    -0.483344282416E+03   -0.69394E-01   -0.12740E+01  1424   0.720E+00    0.866E-01
DAV:   2    -0.483374579962E+03   -0.30298E-01   -0.29019E-01  2040   0.168E+00    0.134E+00
DAV:   3    -0.483365424987E+03    0.91550E-02   -0.36356E-02  2000   0.809E-01    0.604E-01
DAV:   4    -0.483363726523E+03    0.16985E-02   -0.10865E-02  1944   0.876E-01    0.572E-01
DAV:   5    -0.483363247121E+03    0.47940E-03   -0.15713E-02  2056   0.120E+00    0.429E-01
DAV:   6    -0.483361532167E+03    0.17150E-02   -0.68844E-03  2080   0.703E-01    0.797E-02
DAV:   7    -0.483361617990E+03   -0.85823E-04   -0.54293E-04  1896   0.659E-02    0.588E-02
DAV:   8    -0.483361600817E+03    0.17173E-04   -0.10160E-04  1688   0.290E-02    0.247E-02
DAV:   9    -0.483361614807E+03   -0.13990E-04   -0.47060E-05  1312   0.223E-02    0.227E-02
DAV:  10    -0.483361618736E+03   -0.39291E-05   -0.24460E-05  1128   0.173E-02
   4 F= -.48336162E+03 E0= -.48332027E+03  d E =-.867239E-01
       N       E                     dE             d eps       ncg     rms          rms(c)
DAV:   1    -0.483369536918E+03   -0.79221E-02   -0.49259E+00  1424   0.447E+00    0.553E-01
DAV:   2    -0.483381984630E+03   -0.12448E-01   -0.11738E-01  1992   0.110E+00    0.944E-01
DAV:   3    -0.483377719500E+03    0.42651E-02   -0.16460E-02  2056   0.664E-01    0.398E-01
DAV:   4    -0.483376713006E+03    0.10065E-02   -0.33187E-03  1968   0.431E-01    0.334E-01
DAV:   5    -0.483376459293E+03    0.25371E-03   -0.44846E-03  2064   0.549E-01    0.222E-01
DAV:   6    -0.483376022118E+03    0.43717E-03   -0.30569E-03  2032   0.404E-01    0.613E-02
DAV:   7    -0.483376024315E+03   -0.21966E-05   -0.28107E-04  1768   0.941E-02    0.386E-02
DAV:   8    -0.483376022654E+03    0.16604E-05   -0.50751E-05  1368   0.329E-02
   5 F= -.48337602E+03 E0= -.48333272E+03  d E =-.101128E+00
       N       E                     dE             d eps       ncg     rms          rms(c)
DAV:   1    -0.483412388959E+03   -0.36365E-01   -0.14068E+01  1408   0.687E+00    0.817E-01
DAV:   2    -0.483452697849E+03   -0.40309E-01   -0.29885E-01  2008   0.169E+00    0.168E+00
DAV:   3    -0.483434625939E+03    0.18072E-01   -0.43513E-02  1976   0.969E-01    0.533E-01
DAV:   4    -0.483433928052E+03    0.69789E-03   -0.67287E-03  1952   0.566E-01    0.501E-01
DAV:   5    -0.483434347144E+03   -0.41909E-03   -0.12273E-02  2048   0.940E-01    0.389E-01
DAV:   6    -0.483432718785E+03    0.16284E-02   -0.65283E-03  2120   0.669E-01    0.816E-02
DAV:   7    -0.483432805209E+03   -0.86424E-04   -0.51080E-04  1912   0.861E-02    0.503E-02
DAV:   8    -0.483432802075E+03    0.31342E-05   -0.23863E-04  1776   0.517E-02    0.464E-02
DAV:   9    -0.483432790266E+03    0.11810E-04   -0.90805E-05  1360   0.454E-02    0.211E-02
DAV:  10    -0.483432797667E+03   -0.74017E-05   -0.22443E-05  1136   0.192E-02
   6 F= -.48343280E+03 E0= -.48338801E+03  d E =-.567750E-01
       N       E                     dE             d eps       ncg     rms          rms(c)
DAV:   1    -0.483431653058E+03    0.11372E-02   -0.15749E+01  1408   0.723E+00    0.867E-01
DAV:   2    -0.483479522283E+03   -0.47869E-01   -0.34120E-01  1984   0.178E+00    0.191E+00
DAV:   3    -0.483456514521E+03    0.23008E-01   -0.53069E-02  1976   0.106E+00    0.578E-01
DAV:   4    -0.483455503319E+03    0.10112E-02   -0.91697E-03  1944   0.626E-01    0.538E-01
DAV:   5    -0.483455955243E+03   -0.45192E-03   -0.14719E-02  2032   0.984E-01    0.421E-01
DAV:   6    -0.483454045108E+03    0.19101E-02   -0.70590E-03  2088   0.649E-01    0.898E-02
DAV:   7    -0.483454172178E+03   -0.12707E-03   -0.81427E-04  1784   0.883E-02    0.692E-02
DAV:   8    -0.483454151852E+03    0.20326E-04   -0.49445E-04  1880   0.886E-02    0.527E-02
DAV:   9    -0.483454134687E+03    0.17165E-04   -0.10559E-04  1296   0.571E-02    0.230E-02
DAV:  10    -0.483454148341E+03   -0.13653E-04   -0.32493E-05  1192   0.189E-02    0.115E-02
DAV:  11    -0.483454161446E+03   -0.13106E-04   -0.66219E-06   976   0.150E-02    0.592E-03
DAV:  12    -0.483454172550E+03   -0.11104E-04   -0.30385E-06   928   0.875E-03    0.184E-03
DAV:  13    -0.483454186306E+03   -0.13756E-04   -0.22588E-06   968   0.579E-03    0.160E-03
DAV:  14    -0.483454197933E+03   -0.11627E-04   -0.17874E-06   992   0.621E-03    0.151E-03
DAV:  15    -0.483454206682E+03   -0.87489E-05   -0.13607E-06   952   0.352E-03
   7 F= -.48345421E+03 E0= -.48340815E+03  d E =-.781840E-01
       N       E                     dE             d eps       ncg     rms          rms(c)
DAV:   1    -0.483474167325E+03   -0.19969E-01   -0.18685E+01  1416   0.822E+00    0.968E-01
DAV:   2    -0.483530668864E+03   -0.56502E-01   -0.43459E-01  1928   0.199E+00    0.203E+00
DAV:   3    -0.483506432046E+03    0.24237E-01   -0.63097E-02  1952   0.111E+00    0.648E-01
DAV:   4    -0.483504827148E+03    0.16049E-02   -0.13091E-02  1968   0.625E-01    0.588E-01
DAV:   5    -0.483505120578E+03   -0.29343E-03   -0.17636E-02  2096   0.989E-01    0.472E-01
DAV:   6    -0.483503327682E+03    0.17929E-02   -0.10792E-02  2112   0.771E-01    0.139E-01
DAV:   7    -0.483503160017E+03    0.16767E-03   -0.14834E-03  2064   0.206E-01    0.776E-02
DAV:   8    -0.483503193865E+03   -0.33848E-04   -0.46585E-04  1672   0.612E-02    0.580E-02
DAV:   9    -0.483503166816E+03    0.27048E-04   -0.18780E-04  1408   0.767E-02    0.325E-02
DAV:  10    -0.483503173285E+03   -0.64688E-05   -0.40344E-05  1216   0.305E-02
   8 F= -.48350317E+03 E0= -.48345695E+03  d E =-.489666E-01
       N       E                     dE             d eps       ncg     rms          rms(c)
DAV:   1    -0.483501342050E+03    0.18248E-02   -0.44467E+00  1416   0.402E+00    0.475E-01
DAV:   2    -0.483516155929E+03   -0.14814E-01   -0.11438E-01  2008   0.102E+00    0.104E+00
DAV:   3    -0.483509616297E+03    0.65396E-02   -0.14198E-02  1960   0.579E-01    0.313E-01
DAV:   4    -0.483509300189E+03    0.31611E-03   -0.30309E-03  1928   0.280E-01    0.276E-01
DAV:   5    -0.483509353549E+03   -0.53360E-04   -0.38864E-03  2048   0.438E-01    0.216E-01
DAV:   6    -0.483508963939E+03    0.38961E-03   -0.25211E-03  2072   0.351E-01    0.629E-02
DAV:   7    -0.483508947734E+03    0.16204E-04   -0.32032E-04  1400   0.101E-01    0.340E-02
DAV:   8    -0.483508959586E+03   -0.11851E-04   -0.71817E-05  1256   0.259E-02    0.237E-02
DAV:   9    -0.483508961629E+03   -0.20438E-05   -0.34058E-05  1200   0.354E-02
   9 F= -.48350896E+03 E0= -.48346278E+03  d E =-.547549E-01
       N       E                     dE             d eps       ncg     rms          rms(c)
DAV:   1    -0.483515491529E+03   -0.65319E-02   -0.15294E+01  1408   0.756E+00    0.811E-01
DAV:   2    -0.483551692913E+03   -0.36201E-01   -0.36139E-01  1960   0.161E+00    0.125E+00
DAV:   3    -0.483545639079E+03    0.60538E-02   -0.36143E-02  1912   0.705E-01    0.686E-01
DAV:   4    -0.483542845195E+03    0.27939E-02   -0.17312E-02  2056   0.694E-01    0.503E-01
DAV:   5    -0.483542711022E+03    0.13417E-03   -0.13346E-02  2064   0.923E-01    0.372E-01
DAV:   6    -0.483541795370E+03    0.91565E-03   -0.52319E-03  2064   0.597E-01    0.150E-01
DAV:   7    -0.483541731628E+03    0.63742E-04   -0.10143E-03  2048   0.145E-01    0.865E-02
DAV:   8    -0.483541713462E+03    0.18166E-04   -0.55010E-04  1680   0.640E-02    0.536E-02
DAV:   9    -0.483541690507E+03    0.22955E-04   -0.12161E-04  1352   0.602E-02    0.257E-02
DAV:  10    -0.483541701238E+03   -0.10731E-04   -0.40543E-05  1208   0.179E-02    0.717E-03
DAV:  11    -0.483541712150E+03   -0.10912E-04   -0.58750E-06   992   0.137E-02    0.397E-03
DAV:  12    -0.483541721167E+03   -0.90176E-05   -0.26465E-06   944   0.653E-03
  10 F= -.48354172E+03 E0= -.48349601E+03  d E =-.327595E-01
       N       E                     dE             d eps       ncg     rms          rms(c)
DAV:   1    -0.483537420156E+03    0.42920E-02   -0.49074E+00  1408   0.428E+00    0.459E-01
DAV:   2    -0.483549602440E+03   -0.12182E-01   -0.12137E-01  1952   0.922E-01    0.716E-01
DAV:   3    -0.483547552186E+03    0.20503E-02   -0.13840E-02  1920   0.406E-01    0.394E-01
DAV:   4    -0.483546671294E+03    0.88089E-03   -0.53814E-03  2040   0.399E-01    0.281E-01
DAV:   5    -0.483546626505E+03    0.44789E-04   -0.43211E-03  2064   0.524E-01    0.208E-01
DAV:   6    -0.483546307630E+03    0.31887E-03   -0.17525E-03  2056   0.330E-01    0.722E-02
DAV:   7    -0.483546315280E+03   -0.76502E-05   -0.28194E-04  1616   0.725E-02    0.452E-02
DAV:   8    -0.483546307475E+03    0.78057E-05   -0.14267E-04  1272   0.367E-02    0.275E-02
DAV:   9    -0.483546303461E+03    0.40141E-05   -0.33092E-05  1216   0.348E-02
  11 F= -.48354630E+03 E0= -.48350094E+03  d E =-.373418E-01
       N       E                     dE             d eps       ncg     rms          rms(c)
DAV:   1    -0.483542389126E+03    0.39183E-02   -0.17428E+01  1408   0.846E+00    0.800E-01
DAV:   2    -0.483578875057E+03   -0.36486E-01   -0.40710E-01  1968   0.171E+00    0.882E-01
DAV:   3    -0.483579364825E+03   -0.48977E-03   -0.32729E-02  1968   0.673E-01    0.901E-01
DAV:   4    -0.483573546124E+03    0.58187E-02   -0.26241E-02  2032   0.702E-01    0.473E-01
DAV:   5    -0.483573109062E+03    0.43706E-03   -0.12955E-02  2064   0.747E-01    0.288E-01
DAV:   6    -0.483572628130E+03    0.48093E-03   -0.44089E-03  2072   0.446E-01    0.169E-01
DAV:   7    -0.483572516844E+03    0.11129E-03   -0.10203E-03  1976   0.126E-01    0.655E-02
DAV:   8    -0.483572542446E+03   -0.25602E-04   -0.54547E-04  1768   0.107E-01    0.641E-02
DAV:   9    -0.483572504428E+03    0.38018E-04   -0.20946E-04  1344   0.955E-02    0.183E-02
DAV:  10    -0.483572518900E+03   -0.14472E-04   -0.23951E-05  1096   0.211E-02    0.685E-03
DAV:  11    -0.483572530011E+03   -0.11111E-04   -0.62427E-06   952   0.153E-02    0.299E-03
DAV:  12    -0.483572540224E+03   -0.10213E-04   -0.32589E-06   936   0.743E-03    0.148E-03
DAV:  13    -0.483572548667E+03   -0.84425E-05   -0.17872E-06   992   0.616E-03
  12 F= -.48357255E+03 E0= -.48352805E+03  d E =-.262452E-01
       N       E                     dE             d eps       ncg     rms          rms(c)
DAV:   1    -0.483572044875E+03    0.49535E-03   -0.66486E-01  1408   0.165E+00    0.156E-01
DAV:   2    -0.483573569440E+03   -0.15246E-02   -0.16516E-02  1944   0.339E-01    0.183E-01
DAV:   3    -0.483573527275E+03    0.42165E-04   -0.14397E-03  1904   0.133E-01    0.174E-01
DAV:   4    -0.483573322948E+03    0.20433E-03   -0.87150E-04  1952   0.141E-01    0.923E-02
DAV:   5    -0.483573314351E+03    0.85974E-05   -0.48974E-04  1472   0.158E-01    0.572E-02
DAV:   6    -0.483573293117E+03    0.21234E-04   -0.16675E-04  1488   0.100E-01    0.250E-02
DAV:   7    -0.483573295160E+03   -0.20426E-05   -0.26167E-05  1128   0.354E-02
  13 F= -.48357330E+03 E0= -.48352899E+03  d E =-.269917E-01
       N       E                     dE             d eps       ncg     rms          rms(c)
DAV:   1    -0.483575780679E+03   -0.24876E-02   -0.99905E+00  1408   0.686E+00    0.574E-01
DAV:   2    -0.483594836868E+03   -0.19056E-01   -0.22878E-01  1968   0.127E+00    0.350E-01
DAV:   3    -0.483594521734E+03    0.31513E-03   -0.11127E-02  2176   0.570E-01    0.336E-01
DAV:   4    -0.483594682836E+03   -0.16110E-03   -0.65382E-03  2096   0.649E-01    0.337E-01
DAV:   5    -0.483594768306E+03   -0.85469E-04   -0.36103E-03  1848   0.209E-01    0.333E-01
DAV:   6    -0.483593930186E+03    0.83812E-03   -0.29019E-03  1984   0.317E-01    0.716E-02
DAV:   7    -0.483593993726E+03   -0.63540E-04   -0.95023E-04  1792   0.993E-02    0.829E-02
DAV:   8    -0.483593929085E+03    0.64641E-04   -0.35651E-04  1320   0.510E-02    0.288E-02
DAV:   9    -0.483593932799E+03   -0.37139E-05   -0.29197E-05  1168   0.264E-02
  14 F= -.48359393E+03 E0= -.48355035E+03  d E =-.206376E-01
       N       E                     dE             d eps       ncg     rms          rms(c)
DAV:   1    -0.483590040537E+03    0.38885E-02   -0.41584E+00  1408   0.443E+00    0.368E-01
DAV:   2    -0.483598177327E+03   -0.81368E-02   -0.97296E-02  1960   0.826E-01    0.226E-01
DAV:   3    -0.483597969556E+03    0.20777E-03   -0.45479E-03  2216   0.341E-01    0.188E-01
DAV:   4    -0.483598002120E+03   -0.32564E-04   -0.33962E-03  2104   0.450E-01    0.178E-01
DAV:   5    -0.483597944558E+03    0.57562E-04   -0.13581E-03  2032   0.289E-01    0.164E-01
DAV:   6    -0.483597781743E+03    0.16282E-03   -0.54755E-04  1752   0.824E-02    0.687E-02
DAV:   7    -0.483597800899E+03   -0.19156E-04   -0.36918E-04  1344   0.469E-02    0.505E-02
DAV:   8    -0.483597782294E+03    0.18605E-04   -0.12335E-04  1272   0.461E-02    0.182E-02
DAV:   9    -0.483597788919E+03   -0.66251E-05   -0.13540E-05  1056   0.256E-02
  15 F= -.48359779E+03 E0= -.48355482E+03  d E =-.244938E-01
       N       E                     dE             d eps       ncg     rms          rms(c)
DAV:   1    -0.483604604290E+03   -0.68220E-02   -0.79565E+00  1408   0.633E+00    0.528E-01
DAV:   2    -0.483622525867E+03   -0.17922E-01   -0.17066E-01  2008   0.126E+00    0.956E-01
DAV:   3    -0.483617923248E+03    0.46026E-02   -0.23570E-02  2008   0.620E-01    0.474E-01
DAV:   4    -0.483616234126E+03    0.16891E-02   -0.58692E-03  1960   0.384E-01    0.239E-01
DAV:   5    -0.483616586058E+03   -0.35193E-03   -0.57229E-03  2112   0.531E-01    0.244E-01
DAV:   6    -0.483616048039E+03    0.53802E-03   -0.32792E-03  2152   0.441E-01    0.653E-02
DAV:   7    -0.483616094579E+03   -0.46540E-04   -0.39460E-04  1624   0.106E-01    0.497E-02
DAV:   8    -0.483616086713E+03    0.78667E-05   -0.17212E-04  1320   0.422E-02    0.318E-02
DAV:   9    -0.483616082929E+03    0.37839E-05   -0.47539E-05  1288   0.432E-02
  16 F= -.48361608E+03 E0= -.48357420E+03  d E =-.182940E-01
       N       E                     dE             d eps       ncg     rms          rms(c)
DAV:   1    -0.483612809514E+03    0.32772E-02   -0.77146E+00  1408   0.623E+00    0.515E-01
DAV:   2    -0.483630104875E+03   -0.17295E-01   -0.16510E-01  2008   0.126E+00    0.926E-01
DAV:   3    -0.483625712784E+03    0.43921E-02   -0.23061E-02  2032   0.618E-01    0.458E-01
DAV:   4    -0.483624097946E+03    0.16148E-02   -0.52685E-03  1960   0.346E-01    0.224E-01
DAV:   5    -0.483624451670E+03   -0.35372E-03   -0.51854E-03  2072   0.478E-01    0.235E-01
DAV:   6    -0.483623956367E+03    0.49530E-03   -0.32730E-03  2128   0.424E-01    0.660E-02
DAV:   7    -0.483623991313E+03   -0.34945E-04   -0.36880E-04  1584   0.111E-01    0.443E-02
DAV:   8    -0.483623990749E+03    0.56393E-06   -0.14220E-04  1304   0.396E-02    0.310E-02
DAV:   9    -0.483623987306E+03    0.34425E-05   -0.47252E-05  1272   0.436E-02
  17 F= -.48362399E+03 E0= -.48358331E+03  d E =-.261984E-01
       N       E                     dE             d eps       ncg     rms          rms(c)
DAV:   1    -0.483629747778E+03   -0.57570E-02   -0.11019E+01  1408   0.772E+00    0.655E-01
DAV:   2    -0.483659971414E+03   -0.30224E-01   -0.24648E-01  2000   0.150E+00    0.140E+00
DAV:   3    -0.483647827586E+03    0.12144E-01   -0.47244E-02  1976   0.712E-01    0.551E-01
DAV:   4    -0.483645983396E+03    0.18442E-02   -0.11618E-02  1984   0.694E-01    0.359E-01
DAV:   5    -0.483645578284E+03    0.40511E-03   -0.92236E-03  2088   0.739E-01    0.255E-01
DAV:   6    -0.483645343370E+03    0.23491E-03   -0.32626E-03  2128   0.381E-01    0.114E-01
DAV:   7    -0.483645276733E+03    0.66636E-04   -0.12551E-03  1832   0.107E-01    0.777E-02
DAV:   8    -0.483645239657E+03    0.37077E-04   -0.28451E-04  1448   0.527E-02    0.262E-02
DAV:   9    -0.483645245683E+03   -0.60268E-05   -0.24864E-05  1136   0.353E-02
  18 F= -.48364525E+03 E0= -.48360629E+03  d E =-.212584E-01
       N       E                     dE             d eps       ncg     rms          rms(c)
DAV:   1    -0.483643763409E+03    0.14762E-02   -0.41216E+00  1408   0.472E+00    0.399E-01
DAV:   2    -0.483655495620E+03   -0.11732E-01   -0.93830E-02  1976   0.923E-01    0.880E-01
DAV:   3    -0.483650376260E+03    0.51194E-02   -0.17645E-02  2008   0.499E-01    0.310E-01
DAV:   4    -0.483649788662E+03    0.58760E-03   -0.30736E-03  1968   0.310E-01    0.181E-01
DAV:   5    -0.483649920554E+03   -0.13189E-03   -0.33045E-03  2072   0.432E-01    0.181E-01
DAV:   6    -0.483649653269E+03    0.26729E-03   -0.16877E-03  2056   0.308E-01    0.499E-02
DAV:   7    -0.483649684807E+03   -0.31538E-04   -0.34724E-04  1600   0.599E-02    0.464E-02
DAV:   8    -0.483649669432E+03    0.15375E-04   -0.11515E-04  1280   0.365E-02    0.172E-02
DAV:   9    -0.483649675267E+03   -0.58349E-05   -0.11231E-05  1016   0.245E-02
  19 F= -.48364968E+03 E0= -.48361185E+03  d E =-.256880E-01
       N       E                     dE             d eps       ncg     rms          rms(c)
DAV:   1    -0.483651426279E+03   -0.17568E-02   -0.10697E+01  1408   0.763E+00    0.555E-01
DAV:   2    -0.483670162064E+03   -0.18736E-01   -0.21490E-01  2000   0.139E+00    0.567E-01
DAV:   3    -0.483670495820E+03   -0.33376E-03   -0.24307E-02  1832   0.442E-01    0.539E-01
DAV:   4    -0.483668308948E+03    0.21869E-02   -0.68503E-03  1832   0.318E-01    0.310E-01
DAV:   5    -0.483668513694E+03   -0.20475E-03   -0.62109E-03  2048   0.502E-01    0.284E-01
DAV:   6    -0.483667851117E+03    0.66258E-03   -0.36773E-03  2096   0.389E-01    0.706E-02
DAV:   7    -0.483667953017E+03   -0.10190E-03   -0.71581E-04  1880   0.184E-01    0.690E-02
DAV:   8    -0.483667896543E+03    0.56474E-04   -0.21395E-04  1504   0.111E-01    0.239E-02
DAV:   9    -0.483667911178E+03   -0.14635E-04   -0.27516E-05  1112   0.191E-02    0.805E-03
DAV:  10    -0.483667923399E+03   -0.12220E-04   -0.62958E-06   968   0.130E-02    0.311E-03
DAV:  11    -0.483667933927E+03   -0.10528E-04   -0.35645E-06   976   0.779E-03    0.197E-03
DAV:  12    -0.483667942228E+03   -0.83015E-05   -0.17139E-06   984   0.565E-03
  20 F= -.48366794E+03 E0= -.48363204E+03  d E =-.182670E-01
       N       E                     dE             d eps       ncg     rms          rms(c)
DAV:   1    -0.483655354784E+03    0.12579E-01   -0.13453E+01  1408   0.856E+00    0.610E-01
DAV:   2    -0.483678341303E+03   -0.22987E-01   -0.26644E-01  2000   0.160E+00    0.562E-01
DAV:   3    -0.483678773637E+03   -0.43233E-03   -0.29870E-02  1912   0.577E-01    0.536E-01
DAV:   4    -0.483676626491E+03    0.21471E-02   -0.90090E-03  1816   0.293E-01    0.336E-01
DAV:   5    -0.483677016223E+03   -0.38973E-03   -0.63895E-03  2056   0.573E-01    0.337E-01
DAV:   6    -0.483676028623E+03    0.98760E-03   -0.42778E-03  2080   0.446E-01    0.694E-02
DAV:   7    -0.483676147851E+03   -0.11923E-03   -0.52977E-04  1920   0.123E-01    0.535E-02
DAV:   8    -0.483676119051E+03    0.28799E-04   -0.15073E-04  1424   0.856E-02    0.272E-02
DAV:   9    -0.483676127195E+03   -0.81437E-05   -0.26622E-05  1088   0.293E-02
  21 F= -.48367613E+03 E0= -.48364229E+03  d E =-.264519E-01
       N       E                     dE             d eps       ncg     rms          rms(c)
DAV:   1    -0.483673377026E+03    0.27420E-02   -0.13168E+01  1408   0.860E+00    0.618E-01
DAV:   2    -0.483696579095E+03   -0.23202E-01   -0.26947E-01  1992   0.170E+00    0.541E-01
DAV:   3    -0.483696403471E+03    0.17562E-03   -0.31004E-02  2120   0.108E+00    0.555E-01
DAV:   4    -0.483694259234E+03    0.21442E-02   -0.89912E-03  2128   0.669E-01    0.293E-01
DAV:   5    -0.483694963317E+03   -0.70408E-03   -0.68563E-03  1824   0.250E-01    0.380E-01
DAV:   6    -0.483693915817E+03    0.10475E-02   -0.47099E-03  1904   0.246E-01    0.921E-02
DAV:   7    -0.483693934688E+03   -0.18871E-04   -0.96323E-04  1912   0.233E-01    0.701E-02
DAV:   8    -0.483693888980E+03    0.45708E-04   -0.19363E-04  1464   0.108E-01    0.240E-02
DAV:   9    -0.483693907233E+03   -0.18253E-04   -0.31843E-05  1152   0.188E-02    0.664E-03
DAV:  10    -0.483693921956E+03   -0.14723E-04   -0.56555E-06   976   0.105E-02    0.326E-03
DAV:  11    -0.483693933032E+03   -0.11076E-04   -0.26192E-06   968   0.677E-03    0.218E-03
DAV:  12    -0.483693946194E+03   -0.13163E-04   -0.18612E-06   976   0.563E-03    0.120E-03
DAV:  13    -0.483693955184E+03   -0.89893E-05   -0.12147E-06  1000   0.366E-03
  22 F= -.48369396E+03 E0= -.48366178E+03  d E =-.178280E-01
       N       E                     dE             d eps       ncg     rms          rms(c)
DAV:   1    -0.483690106990E+03    0.38392E-02   -0.40823E+00  1408   0.479E+00    0.337E-01
DAV:   2    -0.483697507325E+03   -0.74003E-02   -0.86498E-02  1976   0.873E-01    0.265E-01
DAV:   3    -0.483697471049E+03    0.36276E-04   -0.72085E-03  2096   0.381E-01    0.265E-01
DAV:   4    -0.483696973850E+03    0.49720E-03   -0.28056E-03  2120   0.341E-01    0.158E-01
DAV:   5    -0.483697200307E+03   -0.22646E-03   -0.18574E-03  2008   0.236E-01    0.207E-01
DAV:   6    -0.483696908518E+03    0.29179E-03   -0.14825E-03  1736   0.106E-01    0.752E-02
DAV:   7    -0.483696875271E+03    0.33247E-04   -0.42686E-04  1536   0.161E-01    0.374E-02
DAV:   8    -0.483696867240E+03    0.80311E-05   -0.56950E-05  1256   0.601E-02
  23 F= -.48369687E+03 E0= -.48366544E+03  d E =-.207400E-01
       N       E                     dE             d eps       ncg     rms          rms(c)
DAV:   1    -0.483696933527E+03   -0.58257E-04   -0.85797E+00  1408   0.708E+00    0.591E-01
DAV:   2    -0.483718439373E+03   -0.21506E-01   -0.20155E-01  2048   0.154E+00    0.832E-01
DAV:   3    -0.483712359131E+03    0.60802E-02   -0.28564E-02  2088   0.999E-01    0.484E-01
DAV:   4    -0.483711025407E+03    0.13337E-02   -0.67581E-03  1944   0.383E-01    0.251E-01
DAV:   5    -0.483710901215E+03    0.12419E-03   -0.56463E-03  1808   0.212E-01    0.223E-01
DAV:   6    -0.483710690122E+03    0.21109E-03   -0.32077E-03  2056   0.329E-01    0.131E-01
DAV:   7    -0.483710553071E+03    0.13705E-03   -0.11511E-03  1848   0.286E-01    0.510E-02
DAV:   8    -0.483710556493E+03   -0.34222E-05   -0.10958E-04  1304   0.613E-02    0.151E-02
DAV:   9    -0.483710574474E+03   -0.17981E-04   -0.18038E-05  1032   0.139E-02    0.506E-03
DAV:  10    -0.483710584467E+03   -0.99927E-05   -0.37405E-06   968   0.875E-03
  24 F= -.48371058E+03 E0= -.48368005E+03  d E =-.137172E-01
       N       E                     dE             d eps       ncg     rms          rms(c)
DAV:   1    -0.483704217716E+03    0.63568E-02   -0.62366E+00  1408   0.604E+00    0.502E-01
DAV:   2    -0.483719812123E+03   -0.15594E-01   -0.14854E-01  2032   0.129E+00    0.689E-01
DAV:   3    -0.483715607685E+03    0.42044E-02   -0.20038E-02  2088   0.830E-01    0.405E-01
DAV:   4    -0.483714613818E+03    0.99387E-03   -0.46487E-03  1944   0.337E-01    0.206E-01
DAV:   5    -0.483714579856E+03    0.33961E-04   -0.39754E-03  1688   0.174E-01    0.192E-01
DAV:   6    -0.483714414246E+03    0.16561E-03   -0.23760E-03  2040   0.272E-01    0.111E-01
DAV:   7    -0.483714314610E+03    0.99636E-04   -0.83349E-04  1688   0.244E-01    0.418E-02
DAV:   8    -0.483714322561E+03   -0.79505E-05   -0.77017E-05  1240   0.529E-02
  25 F= -.48371432E+03 E0= -.48368430E+03  d E =-.174553E-01
       N       E                     dE             d eps       ncg     rms          rms(c)
DAV:   1    -0.483712477279E+03    0.18373E-02   -0.10100E+01  1408   0.782E+00    0.720E-01
DAV:   2    -0.483741247992E+03   -0.28771E-01   -0.25661E-01  2064   0.190E+00    0.105E+00
DAV:   3    -0.483729524021E+03    0.11724E-01   -0.44779E-02  2104   0.134E+00    0.502E-01
DAV:   4    -0.483728348197E+03    0.11758E-02   -0.91427E-03  1976   0.452E-01    0.297E-01
DAV:   5    -0.483728038811E+03    0.30939E-03   -0.72889E-03  1776   0.241E-01    0.242E-01
DAV:   6    -0.483727885047E+03    0.15376E-03   -0.38294E-03  2064   0.390E-01    0.155E-01
DAV:   7    -0.483727691402E+03    0.19364E-03   -0.15117E-03  1968   0.334E-01    0.549E-02
DAV:   8    -0.483727700451E+03   -0.90489E-05   -0.14442E-04  1464   0.635E-02    0.170E-02
DAV:   9    -0.483727720890E+03   -0.20439E-04   -0.16298E-05  1008   0.137E-02    0.668E-03
DAV:  10    -0.483727735011E+03   -0.14121E-04   -0.42716E-06   960   0.889E-03    0.307E-03
DAV:  11    -0.483727745549E+03   -0.10539E-04   -0.22370E-06   960   0.557E-03    0.152E-03
DAV:  12    -0.483727759662E+03   -0.14112E-04   -0.16755E-06  1000   0.392E-03    0.853E-04
DAV:  13    -0.483727765864E+03   -0.62028E-05   -0.89319E-07   992   0.303E-03
  26 F= -.48372777E+03 E0= -.48369810E+03  d E =-.134433E-01
       N       E                     dE             d eps       ncg     rms          rms(c)
DAV:   1    -0.483724433264E+03    0.33264E-02   -0.33992E+00  1408   0.454E+00    0.413E-01
DAV:   2    -0.483734205767E+03   -0.97725E-02   -0.89266E-02  2032   0.107E+00    0.604E-01
DAV:   3    -0.483730477708E+03    0.37281E-02   -0.14810E-02  2128   0.746E-01    0.293E-01
DAV:   4    -0.483730069412E+03    0.40830E-03   -0.29238E-03  1976   0.281E-01    0.165E-01
DAV:   5    -0.483730010973E+03    0.58439E-04   -0.23732E-03  1696   0.135E-01    0.143E-01
DAV:   6    -0.483729950917E+03    0.60057E-04   -0.13535E-03  1976   0.217E-01    0.909E-02
DAV:   7    -0.483729878925E+03    0.71992E-04   -0.52847E-04  1600   0.195E-01    0.301E-02
DAV:   8    -0.483729882032E+03   -0.31073E-05   -0.47375E-05  1192   0.390E-02
  27 F= -.48372988E+03 E0= -.48370037E+03  d E =-.155595E-01
       N       E                     dE             d eps       ncg     rms          rms(c)
DAV:   1    -0.483727073222E+03    0.28057E-02   -0.10414E+01  1408   0.803E+00    0.700E-01
DAV:   2    -0.483750649580E+03   -0.23576E-01   -0.24412E-01  2016   0.189E+00    0.891E-01
DAV:   3    -0.483743339557E+03    0.73100E-02   -0.43919E-02  2176   0.138E+00    0.493E-01
DAV:   4    -0.483741990835E+03    0.13487E-02   -0.77600E-03  2000   0.567E-01    0.297E-01
DAV:   5    -0.483741875574E+03    0.11526E-03   -0.69984E-03  1840   0.250E-01    0.266E-01
DAV:   6    -0.483741633979E+03    0.24160E-03   -0.40976E-03  2016   0.362E-01    0.155E-01
DAV:   7    -0.483741416026E+03    0.21795E-03   -0.14877E-03  1976   0.321E-01    0.496E-02
DAV:   8    -0.483741427601E+03   -0.11575E-04   -0.12450E-04  1448   0.558E-02    0.171E-02
DAV:   9    -0.483741443024E+03   -0.15423E-04   -0.14079E-05  1000   0.150E-02    0.661E-03
DAV:  10    -0.483741453586E+03   -0.10562E-04   -0.47521E-06   928   0.911E-03    0.312E-03
DAV:  11    -0.483741463268E+03   -0.96818E-05   -0.20985E-06   936   0.605E-03
  28 F= -.48374146E+03 E0= -.48371203E+03  d E =-.115812E-01
       N       E                     dE             d eps       ncg     rms          rms(c)
DAV:   1    -0.483740886141E+03    0.56745E-03   -0.72955E-01  1408   0.213E+00    0.179E-01
DAV:   2    -0.483742562794E+03   -0.16767E-02   -0.17940E-02  2032   0.440E-01    0.217E-01
DAV:   3    -0.483742174072E+03    0.38872E-03   -0.26205E-03  2176   0.293E-01    0.133E-01
DAV:   4    -0.483742070214E+03    0.10386E-03   -0.57651E-04  1968   0.171E-01    0.774E-02
DAV:   5    -0.483742066916E+03    0.32977E-05   -0.46006E-04  1832   0.809E-02    0.680E-02
DAV:   6    -0.483742059360E+03    0.75558E-05   -0.29601E-04  1440   0.853E-02    0.459E-02
DAV:   7    -0.483742040089E+03    0.19271E-04   -0.13055E-04  1288   0.953E-02    0.130E-02
DAV:   8    -0.483742044387E+03   -0.42979E-05   -0.11983E-05  1000   0.190E-02
  29 F= -.48374204E+03 E0= -.48371262E+03  d E =-.121624E-01
       N       E                     dE             d eps       ncg     rms          rms(c)
DAV:   1    -0.483740268049E+03    0.17720E-02   -0.77579E+00  1408   0.698E+00    0.540E-01
DAV:   2    -0.483756071609E+03   -0.15804E-01   -0.17154E-01  2032   0.162E+00    0.660E-01
DAV:   3    -0.483752796769E+03    0.32748E-02   -0.27373E-02  2208   0.108E+00    0.381E-01
DAV:   4    -0.483751959929E+03    0.83684E-03   -0.39889E-03  2016   0.481E-01    0.226E-01
DAV:   5    -0.483752248172E+03   -0.28824E-03   -0.41598E-03  1904   0.222E-01    0.246E-01
DAV:   6    -0.483751934970E+03    0.31320E-03   -0.28368E-03  1968   0.237E-01    0.113E-01
DAV:   7    -0.483751835007E+03    0.99963E-04   -0.89147E-04  1816   0.241E-01    0.427E-02
DAV:   8    -0.483751832048E+03    0.29588E-05   -0.77097E-05  1256   0.583E-02
  30 F= -.48375183E+03 E0= -.48372267E+03  d E =-.978766E-02
       N       E                     dE             d eps       ncg     rms          rms(c)
DAV:   1    -0.483750586128E+03    0.12489E-02   -0.14394E+00  1408   0.301E+00    0.226E-01
DAV:   2    -0.483753418618E+03   -0.28325E-02   -0.31515E-02  2008   0.587E-01    0.243E-01
DAV:   3    -0.483753063517E+03    0.35510E-03   -0.37799E-03  2176   0.330E-01    0.169E-01
DAV:   4    -0.483752888428E+03    0.17509E-03   -0.87144E-04  1992   0.235E-01    0.100E-01
DAV:   5    -0.483752918721E+03   -0.30293E-04   -0.69116E-04  1992   0.142E-01    0.922E-02
DAV:   6    -0.483752902886E+03    0.15835E-04   -0.48732E-04  1632   0.757E-02    0.577E-02
DAV:   7    -0.483752876182E+03    0.26704E-04   -0.22060E-04  1400   0.113E-01    0.195E-02
DAV:   8    -0.483752880909E+03   -0.47268E-05   -0.19860E-05  1056   0.277E-02
  31 F= -.48375288E+03 E0= -.48372382E+03  d E =-.108365E-01
       N       E                     dE             d eps       ncg     rms          rms(c)
DAV:   1    -0.483752763262E+03    0.11292E-03   -0.63906E+00  1424   0.639E+00    0.461E-01
DAV:   2    -0.483764728099E+03   -0.11965E-01   -0.13672E-01  2016   0.135E+00    0.487E-01
DAV:   3    -0.483763560709E+03    0.11674E-02   -0.18838E-02  2224   0.839E-01    0.335E-01
DAV:   4    -0.483762870170E+03    0.69054E-03   -0.38832E-03  2032   0.506E-01    0.193E-01
DAV:   5    -0.483763290733E+03   -0.42056E-03   -0.27420E-03  1968   0.301E-01    0.227E-01
DAV:   6    -0.483762952453E+03    0.33828E-03   -0.20347E-03  1744   0.131E-01    0.936E-02
DAV:   7    -0.483762899811E+03    0.52643E-04   -0.54032E-04  1688   0.172E-01    0.387E-02
DAV:   8    -0.483762892783E+03    0.70274E-05   -0.68473E-05  1256   0.582E-02
  32 F= -.48376289E+03 E0= -.48373394E+03  d E =-.100119E-01
       N       E                     dE             d eps       ncg     rms          rms(c)
DAV:   1    -0.483756060049E+03    0.68398E-02   -0.67572E+00  1424   0.657E+00    0.477E-01
DAV:   2    -0.483768869823E+03   -0.12810E-01   -0.14566E-01  2008   0.142E+00    0.510E-01
DAV:   3    -0.483767567658E+03    0.13022E-02   -0.20142E-02  2224   0.893E-01    0.347E-01
DAV:   4    -0.483766817501E+03    0.75016E-03   -0.39898E-03  2032   0.518E-01    0.198E-01
DAV:   5    -0.483767272388E+03   -0.45489E-03   -0.28978E-03  1976   0.294E-01    0.231E-01
DAV:   6    -0.483766913389E+03    0.35900E-03   -0.21707E-03  1672   0.135E-01    0.934E-02
DAV:   7    -0.483766865163E+03    0.48226E-04   -0.56690E-04  1712   0.176E-01    0.402E-02
DAV:   8    -0.483766858512E+03    0.66516E-05   -0.73460E-05  1272   0.614E-02
  33 F= -.48376686E+03 E0= -.48373802E+03  d E =-.139776E-01
       N       E                     dE             d eps       ncg     rms          rms(c)
DAV:   1    -0.483763222999E+03    0.36422E-02   -0.78570E+00  1424   0.720E+00    0.536E-01
DAV:   2    -0.483778905733E+03   -0.15683E-01   -0.17198E-01  2000   0.146E+00    0.592E-01
DAV:   3    -0.483776747822E+03    0.21579E-02   -0.21210E-02  2184   0.896E-01    0.395E-01
DAV:   4    -0.483775747864E+03    0.99996E-03   -0.45102E-03  2008   0.534E-01    0.220E-01
DAV:   5    -0.483776024337E+03   -0.27647E-03   -0.35906E-03  2048   0.312E-01    0.214E-01
DAV:   6    -0.483775857293E+03    0.16704E-03   -0.25405E-03  1832   0.160E-01    0.117E-01
DAV:   7    -0.483775760372E+03    0.96922E-04   -0.10083E-03  1752   0.232E-01    0.488E-02
DAV:   8    -0.483775756068E+03    0.43038E-05   -0.10879E-04  1272   0.693E-02    0.151E-02
DAV:   9    -0.483775764310E+03   -0.82419E-05   -0.14472E-05   984   0.140E-02
  34 F= -.48377576E+03 E0= -.48374696E+03  d E =-.890580E-02
       N       E                     dE             d eps       ncg     rms          rms(c)
DAV:   1    -0.483775357281E+03    0.39879E-03   -0.52489E-01  1424   0.186E+00    0.135E-01
DAV:   2    -0.483776389444E+03   -0.10322E-02   -0.11690E-02  2000   0.346E-01    0.134E-01
DAV:   3    -0.483776297311E+03    0.92133E-04   -0.10313E-03  2072   0.151E-01    0.980E-02
DAV:   4    -0.483776242366E+03    0.54945E-04   -0.30468E-04  1696   0.136E-01    0.618E-02
DAV:   5    -0.483776249209E+03   -0.68434E-05   -0.23090E-04  1608   0.111E-01    0.501E-02
DAV:   6    -0.483776247237E+03    0.19724E-05   -0.13375E-04  1456   0.383E-02    0.256E-02
DAV:   7    -0.483776246165E+03    0.10720E-05   -0.61331E-05  1216   0.543E-02
  35 F= -.48377625E+03 E0= -.48374744E+03  d E =-.938765E-02
       N       E                     dE             d eps       ncg     rms          rms(c)
DAV:   1    -0.483774931519E+03    0.13157E-02   -0.51676E+00  1432   0.589E+00    0.432E-01
DAV:   2    -0.483784598563E+03   -0.96670E-02   -0.11088E-01  1976   0.110E+00    0.418E-01
DAV:   3    -0.483783954262E+03    0.64430E-03   -0.11647E-02  2160   0.629E-01    0.332E-01
DAV:   4    -0.483783160147E+03    0.79411E-03   -0.30468E-03  1992   0.441E-01    0.174E-01
DAV:   5    -0.483783377766E+03   -0.21762E-03   -0.20869E-03  2080   0.282E-01    0.164E-01
DAV:   6    -0.483783278905E+03    0.98861E-04   -0.13650E-03  1656   0.108E-01    0.816E-02
DAV:   7    -0.483783255608E+03    0.23297E-04   -0.57727E-04  1632   0.169E-01    0.448E-02
DAV:   8    -0.483783243079E+03    0.12530E-04   -0.93687E-05  1232   0.679E-02    0.118E-02
DAV:   9    -0.483783247869E+03   -0.47897E-05   -0.10612E-05   936   0.118E-02
  36 F= -.48378325E+03 E0= -.48375461E+03  d E =-.700170E-02
       N       E                     dE             d eps       ncg     rms          rms(c)
DAV:   1    -0.483781175488E+03    0.20676E-02   -0.22541E+00  1432   0.389E+00    0.283E-01
DAV:   2    -0.483785352187E+03   -0.41767E-02   -0.48338E-02  1984   0.714E-01    0.271E-01
DAV:   3    -0.483785076582E+03    0.27561E-03   -0.46847E-03  2184   0.378E-01    0.215E-01
DAV:   4    -0.483784757665E+03    0.31892E-03   -0.12984E-03  2000   0.285E-01    0.116E-01
DAV:   5    -0.483784852906E+03   -0.95241E-04   -0.90252E-04  2032   0.200E-01    0.105E-01
DAV:   6    -0.483784812475E+03    0.40431E-04   -0.51938E-04  1760   0.746E-02    0.479E-02
DAV:   7    -0.483784811723E+03    0.75228E-06   -0.22821E-04  1384   0.104E-01    0.315E-02
DAV:   8    -0.483784806181E+03    0.55419E-05   -0.46482E-05  1152   0.484E-02
  37 F= -.48378481E+03 E0= -.48375628E+03  d E =-.856002E-02
       N       E                     dE             d eps       ncg     rms          rms(c)
DAV:   1    -0.483781395826E+03    0.34159E-02   -0.61965E+00  1432   0.651E+00    0.510E-01
DAV:   2    -0.483794639217E+03   -0.13243E-01   -0.13951E-01  1984   0.122E+00    0.568E-01
DAV:   3    -0.483792179027E+03    0.24602E-02   -0.15233E-02  2120   0.675E-01    0.368E-01
DAV:   4    -0.483791212869E+03    0.96616E-03   -0.36927E-03  1968   0.440E-01    0.187E-01
DAV:   5    -0.483791422135E+03   -0.20927E-03   -0.24792E-03  2104   0.359E-01    0.165E-01
DAV:   6    -0.483791273586E+03    0.14855E-03   -0.11114E-03  2048   0.187E-01    0.387E-02
DAV:   7    -0.483791322488E+03   -0.48902E-04   -0.25431E-04  1608   0.100E-01    0.505E-02
DAV:   8    -0.483791300562E+03    0.21926E-04   -0.14775E-04  1368   0.818E-02    0.151E-02
DAV:   9    -0.483791307665E+03   -0.71025E-05   -0.10340E-05   912   0.194E-02
  38 F= -.48379131E+03 E0= -.48376291E+03  d E =-.650148E-02
       N       E                     dE             d eps       ncg     rms          rms(c)
DAV:   1    -0.483791089735E+03    0.21083E-03   -0.31003E-01  1432   0.146E+00    0.112E-01
DAV:   2    -0.483791756443E+03   -0.66671E-03   -0.71879E-03  2032   0.265E-01    0.126E-01
DAV:   3    -0.483791640149E+03    0.11629E-03   -0.73682E-04  2096   0.139E-01    0.816E-02
DAV:   4    -0.483791599547E+03    0.40602E-04   -0.18036E-04  1528   0.994E-02    0.425E-02
DAV:   5    -0.483791613238E+03   -0.13691E-04   -0.12729E-04  1432   0.879E-02    0.371E-02
DAV:   6    -0.483791610631E+03    0.26073E-05   -0.61619E-05  1328   0.502E-02
  39 F= -.48379161E+03 E0= -.48376324E+03  d E =-.680445E-02
       N       E                     dE             d eps       ncg     rms          rms(c)
DAV:   1    -0.483789334153E+03    0.22791E-02   -0.48530E+00  1424   0.582E+00    0.515E-01
DAV:   2    -0.483802980750E+03   -0.13647E-01   -0.12254E-01  2008   0.116E+00    0.736E-01
DAV:   3    -0.483796954562E+03    0.60262E-02   -0.19474E-02  2024   0.747E-01    0.315E-01
DAV:   4    -0.483796461892E+03    0.49267E-03   -0.33192E-03  1976   0.393E-01    0.167E-01
DAV:   5    -0.483796638430E+03   -0.17654E-03   -0.21893E-03  2088   0.388E-01    0.151E-01
DAV:   6    -0.483796518327E+03    0.12010E-03   -0.99489E-04  2064   0.270E-01    0.475E-02
DAV:   7    -0.483796567672E+03   -0.49346E-04   -0.41769E-04  1632   0.114E-01    0.593E-02
DAV:   8    -0.483796537838E+03    0.29835E-04   -0.17650E-04  1264   0.816E-02    0.128E-02
DAV:   9    -0.483796548072E+03   -0.10234E-04   -0.12129E-05   968   0.165E-02    0.522E-03
DAV:  10    -0.483796555168E+03   -0.70954E-05   -0.40826E-06   960   0.109E-02
  40 F= -.48379656E+03 E0= -.48376825E+03  d E =-.494454E-02
       N       E                     dE             d eps       ncg     rms          rms(c)
DAV:   1    -0.483796392050E+03    0.15602E-03   -0.21953E-01  1424   0.124E+00    0.108E-01
DAV:   2    -0.483797014803E+03   -0.62275E-03   -0.56568E-03  2024   0.253E-01    0.161E-01
DAV:   3    -0.483796733187E+03    0.28162E-03   -0.93380E-04  2032   0.164E-01    0.673E-02
DAV:   4    -0.483796720989E+03    0.12197E-04   -0.14451E-04  1648   0.827E-02    0.348E-02
DAV:   5    -0.483796731681E+03   -0.10692E-04   -0.93395E-05  1320   0.805E-02    0.319E-02
DAV:   6    -0.483796728849E+03    0.28320E-05   -0.45131E-05  1224   0.572E-02
  41 F= -.48379673E+03 E0= -.48376843E+03  d E =-.511822E-02
       N       E                     dE             d eps       ncg     rms          rms(c)
DAV:   1    -0.483794220260E+03    0.25114E-02   -0.49318E+00  1408   0.593E+00    0.527E-01
DAV:   2    -0.483805528616E+03   -0.11308E-01   -0.12377E-01  1992   0.119E+00    0.609E-01
DAV:   3    -0.483802541275E+03    0.29873E-02   -0.18919E-02  2152   0.897E-01    0.368E-01
DAV:   4    -0.483801502408E+03    0.10389E-02   -0.33138E-03  1952   0.417E-01    0.168E-01
DAV:   5    -0.483801812690E+03   -0.31028E-03   -0.21042E-03  2048   0.247E-01    0.159E-01
DAV:   6    -0.483801656101E+03    0.15659E-03   -0.12513E-03  1800   0.119E-01    0.624E-02
DAV:   7    -0.483801689272E+03   -0.33172E-04   -0.49928E-04  1672   0.162E-01    0.572E-02
DAV:   8    -0.483801660381E+03    0.28891E-04   -0.15739E-04  1352   0.972E-02    0.132E-02
DAV:   9    -0.483801669642E+03   -0.92608E-05   -0.13572E-05   928   0.131E-02
  42 F= -.48380167E+03 E0= -.48377344E+03  d E =-.494079E-02
       N       E                     dE             d eps       ncg     rms          rms(c)
DAV:   1    -0.483800780662E+03    0.87972E-03   -0.87141E-01  1408   0.249E+00    0.218E-01
DAV:   2    -0.483802740910E+03   -0.19602E-02   -0.21742E-02  1976   0.485E-01    0.255E-01
DAV:   3    -0.483802222537E+03    0.51837E-03   -0.31486E-03  2144   0.347E-01    0.153E-01
DAV:   4    -0.483802060342E+03    0.16220E-03   -0.56983E-04  1952   0.173E-01    0.687E-02
DAV:   5    -0.483802122001E+03   -0.61659E-04   -0.35804E-04  1992   0.115E-01    0.639E-02
DAV:   6    -0.483802095198E+03    0.26803E-04   -0.19304E-04  1552   0.638E-02    0.192E-02
DAV:   7    -0.483802105960E+03   -0.10762E-04   -0.59119E-05  1224   0.523E-02    0.236E-02
DAV:   8    -0.483802101610E+03    0.43504E-05   -0.27837E-05  1072   0.409E-02
  43 F= -.48380210E+03 E0= -.48377390E+03  d E =-.537276E-02
       N       E                     dE             d eps       ncg     rms          rms(c)
DAV:   1    -0.483798422741E+03    0.36832E-02   -0.48086E+00  1408   0.592E+00    0.554E-01
DAV:   2    -0.483810631244E+03   -0.12209E-01   -0.12787E-01  1984   0.127E+00    0.679E-01
DAV:   3    -0.483806420650E+03    0.42106E-02   -0.22002E-02  2184   0.101E+00    0.365E-01
DAV:   4    -0.483805408082E+03    0.10126E-02   -0.33014E-03  1936   0.402E-01    0.163E-01
DAV:   5    -0.483805737292E+03   -0.32921E-03   -0.20167E-03  2056   0.234E-01    0.151E-01
DAV:   6    -0.483805576643E+03    0.16065E-03   -0.11995E-03  1832   0.120E-01    0.593E-02
DAV:   7    -0.483805608184E+03   -0.31541E-04   -0.43347E-04  1568   0.150E-01    0.562E-02
DAV:   8    -0.483805579578E+03    0.28607E-04   -0.15127E-04  1336   0.979E-02    0.142E-02
DAV:   9    -0.483805589023E+03   -0.94452E-05   -0.13740E-05   952   0.141E-02
  44 F= -.48380559E+03 E0= -.48377751E+03  d E =-.348741E-02
       N       E                     dE             d eps       ncg     rms          rms(c)
DAV:   1    -0.483805589107E+03   -0.95296E-05   -0.38010E-03  1456   0.167E-01    0.158E-02
DAV:   2    -0.483805603330E+03   -0.14223E-04   -0.10571E-04  1936   0.427E-02    0.209E-02
DAV:   3    -0.483805598811E+03    0.45189E-05   -0.15520E-05  1032   0.271E-02
  45 F= -.48380560E+03 E0= -.48377752E+03  d E =-.349720E-02
       N       E                     dE             d eps       ncg     rms          rms(c)
DAV:   1    -0.483804546564E+03    0.10568E-02   -0.24925E+00  1408   0.429E+00    0.353E-01
DAV:   2    -0.483809545356E+03   -0.49988E-02   -0.60084E-02  1968   0.793E-01    0.338E-01
DAV:   3    -0.483809148027E+03    0.39733E-03   -0.74867E-03  2224   0.569E-01    0.275E-01
DAV:   4    -0.483808458746E+03    0.68928E-03   -0.16640E-03  2016   0.306E-01    0.113E-01
DAV:   5    -0.483808591286E+03   -0.13254E-03   -0.69148E-04  2016   0.144E-01    0.801E-02
DAV:   6    -0.483808573151E+03    0.18135E-04   -0.46264E-04  1760   0.917E-02    0.413E-02
DAV:   7    -0.483808577918E+03   -0.47661E-05   -0.14622E-04  1312   0.625E-02    0.306E-02
DAV:   8    -0.483808570443E+03    0.74741E-05   -0.57999E-05  1224   0.605E-02
  46 F= -.48380857E+03 E0= -.48378046E+03  d E =-.297163E-02
       N       E                     dE             d eps       ncg     rms          rms(c)
DAV:   1    -0.483808475836E+03    0.10208E-03   -0.12172E-01  1408   0.946E-01    0.777E-02
DAV:   2    -0.483808714621E+03   -0.23878E-03   -0.28705E-03  2024   0.170E-01    0.748E-02
DAV:   3    -0.483808696700E+03    0.17921E-04   -0.34812E-04  1920   0.119E-01    0.604E-02
DAV:   4    -0.483808664303E+03    0.32397E-04   -0.73213E-05  1240   0.681E-02    0.250E-02
DAV:   5    -0.483808675079E+03   -0.10776E-04   -0.38800E-05  1208   0.386E-02    0.169E-02
DAV:   6    -0.483808675828E+03   -0.74871E-06   -0.24187E-05  1072   0.322E-02
  47 F= -.48380868E+03 E0= -.48378054E+03  d E =-.307702E-02
       N       E                     dE             d eps       ncg     rms          rms(c)
DAV:   1    -0.483808447306E+03    0.22777E-03   -0.19640E+00  1408   0.378E+00    0.273E-01
DAV:   2    -0.483811671447E+03   -0.32241E-02   -0.42213E-02  1960   0.612E-01    0.176E-01
DAV:   3    -0.483811668101E+03    0.33461E-05   -0.27434E-03  2096   0.236E-01    0.157E-01
DAV:   4    -0.483811620995E+03    0.47106E-04   -0.17372E-03  2064   0.261E-01    0.123E-01
DAV:   5    -0.483811614328E+03    0.66669E-05   -0.74869E-04  2016   0.241E-01    0.746E-02
DAV:   6    -0.483811611187E+03    0.31411E-05   -0.32664E-04  1584   0.149E-01    0.458E-02
DAV:   7    -0.483811616096E+03   -0.49090E-05   -0.98702E-05  1240   0.383E-02
  48 F= -.48381162E+03 E0= -.48378343E+03  d E =-.294027E-02
       N       E                     dE             d eps       ncg     rms          rms(c)
DAV:   1    -0.483809612130E+03    0.19991E-02   -0.17844E+00  1408   0.360E+00    0.262E-01
DAV:   2    -0.483812589082E+03   -0.29770E-02   -0.38702E-02  1976   0.581E-01    0.174E-01
DAV:   3    -0.483812619358E+03   -0.30276E-04   -0.30494E-03  2176   0.290E-01    0.170E-01
DAV:   4    -0.483812483860E+03    0.13550E-03   -0.17949E-03  2064   0.276E-01    0.108E-01
DAV:   5    -0.483812506348E+03   -0.22489E-04   -0.52791E-04  2000   0.196E-01    0.617E-02
DAV:   6    -0.483812526121E+03   -0.19772E-04   -0.27350E-04  1592   0.136E-01    0.509E-02
DAV:   7    -0.483812516978E+03    0.91428E-05   -0.81193E-05  1224   0.436E-02
  49 F= -.48381252E+03 E0= -.48378431E+03  d E =-.384115E-02
       N       E                     dE             d eps       ncg     rms          rms(c)
DAV:   1    -0.483811139670E+03    0.13865E-02   -0.26346E+00  1424   0.436E+00    0.307E-01
DAV:   2    -0.483815285914E+03   -0.41462E-02   -0.54301E-02  1928   0.695E-01    0.196E-01
DAV:   3    -0.483815282146E+03    0.37683E-05   -0.34019E-03  2096   0.247E-01    0.171E-01
DAV:   4    -0.483815270173E+03    0.11973E-04   -0.23272E-03  2000   0.249E-01    0.141E-01
DAV:   5    -0.483815197897E+03    0.72276E-04   -0.79316E-04  2040   0.177E-01    0.499E-02
DAV:   6    -0.483815245567E+03   -0.47670E-04   -0.21259E-04  1744   0.995E-02    0.406E-02
DAV:   7    -0.483815228487E+03    0.17080E-04   -0.63541E-05  1296   0.379E-02    0.200E-02
DAV:   8    -0.483815227539E+03    0.94779E-06   -0.19048E-05  1104   0.368E-02
  50 F= -.48381523E+03 E0= -.48378707E+03  d E =-.271056E-02
       N       E                     dE             d eps       ncg     rms          rms(c)
DAV:   1    -0.483814779948E+03    0.44854E-03   -0.43225E-01  1424   0.176E+00    0.124E-01
DAV:   2    -0.483815448248E+03   -0.66830E-03   -0.88358E-03  1960   0.282E-01    0.796E-02
DAV:   3    -0.483815443885E+03    0.43629E-05   -0.50061E-04  2056   0.868E-02    0.673E-02
DAV:   4    -0.483815448502E+03   -0.46166E-05   -0.36160E-04  1640   0.873E-02    0.578E-02
DAV:   5    -0.483815439278E+03    0.92238E-05   -0.13929E-04  1312   0.756E-02    0.234E-02
DAV:   6    -0.483815446448E+03   -0.71701E-05   -0.42825E-05  1248   0.483E-02
  51 F= -.48381545E+03 E0= -.48378729E+03  d E =-.292947E-02
       N       E                     dE             d eps       ncg     rms          rms(c)
DAV:   1    -0.483813367571E+03    0.20717E-02   -0.29505E+00  1408   0.459E+00    0.329E-01
DAV:   2    -0.483818216136E+03   -0.48486E-02   -0.62929E-02  1976   0.762E-01    0.231E-01
DAV:   3    -0.483818390786E+03   -0.17465E-03   -0.53923E-03  2232   0.466E-01    0.255E-01
DAV:   4    -0.483817905329E+03    0.48546E-03   -0.23548E-03  2016   0.377E-01    0.125E-01
DAV:   5    -0.483818040448E+03   -0.13512E-03   -0.72270E-04  2000   0.168E-01    0.986E-02
DAV:   6    -0.483817996413E+03    0.44035E-04   -0.60486E-04  1664   0.773E-02    0.525E-02
DAV:   7    -0.483817999023E+03   -0.26104E-05   -0.17200E-04  1312   0.832E-02    0.298E-02
DAV:   8    -0.483817988791E+03    0.10233E-04   -0.43281E-05  1232   0.574E-02    0.907E-03
DAV:   9    -0.483817992537E+03   -0.37467E-05   -0.59032E-06   944   0.947E-03
  52 F= -.48381799E+03 E0= -.48378982E+03  d E =-.254609E-02
       N       E                     dE             d eps       ncg     rms          rms(c)
DAV:   1    -0.483817476768E+03    0.51202E-03   -0.44830E-01  1408   0.179E+00    0.128E-01
DAV:   2    -0.483818230382E+03   -0.75361E-03   -0.97710E-03  2000   0.308E-01    0.971E-02
DAV:   3    -0.483818257218E+03   -0.26836E-04   -0.96614E-04  2224   0.209E-01    0.106E-01
DAV:   4    -0.483818165602E+03    0.91616E-04   -0.34908E-04  1616   0.149E-01    0.463E-02
DAV:   5    -0.483818200378E+03   -0.34776E-04   -0.12512E-04  1704   0.533E-02    0.417E-02
DAV:   6    -0.483818189112E+03    0.11266E-04   -0.10423E-04  1256   0.330E-02    0.188E-02
DAV:   7    -0.483818190622E+03   -0.15090E-05   -0.22714E-05  1056   0.344E-02
  53 F= -.48381819E+03 E0= -.48379000E+03  d E =-.274417E-02
       N       E                     dE             d eps       ncg     rms          rms(c)
DAV:   1    -0.483816120760E+03    0.20684E-02   -0.31131E+00  1408   0.469E+00    0.334E-01
DAV:   2    -0.483821678357E+03   -0.55576E-02   -0.67988E-02  1992   0.807E-01    0.289E-01
DAV:   3    -0.483821587351E+03    0.91005E-04   -0.60404E-03  2184   0.489E-01    0.275E-01
DAV:   4    -0.483820934477E+03    0.65287E-03   -0.19300E-03  2008   0.333E-01    0.118E-01
DAV:   5    -0.483821099317E+03   -0.16484E-03   -0.98280E-04  2040   0.193E-01    0.983E-02
DAV:   6    -0.483821028726E+03    0.70591E-04   -0.58831E-04  1824   0.101E-01    0.367E-02
DAV:   7    -0.483821041963E+03   -0.13236E-04   -0.15703E-04  1320   0.757E-02    0.352E-02
DAV:   8    -0.483821030244E+03    0.11719E-04   -0.62057E-05  1208   0.615E-02    0.102E-02
DAV:   9    -0.483821033851E+03   -0.36069E-05   -0.65054E-06   912   0.112E-02
  54 F= -.48382103E+03 E0= -.48379281E+03  d E =-.284323E-02
       N       E                     dE             d eps       ncg     rms          rms(c)
DAV:   1    -0.483820373059E+03    0.65718E-03   -0.71316E-01  1408   0.225E+00    0.159E-01
DAV:   2    -0.483821655802E+03   -0.12827E-02   -0.15732E-02  1968   0.387E-01    0.140E-01
DAV:   3    -0.483821626050E+03    0.29752E-04   -0.13899E-03  2184   0.233E-01    0.130E-01
DAV:   4    -0.483821482996E+03    0.14305E-03   -0.43942E-04  1968   0.159E-01    0.566E-02
DAV:   5    -0.483821525395E+03   -0.42400E-04   -0.23426E-04  1904   0.918E-02    0.485E-02
DAV:   6    -0.483821507902E+03    0.17493E-04   -0.13828E-04  1336   0.477E-02    0.177E-02
DAV:   7    -0.483821511823E+03   -0.39206E-05   -0.38775E-05  1128   0.390E-02
  55 F= -.48382151E+03 E0= -.48379325E+03  d E =-.332120E-02
       N       E                     dE             d eps       ncg     rms          rms(c)
DAV:   1    -0.483818656572E+03    0.28513E-02   -0.36610E+00  1424   0.508E+00    0.352E-01
DAV:   2    -0.483824821526E+03   -0.61650E-02   -0.76361E-02  1976   0.863E-01    0.254E-01
DAV:   3    -0.483824899138E+03   -0.77612E-04   -0.39245E-03  2008   0.248E-01    0.251E-01
DAV:   4    -0.483824400348E+03    0.49879E-03   -0.17446E-03  1944   0.197E-01    0.148E-01
DAV:   5    -0.483824504433E+03   -0.10409E-03   -0.12102E-03  2064   0.290E-01    0.116E-01
DAV:   6    -0.483824419937E+03    0.84497E-04   -0.81813E-04  1960   0.262E-01    0.460E-02
DAV:   7    -0.483824445278E+03   -0.25341E-04   -0.28642E-04  1416   0.105E-01    0.455E-02
DAV:   8    -0.483824426618E+03    0.18660E-04   -0.11418E-04  1272   0.523E-02    0.116E-02
DAV:   9    -0.483824430886E+03   -0.42681E-05   -0.81310E-06   904   0.175E-02
  56 F= -.48382443E+03 E0= -.48379615E+03  d E =-.291906E-02
       N       E                     dE             d eps       ncg     rms          rms(c)
DAV:   1    -0.483824330774E+03    0.95843E-04   -0.12150E-01  1424   0.925E-01    0.634E-02
DAV:   2    -0.483824534766E+03   -0.20399E-03   -0.25328E-03  2016   0.160E-01    0.470E-02
DAV:   3    -0.483824537628E+03   -0.28618E-05   -0.13817E-04  1680   0.476E-02    0.453E-02
DAV:   4    -0.483824520915E+03    0.16713E-04   -0.54813E-05  1224   0.316E-02    0.265E-02
DAV:   5    -0.483824526679E+03   -0.57634E-05   -0.42440E-05  1184   0.592E-02
  57 F= -.48382453E+03 E0= -.48379624E+03  d E =-.301486E-02
       N       E                     dE             d eps       ncg     rms          rms(c)
DAV:   1    -0.483822896241E+03    0.16247E-02   -0.27798E+00  1424   0.441E+00    0.330E-01
DAV:   2    -0.483828158054E+03   -0.52618E-02   -0.59683E-02  2000   0.753E-01    0.341E-01
DAV:   3    -0.483827488637E+03    0.66942E-03   -0.56252E-03  2128   0.361E-01    0.247E-01
DAV:   4    -0.483826992249E+03    0.49639E-03   -0.15524E-03  1976   0.262E-01    0.117E-01
DAV:   5    -0.483827152518E+03   -0.16027E-03   -0.11601E-03  2064   0.296E-01    0.114E-01
DAV:   6    -0.483827069703E+03    0.82815E-04   -0.75454E-04  1848   0.244E-01    0.438E-02
DAV:   7    -0.483827082938E+03   -0.13235E-04   -0.24436E-04  1304   0.747E-02    0.356E-02
DAV:   8    -0.483827071991E+03    0.10946E-04   -0.62068E-05  1216   0.348E-02    0.952E-03
DAV:   9    -0.483827075673E+03   -0.36813E-05   -0.61961E-06   936   0.132E-02
  58 F= -.48382708E+03 E0= -.48379880E+03  d E =-.254899E-02
       N       E                     dE             d eps       ncg     rms          rms(c)
DAV:   1    -0.483825386309E+03    0.16857E-02   -0.15510E+00  1408   0.330E+00    0.247E-01
DAV:   2    -0.483828471938E+03   -0.30856E-02   -0.34611E-02  2016   0.571E-01    0.261E-01
DAV:   3    -0.483828049473E+03    0.42246E-03   -0.32707E-03  2168   0.302E-01    0.185E-01
DAV:   4    -0.483827771359E+03    0.27811E-03   -0.84027E-04  1968   0.199E-01    0.858E-02
DAV:   5    -0.483827859133E+03   -0.87774E-04   -0.58050E-04  2040   0.200E-01    0.790E-02
DAV:   6    -0.483827816407E+03    0.42727E-04   -0.34132E-04  1648   0.165E-01    0.261E-02
DAV:   7    -0.483827827407E+03   -0.11000E-04   -0.11421E-04  1256   0.585E-02    0.283E-02
DAV:   8    -0.483827820683E+03    0.67238E-05   -0.39478E-05  1104   0.315E-02
  59 F= -.48382782E+03 E0= -.48379956E+03  d E =-.329400E-02
       N       E                     dE             d eps       ncg     rms          rms(c)
DAV:   1    -0.483826609311E+03    0.12181E-02   -0.21765E+00  1424   0.389E+00    0.262E-01
DAV:   2    -0.483830217767E+03   -0.36085E-02   -0.44810E-02  1984   0.670E-01    0.179E-01
DAV:   3    -0.483830162104E+03    0.55663E-04   -0.18516E-03  1944   0.172E-01    0.155E-01
DAV:   4    -0.483830085269E+03    0.76835E-04   -0.85914E-04  1912   0.140E-01    0.124E-01
DAV:   5    -0.483830095476E+03   -0.10207E-04   -0.70596E-04  1992   0.210E-01    0.916E-02
DAV:   6    -0.483830033132E+03    0.62343E-04   -0.39841E-04  1720   0.158E-01    0.227E-02
DAV:   7    -0.483830042480E+03   -0.93478E-05   -0.36308E-05  1208   0.318E-02
  60 F= -.48383004E+03 E0= -.48380173E+03  d E =-.222180E-02
       N       E                     dE             d eps       ncg     rms          rms(c)
DAV:   1    -0.483829823432E+03    0.20970E-03   -0.20322E-01  1424   0.119E+00    0.798E-02
DAV:   2    -0.483830166028E+03   -0.34260E-03   -0.42072E-03  2024   0.209E-01    0.547E-02
DAV:   3    -0.483830162742E+03    0.32861E-05   -0.17751E-04  1880   0.647E-02    0.457E-02
DAV:   4    -0.483830156635E+03    0.61070E-05   -0.71979E-05  1304   0.357E-02
  61 F= -.48383016E+03 E0= -.48380185E+03  d E =-.233595E-02
       N       E                     dE             d eps       ncg     rms          rms(c)
DAV:   1    -0.483828512201E+03    0.16505E-02   -0.23442E+00  1440   0.398E+00    0.263E-01
DAV:   2    -0.483832160297E+03   -0.36481E-02   -0.45292E-02  1960   0.665E-01    0.171E-01
DAV:   3    -0.483832087428E+03    0.72869E-04   -0.17550E-03  2016   0.171E-01    0.131E-01
DAV:   4    -0.483832229926E+03   -0.14250E-03   -0.13190E-03  1872   0.160E-01    0.141E-01
DAV:   5    -0.483832099387E+03    0.13054E-03   -0.55079E-04  1632   0.799E-02    0.467E-02
DAV:   6    -0.483832145069E+03   -0.45682E-04   -0.28101E-04  1544   0.150E-01    0.626E-02
DAV:   7    -0.483832109429E+03    0.35641E-04   -0.15563E-04  1368   0.104E-01    0.132E-02
DAV:   8    -0.483832115082E+03   -0.56529E-05   -0.18502E-05   960   0.173E-02
  62 F= -.48383212E+03 E0= -.48380375E+03  d E =-.195845E-02
       N       E                     dE             d eps       ncg     rms          rms(c)
DAV:   1    -0.483829503551E+03    0.26059E-02   -0.18414E+00  1440   0.353E+00    0.230E-01
DAV:   2    -0.483832428812E+03   -0.29253E-02   -0.35500E-02  1960   0.597E-01    0.160E-01
DAV:   3    -0.483832462967E+03   -0.34155E-04   -0.22108E-03  1952   0.185E-01    0.157E-01
DAV:   4    -0.483832314601E+03    0.14837E-03   -0.10030E-03  1760   0.117E-01    0.925E-02
DAV:   5    -0.483832355039E+03   -0.40438E-04   -0.24027E-04  1856   0.779E-02    0.634E-02
DAV:   6    -0.483832347686E+03    0.73528E-05   -0.30876E-04  1624   0.131E-01    0.460E-02
DAV:   7    -0.483832338720E+03    0.89662E-05   -0.91519E-05  1184   0.801E-02
  63 F= -.48383234E+03 E0= -.48380394E+03  d E =-.218209E-02
       N       E                     dE             d eps       ncg     rms          rms(c)
DAV:   1    -0.483832007196E+03    0.34049E-03   -0.10139E+00  1440   0.259E+00    0.172E-01
DAV:   2    -0.483833804292E+03   -0.17971E-02   -0.21413E-02  1952   0.445E-01    0.132E-01
DAV:   3    -0.483833819638E+03   -0.15345E-04   -0.10432E-03  2040   0.137E-01    0.128E-01
DAV:   4    -0.483833693464E+03    0.12617E-03   -0.42305E-04  1960   0.125E-01    0.694E-02
DAV:   5    -0.483833735851E+03   -0.42387E-04   -0.31555E-04  1864   0.141E-01    0.576E-02
DAV:   6    -0.483833712323E+03    0.23528E-04   -0.16079E-04  1520   0.101E-01    0.116E-02
DAV:   7    -0.483833717878E+03   -0.55545E-05   -0.16495E-05  1024   0.247E-02
  64 F= -.48383372E+03 E0= -.48380536E+03  d E =-.137916E-02
       N       E                     dE             d eps       ncg     rms          rms(c)
DAV:   1    -0.483823612889E+03    0.10099E-01   -0.74563E+00  1440   0.702E+00    0.472E-01
DAV:   2    -0.483836012449E+03   -0.12400E-01   -0.14891E-01  1944   0.119E+00    0.369E-01
DAV:   3    -0.483836144869E+03   -0.13242E-03   -0.87777E-03  2112   0.460E-01    0.367E-01
DAV:   4    -0.483835040727E+03    0.11041E-02   -0.33629E-03  2008   0.386E-01    0.182E-01
DAV:   5    -0.483835326927E+03   -0.28620E-03   -0.21810E-03  2072   0.351E-01    0.150E-01
DAV:   6    -0.483835163561E+03    0.16337E-03   -0.11269E-03  2072   0.223E-01    0.343E-02
DAV:   7    -0.483835193338E+03   -0.29778E-04   -0.12715E-04  1568   0.421E-02    0.288E-02
DAV:   8    -0.483835190220E+03    0.31185E-05   -0.77646E-05  1304   0.589E-02
  65 F= -.48383519E+03 E0= -.48380691E+03  d E =-.285150E-02
       N       E                     dE             d eps       ncg     rms          rms(c)
DAV:   1    -0.483835717390E+03   -0.52405E-03   -0.83998E-01  1416   0.236E+00    0.208E-01
DAV:   2    -0.483837859050E+03   -0.21417E-02   -0.22297E-02  2032   0.508E-01    0.274E-01
DAV:   3    -0.483837190552E+03    0.66850E-03   -0.34140E-03  2168   0.356E-01    0.141E-01
DAV:   4    -0.483837051428E+03    0.13912E-03   -0.55662E-04  1960   0.167E-01    0.633E-02
DAV:   5    -0.483837086003E+03   -0.34575E-04   -0.34958E-04  2008   0.105E-01    0.566E-02
DAV:   6    -0.483837060756E+03    0.25247E-04   -0.17990E-04  1456   0.526E-02    0.194E-02
DAV:   7    -0.483837065145E+03   -0.43889E-05   -0.50622E-05  1200   0.481E-02
  66 F= -.48383707E+03 E0= -.48380872E+03  d E =-.187492E-02
       N       E                     dE             d eps       ncg     rms          rms(c)
DAV:   1    -0.483837066650E+03   -0.58946E-05   -0.17585E-01  1416   0.109E+00    0.970E-02
DAV:   2    -0.483837537761E+03   -0.47111E-03   -0.49677E-03  2048   0.254E-01    0.130E-01
DAV:   3    -0.483837390733E+03    0.14703E-03   -0.81146E-04  1960   0.188E-01    0.658E-02
DAV:   4    -0.483837364814E+03    0.25919E-04   -0.10651E-04  1392   0.757E-02    0.290E-02
DAV:   5    -0.483837377827E+03   -0.13013E-04   -0.91509E-05  1448   0.361E-02    0.303E-02
DAV:   6    -0.483837371284E+03    0.65433E-05   -0.62468E-05  1216   0.286E-02
  67 F= -.48383737E+03 E0= -.48380903E+03  d E =-.218106E-02
       N       E                     dE             d eps       ncg     rms          rms(c)
DAV:   1    -0.483835844297E+03    0.15335E-02   -0.70249E-01  1416   0.216E+00    0.190E-01
DAV:   2    -0.483837647998E+03   -0.18037E-02   -0.18558E-02  2032   0.449E-01    0.252E-01
DAV:   3    -0.483837061837E+03    0.58616E-03   -0.27373E-03  2128   0.304E-01    0.128E-01
DAV:   4    -0.483836954961E+03    0.10688E-03   -0.47602E-04  1952   0.154E-01    0.595E-02
DAV:   5    -0.483836978312E+03   -0.23351E-04   -0.29593E-04  1976   0.109E-01    0.511E-02
DAV:   6    -0.483836957819E+03    0.20493E-04   -0.13234E-04  1504   0.574E-02    0.139E-02
DAV:   7    -0.483836961083E+03   -0.32639E-05   -0.31106E-05  1080   0.362E-02
  68 F= -.48383696E+03 E0= -.48380858E+03  d E =-.177086E-02
       N       E                     dE             d eps       ncg     rms          rms(c)
DAV:   1    -0.483836757472E+03    0.20035E-03   -0.41379E-01  1416   0.166E+00    0.144E-01
DAV:   2    -0.483837814583E+03   -0.10571E-02   -0.10918E-02  2024   0.349E-01    0.195E-01
DAV:   3    -0.483837466065E+03    0.34852E-03   -0.16310E-03  2160   0.235E-01    0.983E-02
DAV:   4    -0.483837398140E+03    0.67926E-04   -0.27078E-04  1872   0.117E-01    0.436E-02
DAV:   5    -0.483837414251E+03   -0.16112E-04   -0.17001E-04  1800   0.833E-02    0.392E-02
DAV:   6    -0.483837398982E+03    0.15269E-04   -0.76649E-05  1304   0.520E-02    0.903E-03
DAV:   7    -0.483837401531E+03   -0.25488E-05   -0.13929E-05   936   0.216E-02
  69 F= -.48383740E+03 E0= -.48380906E+03  d E =-.221131E-02
       N       E                     dE             d eps       ncg     rms          rms(c)
DAV:   1    -0.483838055651E+03   -0.65667E-03   -0.34781E-01  1408   0.149E+00    0.134E-01
DAV:   2    -0.483838923571E+03   -0.86792E-03   -0.91356E-03  2048   0.324E-01    0.171E-01
DAV:   3    -0.483838679128E+03    0.24444E-03   -0.13966E-03  2168   0.222E-01    0.943E-02
DAV:   4    -0.483838604756E+03    0.74372E-04   -0.20919E-04  1688   0.998E-02    0.384E-02
DAV:   5    -0.483838617917E+03   -0.13161E-04   -0.11894E-04  1752   0.677E-02    0.328E-02
DAV:   6    -0.483838608306E+03    0.96110E-05   -0.60575E-05  1296   0.476E-02
  70 F= -.48383861E+03 E0= -.48381022E+03  d E =-.120678E-02
       N       E                     dE             d eps       ncg     rms          rms(c)
DAV:   1    -0.483837399297E+03    0.12186E-02   -0.12319E+00  1408   0.281E+00    0.254E-01
DAV:   2    -0.483840507833E+03   -0.31085E-02   -0.32710E-02  2048   0.603E-01    0.320E-01
DAV:   3    -0.483839660555E+03    0.84728E-03   -0.48969E-03  2184   0.414E-01    0.178E-01
DAV:   4    -0.483839391376E+03    0.26918E-03   -0.75551E-04  1944   0.188E-01    0.735E-02
DAV:   5    -0.483839441604E+03   -0.50228E-04   -0.41603E-04  2056   0.124E-01    0.627E-02
DAV:   6    -0.483839408356E+03    0.33248E-04   -0.21553E-04  1624   0.840E-02    0.193E-02
DAV:   7    -0.483839411735E+03   -0.33784E-05   -0.31131E-05  1080   0.289E-02
  71 F= -.48383941E+03 E0= -.48381098E+03  d E =-.201020E-02
       N       E                     dE             d eps       ncg     rms          rms(c)
DAV:   1    -0.483839931264E+03   -0.52291E-03   -0.24986E-01  1408   0.125E+00    0.884E-02
DAV:   2    -0.483840410757E+03   -0.47949E-03   -0.56928E-03  2016   0.233E-01    0.676E-02
DAV:   3    -0.483840416516E+03   -0.57588E-05   -0.35528E-04  1864   0.733E-02    0.706E-02
DAV:   4    -0.483840377950E+03    0.38566E-04   -0.11185E-04  1288   0.430E-02    0.340E-02
DAV:   5    -0.483840388979E+03   -0.11029E-04   -0.53166E-05  1208   0.342E-02    0.280E-02
DAV:   6    -0.483840385044E+03    0.39347E-05   -0.59468E-05  1208   0.443E-02
  72 F= -.48384039E+03 E0= -.48381194E+03  d E =-.973309E-03
       N       E                     dE             d eps       ncg     rms          rms(c)
DAV:   1    -0.483838038230E+03    0.23507E-02   -0.22469E+00  1408   0.374E+00    0.266E-01
DAV:   2    -0.483842171062E+03   -0.41328E-02   -0.50491E-02  2016   0.798E-01    0.203E-01
DAV:   3    -0.483842148080E+03    0.22981E-04   -0.48790E-03  2096   0.480E-01    0.198E-01
DAV:   4    -0.483841851951E+03    0.29613E-03   -0.18437E-03  2040   0.294E-01    0.977E-02
DAV:   5    -0.483841914052E+03   -0.62101E-04   -0.45303E-04  1856   0.732E-02    0.590E-02
DAV:   6    -0.483841910785E+03    0.32676E-05   -0.22787E-04  1520   0.615E-02    0.382E-02
DAV:   7    -0.483841911365E+03   -0.58067E-06   -0.58692E-05  1200   0.376E-02
  73 F= -.48384191E+03 E0= -.48381339E+03  d E =-.249963E-02
       N       E                     dE             d eps       ncg     rms          rms(c)
DAV:   1    -0.483841698896E+03    0.21189E-03   -0.13686E-01  1408   0.925E-01    0.683E-02
DAV:   2    -0.483841974284E+03   -0.27539E-03   -0.32754E-03  2032   0.216E-01    0.590E-02
DAV:   3    -0.483841965140E+03    0.91440E-05   -0.40085E-04  1688   0.135E-01    0.513E-02
DAV:   4    -0.483841945782E+03    0.19358E-04   -0.10646E-04  1256   0.678E-02    0.236E-02
DAV:   5    -0.483841955333E+03   -0.95511E-05   -0.41344E-05  1224   0.261E-02
  74 F= -.48384196E+03 E0= -.48381345E+03  d E =-.254360E-02
       N       E                     dE             d eps       ncg     rms          rms(c)
DAV:   1    -0.483842314972E+03   -0.36919E-03   -0.63603E-01  1408   0.199E+00    0.143E-01
DAV:   2    -0.483843498996E+03   -0.11840E-02   -0.14279E-02  2024   0.373E-01    0.939E-02
DAV:   3    -0.483843501221E+03   -0.22242E-05   -0.65484E-04  1728   0.883E-02    0.907E-02
DAV:   4    -0.483843463850E+03    0.37370E-04   -0.33366E-04  1568   0.600E-02    0.612E-02
DAV:   5    -0.483843462298E+03    0.15526E-05   -0.84401E-05  1328   0.435E-02
  75 F= -.48384346E+03 E0= -.48381492E+03  d E =-.150696E-02
       N       E                     dE             d eps       ncg     rms          rms(c)
DAV:   1    -0.483841289533E+03    0.21743E-02   -0.16362E+00  1408   0.319E+00    0.237E-01
DAV:   2    -0.483844357511E+03   -0.30680E-02   -0.37103E-02  2016   0.605E-01    0.177E-01
DAV:   3    -0.483844379406E+03   -0.21895E-04   -0.36672E-03  2104   0.290E-01    0.175E-01
DAV:   4    -0.483844157281E+03    0.22212E-03   -0.14639E-03  2016   0.217E-01    0.872E-02
DAV:   5    -0.483844196930E+03   -0.39648E-04   -0.34139E-04  1936   0.136E-01    0.544E-02
DAV:   6    -0.483844194503E+03    0.24263E-05   -0.19678E-04  1656   0.103E-01    0.285E-02
DAV:   7    -0.483844193579E+03    0.92476E-06   -0.37566E-05  1144   0.261E-02
  76 F= -.48384419E+03 E0= -.48381556E+03  d E =-.223825E-02
       N       E                     dE             d eps       ncg     rms          rms(c)
DAV:   1    -0.483843702973E+03    0.49153E-03   -0.11031E+00  1408   0.261E+00    0.188E-01
DAV:   2    -0.483845734140E+03   -0.20312E-02   -0.24882E-02  2024   0.489E-01    0.113E-01
DAV:   3    -0.483845693057E+03    0.41083E-04   -0.76076E-04  1800   0.932E-02    0.831E-02
DAV:   4    -0.483845738105E+03   -0.45048E-04   -0.41142E-04  1832   0.914E-02    0.834E-02
DAV:   5    -0.483845714966E+03    0.23139E-04   -0.30060E-04  1520   0.126E-01    0.508E-02
DAV:   6    -0.483845721478E+03   -0.65125E-05   -0.16865E-04  1416   0.112E-01    0.367E-02
DAV:   7    -0.483845716603E+03    0.48756E-05   -0.56261E-05  1200   0.343E-02
  77 F= -.48384572E+03 E0= -.48381693E+03  d E =-.152302E-02
       N       E                     dE             d eps       ncg     rms          rms(c)
DAV:   1    -0.483840515734E+03    0.52057E-02   -0.33415E+00  1408   0.454E+00    0.329E-01
DAV:   2    -0.483846594378E+03   -0.60786E-02   -0.74685E-02  2016   0.868E-01    0.208E-01
DAV:   3    -0.483846619594E+03   -0.25216E-04   -0.43788E-03  2136   0.385E-01    0.205E-01
DAV:   4    -0.483846426128E+03    0.19347E-03   -0.24369E-03  2104   0.343E-01    0.134E-01
DAV:   5    -0.483846445133E+03   -0.19005E-04   -0.61265E-04  2048   0.188E-01    0.705E-02
DAV:   6    -0.483846549919E+03   -0.10479E-03   -0.41884E-04  1736   0.107E-01    0.931E-02
DAV:   7    -0.483846460075E+03    0.89845E-04   -0.19701E-04  1352   0.546E-02    0.140E-02
DAV:   8    -0.483846462887E+03   -0.28120E-05   -0.21684E-05  1120   0.279E-02
  78 F= -.48384646E+03 E0= -.48381749E+03  d E =-.226931E-02
       N       E                     dE             d eps       ncg     rms          rms(c)
DAV:   1    -0.483846070728E+03    0.38935E-03   -0.95472E-01  1408   0.241E+00    0.184E-01
DAV:   2    -0.483847952679E+03   -0.18820E-02   -0.22534E-02  2016   0.453E-01    0.145E-01
DAV:   3    -0.483848001232E+03   -0.48553E-04   -0.14267E-03  2112   0.175E-01    0.152E-01
DAV:   4    -0.483847776446E+03    0.22479E-03   -0.48887E-04  1960   0.136E-01    0.669E-02
DAV:   5    -0.483847819128E+03   -0.42682E-04   -0.25174E-04  1944   0.112E-01    0.530E-02
DAV:   6    -0.483847804021E+03    0.15107E-04   -0.15795E-04  1528   0.905E-02    0.157E-02
DAV:   7    -0.483847807122E+03   -0.31012E-05   -0.14889E-05  1024   0.269E-02
  79 F= -.48384781E+03 E0= -.48381877E+03  d E =-.134424E-02
       N       E                     dE             d eps       ncg     rms          rms(c)
DAV:   1    -0.483844213375E+03    0.35906E-02   -0.23976E+00  1408   0.382E+00    0.291E-01
DAV:   2    -0.483848913910E+03   -0.47005E-02   -0.56167E-02  2016   0.716E-01    0.234E-01
DAV:   3    -0.483849019397E+03   -0.10549E-03   -0.36323E-03  2056   0.267E-01    0.242E-01
DAV:   4    -0.483848450126E+03    0.56927E-03   -0.12411E-03  1976   0.205E-01    0.105E-01
DAV:   5    -0.483848545695E+03   -0.95568E-04   -0.61777E-04  2088   0.189E-01    0.826E-02
DAV:   6    -0.483848509904E+03    0.35790E-04   -0.42230E-04  1744   0.175E-01    0.304E-02
DAV:   7    -0.483848520133E+03   -0.10229E-04   -0.12167E-04  1248   0.808E-02    0.285E-02
DAV:   8    -0.483848513500E+03    0.66335E-05   -0.53186E-05  1200   0.421E-02
  80 F= -.48384851E+03 E0= -.48381938E+03  d E =-.205061E-02
       N       E                     dE             d eps       ncg     rms          rms(c)
DAV:   1    -0.483848899913E+03   -0.37978E-03   -0.45183E-01  1408   0.167E+00    0.136E-01
DAV:   2    -0.483849926337E+03   -0.10264E-02   -0.11136E-02  1984   0.320E-01    0.150E-01
DAV:   3    -0.483849803188E+03    0.12315E-03   -0.11670E-03  1976   0.139E-01    0.102E-01
DAV:   4    -0.483849709449E+03    0.93740E-04   -0.25697E-04  1840   0.944E-02    0.474E-02
DAV:   5    -0.483849734741E+03   -0.25293E-04   -0.19414E-04  1464   0.125E-01    0.508E-02
DAV:   6    -0.483849716251E+03    0.18491E-04   -0.16467E-04  1456   0.113E-01    0.195E-02
DAV:   7    -0.483849720553E+03   -0.43029E-05   -0.50532E-05  1144   0.322E-02
  81 F= -.48384972E+03 E0= -.48382049E+03  d E =-.120705E-02
       N       E                     dE             d eps       ncg     rms          rms(c)
DAV:   1    -0.483849158537E+03    0.55771E-03   -0.51533E-01  1408   0.179E+00    0.145E-01
DAV:   2    -0.483850306163E+03   -0.11476E-02   -0.12514E-02  2016   0.346E-01    0.159E-01
DAV:   3    -0.483850176642E+03    0.12952E-03   -0.13145E-03  1976   0.147E-01    0.110E-01
DAV:   4    -0.483850066090E+03    0.11055E-03   -0.28635E-04  1856   0.981E-02    0.503E-02
DAV:   5    -0.483850095876E+03   -0.29786E-04   -0.22409E-04  1600   0.133E-01    0.551E-02
DAV:   6    -0.483850073018E+03    0.22858E-04   -0.19045E-04  1456   0.119E-01    0.201E-02
DAV:   7    -0.483850078147E+03   -0.51288E-05   -0.52473E-05  1152   0.299E-02
  82 F= -.48385008E+03 E0= -.48382075E+03  d E =-.156465E-02
       N       E                     dE             d eps       ncg     rms          rms(c)
DAV:   1    -0.483850318743E+03   -0.24572E-03   -0.45966E-01  1408   0.168E+00    0.139E-01
DAV:   2    -0.483851312952E+03   -0.99421E-03   -0.10890E-02  1968   0.318E-01    0.153E-01
DAV:   3    -0.483851193436E+03    0.11952E-03   -0.12060E-03  1976   0.146E-01    0.106E-01
DAV:   4    -0.483851090144E+03    0.10329E-03   -0.27092E-04  1736   0.959E-02    0.483E-02
DAV:   5    -0.483851116687E+03   -0.26543E-04   -0.19716E-04  1552   0.124E-01    0.513E-02
DAV:   6    -0.483851096527E+03    0.20160E-04   -0.16605E-04  1400   0.112E-01    0.187E-02
DAV:   7    -0.483851101171E+03   -0.46444E-05   -0.46033E-05  1080   0.301E-02
  83 F= -.48385110E+03 E0= -.48382172E+03  d E =-.102302E-02
       N       E                     dE             d eps       ncg     rms          rms(c)
DAV:   1    -0.483850381779E+03    0.71475E-03   -0.64309E-01  1408   0.198E+00    0.166E-01
DAV:   2    -0.483851779724E+03   -0.13979E-02   -0.15196E-02  1976   0.376E-01    0.184E-01
DAV:   3    -0.483851598667E+03    0.18106E-03   -0.17179E-03  2008   0.176E-01    0.126E-01
DAV:   4    -0.483851456230E+03    0.14244E-03   -0.38388E-04  1880   0.115E-01    0.569E-02
DAV:   5    -0.483851492484E+03   -0.36254E-04   -0.27596E-04  1768   0.144E-01    0.599E-02
DAV:   6    -0.483851464548E+03    0.27935E-04   -0.22314E-04  1424   0.129E-01    0.223E-02
DAV:   7    -0.483851470197E+03   -0.56487E-05   -0.62893E-05  1152   0.349E-02
  84 F= -.48385147E+03 E0= -.48382201E+03  d E =-.139205E-02
       N       E                     dE             d eps       ncg     rms          rms(c)
DAV:   1    -0.483851530616E+03   -0.66068E-04   -0.59499E-01  1408   0.190E+00    0.153E-01
DAV:   2    -0.483852756027E+03   -0.12254E-02   -0.13673E-02  2000   0.354E-01    0.167E-01
DAV:   3    -0.483852620670E+03    0.13536E-03   -0.15836E-03  2120   0.230E-01    0.125E-01
DAV:   4    -0.483852479658E+03    0.14101E-03   -0.33272E-04  1864   0.118E-01    0.494E-02
DAV:   5    -0.483852509005E+03   -0.29347E-04   -0.18364E-04  1936   0.632E-02    0.425E-02
DAV:   6    -0.483852494669E+03    0.14337E-04   -0.11269E-04  1328   0.378E-02    0.168E-02
DAV:   7    -0.483852497470E+03   -0.28013E-05   -0.31111E-05  1072   0.375E-02
  85 F= -.48385250E+03 E0= -.48382298E+03  d E =-.102727E-02
       N       E                     dE             d eps       ncg     rms          rms(c)
DAV:   1    -0.483852298363E+03    0.19631E-03   -0.23586E-01  1408   0.120E+00    0.979E-02
DAV:   2    -0.483852828768E+03   -0.53041E-03   -0.58745E-03  2016   0.230E-01    0.109E-01
DAV:   3    -0.483852768632E+03    0.60137E-04   -0.67596E-04  2024   0.159E-01    0.802E-02
DAV:   4    -0.483852712063E+03    0.56569E-04   -0.13026E-04  1440   0.778E-02    0.321E-02
DAV:   5    -0.483852728299E+03   -0.16236E-04   -0.92729E-05  1384   0.363E-02    0.315E-02
DAV:   6    -0.483852721139E+03    0.71606E-05   -0.70640E-05  1240   0.291E-02
  86 F= -.48385272E+03 E0= -.48382319E+03  d E =-.125094E-02
       N       E                     dE             d eps       ncg     rms          rms(c)
DAV:   1    -0.483853068339E+03   -0.34004E-03   -0.29148E-01  1408   0.135E+00    0.120E-01
DAV:   2    -0.483853895714E+03   -0.82737E-03   -0.73607E-03  2016   0.273E-01    0.184E-01
DAV:   3    -0.483853553822E+03    0.34189E-03   -0.12495E-03  2096   0.188E-01    0.808E-02
DAV:   4    -0.483853519717E+03    0.34104E-04   -0.18425E-04  1712   0.877E-02    0.370E-02
DAV:   5    -0.483853529597E+03   -0.98802E-05   -0.10235E-04  1384   0.783E-02    0.348E-02
DAV:   6    -0.483853521347E+03    0.82500E-05   -0.59660E-05  1352   0.625E-02
  87 F= -.48385352E+03 E0= -.48382391E+03  d E =-.800209E-03
