<?xml version="1.0" encoding="ISO-8859-1"?>
<modeling>
 <generator>
  <i name="program" type="string">vasp </i>
  <i name="version" type="string">6.3.2  </i>
  <i name="subversion" type="string">27Jun22 (build May 04 2024 18:40:40) complex                          parallel </i>
  <i name="platform" type="string">LinuxIFC </i>
  <i name="date" type="string">2024 09 03 </i>
  <i name="time" type="string">05:03:17 </i>
 </generator>
 <incar>
  <i type="string" name="SYSTEM">slab_Cel1-OPT</i>
  <i type="int" name="ISTART">     0</i>
  <i type="string" name="PREC">N</i>
  <i type="string" name="ALGO">N</i>
  <i type="int" name="ICHARG">     2</i>
  <i type="int" name="NELM">   200</i>
  <i type="int" name="IBRION">     2</i>
  <i name="EDIFF">      0.00001000</i>
  <i name="EDIFFG">     -0.05000000</i>
  <i type="int" name="NSW">  1000</i>
  <i type="int" name="ISIF">     3</i>
  <i name="ENCUT">    400.00000000</i>
  <i name="POTIM">      0.10000000</i>
  <i type="string" name="LREAL">AUTO</i>
  <i type="int" name="ISMEAR">     0</i>
  <i name="SIGMA">      0.10000000</i>
  <i type="logical" name="LWAVE"> F  </i>
  <i type="logical" name="LCHARG"> F  </i>
  <i type="logical" name="LELF"> F  </i>
  <i type="logical" name="LAECHG"> F  </i>
  <i type="logical" name="LDIPOL"> T  </i>
  <i type="int" name="IDIPOL">     3</i>
 </incar>
 <primitive_cell>
  <structure name="primitive_cell" >
   <crystal>
    <varray name="basis" >
     <v>      13.75970367       0.00000000       0.00000000 </v>
     <v>       0.00000000      11.28669971       0.00000000 </v>
     <v>       0.00000000       0.00000000      15.00000000 </v>
    </varray>
    <i name="volume">   2329.52465126 </i>
    <varray name="rec_basis" >
     <v>       0.07267598       0.00000000       0.00000000 </v>
     <v>       0.00000000       0.08859986       0.00000000 </v>
     <v>       0.00000000       0.00000000       0.06666667 </v>
    </varray>
   </crystal>
   <varray name="positions" >
    <v>       0.07054120       0.38816457       0.22227495 </v>
    <v>       0.98151180       0.21832942       0.16785344 </v>
    <v>       0.22877304       0.39667288       0.18904348 </v>
    <v>       0.82472337       0.57572318       0.18403191 </v>
    <v>       0.14970601       0.24663792       0.12277753 </v>
    <v>       0.90758628       0.38434512       0.21811946 </v>
    <v>       0.56886571       0.39316130       0.23173729 </v>
    <v>       0.47768100       0.22391730       0.18017943 </v>
    <v>       0.73035049       0.39802658       0.19909345 </v>
    <v>       0.31101118       0.58132963       0.17977696 </v>
    <v>       0.64681854       0.25040749       0.13377315 </v>
    <v>       0.40275100       0.39355427       0.22106508 </v>
    <v>       0.81808056       0.88988957       0.05647519 </v>
    <v>       0.73319531       0.72568325       0.12448457 </v>
    <v>       0.97932824       0.89597624       0.07999408 </v>
    <v>       0.06867909       0.07698375       0.09423854 </v>
    <v>       0.90528082       0.74258583       0.14719628 </v>
    <v>       0.65472406       0.89333727       0.07691603 </v>
    <v>       0.31825350       0.89473226       0.05377466 </v>
    <v>       0.22716619       0.72126926       0.10084126 </v>
    <v>       0.47498917       0.90396535       0.09489577 </v>
    <v>       0.56592959       0.08075138       0.11024766 </v>
    <v>       0.38612516       0.76037560       0.16363174 </v>
    <v>       0.15509033       0.88950396       0.05271529 </v>
    <v>       0.98784551       0.43883046       0.24713656 </v>
    <v>       0.89991795       0.26975381       0.19549767 </v>
    <v>       0.15759857       0.43325808       0.24240148 </v>
    <v>       0.14788829       0.14353661       0.08017307 </v>
    <v>       0.98633649       0.10796021       0.13653167 </v>
    <v>       0.22915942       0.31533454       0.12527490 </v>
    <v>       0.06735802       0.28598388       0.16888911 </v>
    <v>       0.82274912       0.45552252       0.21014877 </v>
    <v>       0.48493735       0.44793349       0.25146232 </v>
    <v>       0.39648714       0.27665554       0.20625030 </v>
    <v>       0.65756919       0.43524210       0.25419888 </v>
    <v>       0.64488604       0.14640144       0.09374788 </v>
    <v>       0.48286722       0.11321356       0.15081376 </v>
    <v>       0.72606390       0.31870920       0.13454719 </v>
    <v>       0.56470606       0.29135323       0.18008364 </v>
    <v>       0.31888640       0.46086995       0.20329135 </v>
    <v>       0.73287748       0.94248397       0.03965616 </v>
    <v>       0.64891188       0.78317499       0.11254597 </v>
    <v>       0.90382696       0.93469024       0.03189926 </v>
    <v>       0.90701680       0.63807548       0.18754912 </v>
    <v>       0.73647441       0.61699787       0.15934394 </v>
    <v>       0.98321706       0.81212363       0.14197152 </v>
    <v>       0.81925020       0.78400528       0.10639513 </v>
    <v>       0.56804185       0.96074410       0.08520074 </v>
    <v>       0.23699719       0.94478449       0.02657725 </v>
    <v>       0.14820250       0.77173059       0.06843984 </v>
    <v>       0.40793432       0.93556381       0.03646331 </v>
    <v>       0.38047481       0.65838217       0.20939239 </v>
    <v>       0.23501053       0.60894863       0.12850628 </v>
    <v>       0.46527775       0.83024755       0.16578047 </v>
    <v>       0.31113112       0.79334051       0.10891910 </v>
    <v>       0.06990262       0.95754122       0.06514651 </v>
    <v>       0.57736557       0.77647674       0.24193941 </v>
    <v>       0.65582252       0.60772566       0.29790490 </v>
    <v>       0.48700699       0.61617049       0.29396059 </v>
   </varray>
  </structure>
  <varray name="primitive_index" >
   <v type="int" >        1 </v>
   <v type="int" >        2 </v>
   <v type="int" >        3 </v>
   <v type="int" >        4 </v>
   <v type="int" >        5 </v>
   <v type="int" >        6 </v>
   <v type="int" >        7 </v>
   <v type="int" >        8 </v>
   <v type="int" >        9 </v>
   <v type="int" >       10 </v>
   <v type="int" >       11 </v>
   <v type="int" >       12 </v>
   <v type="int" >       13 </v>
   <v type="int" >       14 </v>
   <v type="int" >       15 </v>
   <v type="int" >       16 </v>
   <v type="int" >       17 </v>
   <v type="int" >       18 </v>
   <v type="int" >       19 </v>
   <v type="int" >       20 </v>
   <v type="int" >       21 </v>
   <v type="int" >       22 </v>
   <v type="int" >       23 </v>
   <v type="int" >       24 </v>
   <v type="int" >       25 </v>
   <v type="int" >       26 </v>
   <v type="int" >       27 </v>
   <v type="int" >       28 </v>
   <v type="int" >       29 </v>
   <v type="int" >       30 </v>
   <v type="int" >       31 </v>
   <v type="int" >       32 </v>
   <v type="int" >       33 </v>
   <v type="int" >       34 </v>
   <v type="int" >       35 </v>
   <v type="int" >       36 </v>
   <v type="int" >       37 </v>
   <v type="int" >       38 </v>
   <v type="int" >       39 </v>
   <v type="int" >       40 </v>
   <v type="int" >       41 </v>
   <v type="int" >       42 </v>
   <v type="int" >       43 </v>
   <v type="int" >       44 </v>
   <v type="int" >       45 </v>
   <v type="int" >       46 </v>
   <v type="int" >       47 </v>
   <v type="int" >       48 </v>
   <v type="int" >       49 </v>
   <v type="int" >       50 </v>
   <v type="int" >       51 </v>
   <v type="int" >       52 </v>
   <v type="int" >       53 </v>
   <v type="int" >       54 </v>
   <v type="int" >       55 </v>
   <v type="int" >       56 </v>
   <v type="int" >       57 </v>
   <v type="int" >       58 </v>
   <v type="int" >       59 </v>
  </varray>
 </primitive_cell>
 <kpoints>
  <generation param="Gamma">
   <v type="int" name="divisions">       2        2        1 </v>
   <v name="usershift">      0.00000000       0.00000000       0.00000000 </v>
   <v name="genvec1">      0.50000000       0.00000000       0.00000000 </v>
   <v name="genvec2">      0.00000000       0.50000000       0.00000000 </v>
   <v name="genvec3">      0.00000000       0.00000000       1.00000000 </v>
   <v name="shift">      0.00000000       0.00000000       0.00000000 </v>
  </generation>
  <varray name="kpointlist" >
   <v>       0.00000000       0.00000000       0.00000000 </v>
   <v>       0.50000000       0.00000000       0.00000000 </v>
   <v>       0.00000000       0.50000000       0.00000000 </v>
   <v>       0.50000000       0.50000000       0.00000000 </v>
  </varray>
  <varray name="weights" >
   <v>       0.25000000 </v>
   <v>       0.25000000 </v>
   <v>       0.25000000 </v>
   <v>       0.25000000 </v>
  </varray>
 </kpoints>
 <parameters>
  <separator name="general" >
   <i type="string" name="SYSTEM">slab_Cel1-OPT</i>
   <i type="logical" name="LCOMPAT"> F  </i>
  </separator>
  <separator name="electronic" >
   <i type="string" name="PREC">n</i>
   <i name="ENMAX">    400.00000000</i>
   <i name="ENAUG">    644.87300000</i>
   <i name="EDIFF">      0.00001000</i>
   <i type="int" name="IALGO">    38</i>
   <i type="int" name="IWAVPR">    11</i>
   <i type="int" name="NBANDS">   176</i>
   <i type="int" name="NBANDSLOW">    -1</i>
   <i type="int" name="NBANDSHIGH">    -1</i>
   <i name="NELECT">    287.00000000</i>
   <i type="int" name="TURBO">     0</i>
   <i type="int" name="IRESTART">     0</i>
   <i type="int" name="NREBOOT">     0</i>
   <i type="int" name="NMIN">     0</i>
   <i name="EREF">      0.00000000</i>
   <separator name="electronic smearing" >
    <i type="int" name="ISMEAR">     0</i>
    <i name="SIGMA">      0.10000000</i>
    <i name="KSPACING">      0.50000000</i>
    <i type="logical" name="KGAMMA"> T  </i>
    <i type="logical" name="KBLOWUP"> T  </i>
   </separator>
   <separator name="electronic projectors" >
    <i type="logical" name="LREAL"> T  </i>
    <v name="ROPT">     -0.00050000     -0.00050000     -0.00050000     -0.00050000</v>
    <i type="int" name="LMAXPAW">  -100</i>
    <i type="int" name="LMAXMIX">     2</i>
    <i type="logical" name="NLSPLINE"> F  </i>
   </separator>
   <separator name="electronic startup" >
    <i type="int" name="ISTART">     0</i>
    <i type="int" name="ICHARG">     2</i>
    <i type="int" name="INIWAV">     1</i>
   </separator>
   <separator name="electronic spin" >
    <i type="int" name="ISPIN">     1</i>
    <i type="logical" name="LNONCOLLINEAR"> F  </i>
    <v name="MAGMOM">      1.00000000      1.00000000      1.00000000      1.00000000      1.00000000      1.00000000      1.00000000      1.00000000      1.00000000      1.00000000      1.00000000      1.00000000      1.00000000      1.00000000      1.00000000      1.00000000      1.00000000      1.00000000      1.00000000      1.00000000
      1.00000000      1.00000000      1.00000000      1.00000000      1.00000000      1.00000000      1.00000000      1.00000000      1.00000000      1.00000000      1.00000000      1.00000000      1.00000000      1.00000000      1.00000000      1.00000000      1.00000000      1.00000000      1.00000000      1.00000000
      1.00000000      1.00000000      1.00000000      1.00000000      1.00000000      1.00000000      1.00000000      1.00000000      1.00000000      1.00000000      1.00000000      1.00000000      1.00000000      1.00000000      1.00000000      1.00000000      1.00000000      1.00000000      1.00000000</v>
    <i name="NUPDOWN">     -1.00000000</i>
    <i type="logical" name="LSORBIT"> F  </i>
    <v name="SAXIS">      0.00000000      0.00000000      1.00000000</v>
    <i type="logical" name="LSPIRAL"> F  </i>
    <v name="QSPIRAL">      0.00000000      0.00000000      0.00000000</v>
    <i type="logical" name="LZEROZ"> F  </i>
   </separator>
   <separator name="electronic exchange-correlation" >
    <i type="logical" name="LASPH"> F  </i>
    <i type="logical" name="LMETAGGA"> F  </i>
   </separator>
   <separator name="electronic convergence" >
    <i type="int" name="NELM">   200</i>
    <i type="int" name="NELMDL">    -5</i>
    <i type="int" name="NELMIN">     2</i>
    <i name="ENINI">    400.00000000</i>
    <separator name="electronic convergence detail" >
     <i type="logical" name="LDIAG"> T  </i>
     <i type="logical" name="LSUBROT"> F  </i>
     <i name="WEIMIN">      0.00100000</i>
     <i name="EBREAK">      0.00000001</i>
     <i name="DEPER">      0.30000000</i>
     <i type="int" name="NRMM">     4</i>
     <i name="TIME">      0.40000000</i>
    </separator>
   </separator>
   <separator name="electronic mixer" >
    <i name="AMIX">      0.40000000</i>
    <i name="BMIX">      1.00000000</i>
    <i name="AMIN">      0.10000000</i>
    <i name="AMIX_MAG">      1.60000000</i>
    <i name="BMIX_MAG">      1.00000000</i>
    <separator name="electronic mixer details" >
     <i type="int" name="IMIX">     4</i>
     <i type="logical" name="MIXFIRST"> F  </i>
     <i type="int" name="MAXMIX">   -45</i>
     <i name="WC">    100.00000000</i>
     <i type="int" name="INIMIX">     1</i>
     <i type="int" name="MIXPRE">     1</i>
     <i type="int" name="MREMOVE">     5</i>
    </separator>
   </separator>
   <separator name="electronic dipolcorrection" >
    <i type="logical" name="LDIPOL"> T  </i>
    <i type="logical" name="LMONO"> F  </i>
    <i type="int" name="IDIPOL">     3</i>
    <i name="EPSILON">      1.00000000</i>
    <v name="DIPOL">   -100.00000000   -100.00000000   -100.00000000</v>
    <i name="EFIELD">      0.00000000</i>
   </separator>
  </separator>
  <separator name="grids" >
   <i type="int" name="NGX">    70</i>
   <i type="int" name="NGY">    56</i>
   <i type="int" name="NGZ">    80</i>
   <i type="int" name="NGXF">   140</i>
   <i type="int" name="NGYF">   112</i>
   <i type="int" name="NGZF">   160</i>
   <i type="logical" name="ADDGRID"> F  </i>
  </separator>
  <separator name="ionic" >
   <i type="int" name="NSW">  1000</i>
   <i type="int" name="IBRION">     2</i>
   <i type="int" name="MDALGO">     0</i>
   <i type="int" name="ISIF">     3</i>
   <i name="PSTRESS">      0.00000000</i>
   <i name="EDIFFG">     -0.05000000</i>
   <i type="int" name="NFREE">     1</i>
   <i name="POTIM">      0.10000000</i>
   <i name="SMASS">     -3.00000000</i>
   <i name="SCALEE">      1.00000000</i>
  </separator>
  <separator name="ionic md" >
   <i name="TEBEG">      0.00010000</i>
   <i name="TEEND">      0.00010000</i>
   <i type="int" name="NBLOCK">     1</i>
   <i type="int" name="KBLOCK">  1000</i>
   <i type="int" name="NPACO">   256</i>
   <i name="APACO">     10.00000000</i>
  </separator>
  <separator name="symmetry" >
   <i type="int" name="ISYM">     2</i>
   <i name="SYMPREC">      0.00001000</i>
  </separator>
  <separator name="dos" >
   <i type="int" name="LORBIT">     0</i>
   <v name="RWIGS">     -1.00000000     -1.00000000     -1.00000000     -1.00000000</v>
   <i type="int" name="NEDOS">   301</i>
   <i name="EMIN">     10.00000000</i>
   <i name="EMAX">    -10.00000000</i>
   <i name="EFERMI">      0.00000000</i>
  </separator>
  <separator name="writing" >
   <i type="int" name="NWRITE">     2</i>
   <i type="logical" name="LWAVE"> F  </i>
   <i type="logical" name="LDOWNSAMPLE"> F  </i>
   <i type="logical" name="LCHARG"> F  </i>
   <i type="logical" name="LPARD"> F  </i>
   <i type="logical" name="LVTOT"> F  </i>
   <i type="logical" name="LVHAR"> F  </i>
   <i type="logical" name="LELF"> F  </i>
   <i type="logical" name="LOPTICS"> F  </i>
   <v name="STM">      0.00000000      0.00000000      0.00000000      0.00000000      0.00000000      0.00000000      0.00000000</v>
  </separator>
  <separator name="performance" >
   <i type="int" name="NPAR">     4</i>
   <i type="int" name="NSIM">     4</i>
   <i type="int" name="NBLK">    -1</i>
   <i type="logical" name="LPLANE"> T  </i>
   <i type="logical" name="LSCALAPACK"> T  </i>
   <i type="logical" name="LSCAAWARE"> F  </i>
   <i type="logical" name="LSCALU"> F  </i>
   <i type="logical" name="LASYNC"> F  </i>
   <i type="logical" name="LORBITALREAL"> F  </i>
  </separator>
  <separator name="miscellaneous" >
   <i type="int" name="IDIOT">     3</i>
   <i type="int" name="PHON_NSTRUCT">    -1</i>
   <i type="logical" name="LMUSIC"> F  </i>
   <v name="POMASS">     12.01100000     14.00100000     63.54600000    106.42000000</v>
   <v name="DARWINR">      0.00000000      0.00000000      0.00000000      0.00000000</v>
   <v name="DARWINV">      1.00000000      1.00000000      1.00000000      1.00000000</v>
   <i type="logical" name="LCORR"> T  </i>
  </separator>
  <i type="logical" name="GGA_COMPAT"> T  </i>
  <i type="logical" name="LBERRY"> F  </i>
  <i type="int" name="ICORELEVEL">     0</i>
  <i type="logical" name="LDAU"> F  </i>
  <i type="int" name="I_CONSTRAINED_M">     0</i>
  <separator name="electronic exchange-correlation" >
   <i type="string" name="GGA">--</i>
   <i type="int" name="VOSKOWN">     0</i>
   <i type="logical" name="LHFCALC"> F  </i>
   <i type="string" name="PRECFOCK"></i>
   <i type="logical" name="LSYMGRAD"> F  </i>
   <i type="logical" name="LHFONE"> F  </i>
   <i type="logical" name="LRHFCALC"> F  </i>
   <i type="logical" name="LTHOMAS"> F  </i>
   <i type="logical" name="LMODELHF"> F  </i>
   <i type="logical" name="LFOCKACE"> F  </i>
   <i name="ENCUT4O">     -1.00000000</i>
   <i type="int" name="EXXOEP">     0</i>
   <i type="int" name="FOURORBIT">     0</i>
   <i name="AEXX">      0.00000000</i>
   <i name="HFALPHA">      0.00000000</i>
   <i name="MCALPHA">      0.00000000</i>
   <i name="ALDAX">      1.00000000</i>
   <i name="AGGAX">      1.00000000</i>
   <i name="ALDAC">      1.00000000</i>
   <i name="AGGAC">      1.00000000</i>
   <i type="int" name="NKREDX">     1</i>
   <i type="int" name="NKREDY">     1</i>
   <i type="int" name="NKREDZ">     1</i>
   <i type="logical" name="SHIFTRED"> F  </i>
   <i type="logical" name="ODDONLY"> F  </i>
   <i type="logical" name="EVENONLY"> F  </i>
   <i type="int" name="LMAXFOCK">     0</i>
   <i type="int" name="NMAXFOCKAE">     0</i>
   <i type="logical" name="LFOCKAEDFT"> F  </i>
   <i name="HFSCREEN">      0.00000000</i>
   <i name="HFSCREENC">      0.00000000</i>
   <i type="int" name="NBANDSGWLOW">     0</i>
  </separator>
  <separator name="vdW DFT" >
   <i type="logical" name="LUSE_VDW"> F  </i>
   <i name="Zab_VDW">     -0.84910000</i>
   <i name="PARAM1">      0.12340000</i>
   <i name="PARAM2">      1.00000000</i>
   <i name="PARAM3">      0.00000000</i>
  </separator>
  <separator name="model GW" >
   <i type="int" name="MODEL_GW">     0</i>
   <i name="MODEL_EPS0">     23.69008120</i>
   <i name="MODEL_ALPHA">      1.00000000</i>
  </separator>
  <separator name="linear response parameters" >
   <i type="logical" name="LEPSILON"> F  </i>
   <i type="logical" name="LRPA"> F  </i>
   <i type="logical" name="LNABLA"> F  </i>
   <i type="logical" name="LVEL"> F  </i>
   <i name="CSHIFT">      0.10000000</i>
   <i name="OMEGAMAX">     -1.00000000</i>
   <i name="DEG_THRESHOLD">      0.00200000</i>
   <i name="RTIME">     -0.10000000</i>
   <i name="WPLASMAI">      0.00000000</i>
   <v name="DFIELD">      0.00000000      0.00000000      0.00000000</v>
   <v name="WPLASMA">      0.00000000      0.00000000      0.00000000      0.00000000      0.00000000      0.00000000      0.00000000      0.00000000      0.00000000</v>
  </separator>
  <separator name="orbital magnetization" >
   <i type="logical" name="NUCIND"> F  </i>
   <v name="MAGPOS">      0.00000000      0.00000000      0.00000000</v>
   <i type="logical" name="LNICSALL"> T  </i>
   <i type="logical" name="ORBITALMAG"> F  </i>
   <i type="logical" name="LMAGBLOCH"> F  </i>
   <i type="logical" name="LCHIMAG"> F  </i>
   <i type="logical" name="LGAUGE"> T  </i>
   <i type="int" name="MAGATOM">     0</i>
   <v name="MAGDIPOL">      0.00000000      0.00000000      0.00000000</v>
   <v name="AVECCONST">      0.00000000      0.00000000      0.00000000</v>
  </separator>
  <separator name="response functions" >
   <i type="logical" name="LFINITE_TEMPERATURE"> F  </i>
   <i type="logical" name="LADDER"> F  </i>
   <i type="logical" name="LRPAFORCE"> F  </i>
   <i type="logical" name="LFXC"> F  </i>
   <i type="logical" name="LHARTREE"> T  </i>
   <i type="int" name="IBSE">     0</i>
   <v type="int" name="KPOINT">    -1     0     0     0</v>
   <i type="logical" name="LTCTC"> F  </i>
   <i type="logical" name="LTCTE"> F  </i>
   <i type="logical" name="LTETE"> F  </i>
   <i type="logical" name="LTRIPLET"> F  </i>
   <i type="logical" name="LFXCEPS"> F  </i>
   <i type="logical" name="LFXHEG"> F  </i>
   <i type="int" name="NATURALO">     2</i>
   <i type="logical" name="LHOLEGF"> F  </i>
   <i type="logical" name="L2ORDER"> F  </i>
   <i type="logical" name="LDMP1"> F  </i>
   <i type="logical" name="LMP2LT"> F  </i>
   <i type="logical" name="LSMP2LT"> F  </i>
   <i type="logical" name="LGWLF"> F  </i>
   <i name="ENCUTGW">     -2.00000000</i>
   <i name="ENCUTGWSOFT">     -2.00000000</i>
   <i name="ENCUTLF">     -1.00000000</i>
   <i type="logical" name="LESF_SPLINES"> F  </i>
   <i type="int" name="LMAXMP2">    -1</i>
   <i name="SCISSOR">      0.00000000</i>
   <i type="int" name="NOMEGA">     0</i>
   <i type="int" name="NOMEGAR">     0</i>
   <i type="int" name="NBANDSGW">    -1</i>
   <i type="int" name="NBANDSO">    -1</i>
   <i type="int" name="NBANDSV">    -1</i>
   <i type="int" name="NELMGW">     1</i>
   <i type="int" name="NELMHF">     1</i>
   <i type="int" name="DIM">     3</i>
   <i type="int" name="IESPILON">     4</i>
   <i type="int" name="ANTIRES">     0</i>
   <i name="OMEGAMAX">    -30.00000000</i>
   <i name="OMEGAMIN">    -30.00000000</i>
   <i name="OMEGATL">   -200.00000000</i>
   <i type="int" name="OMEGAGRID">     0</i>
   <i name="CSHIFT">     -0.10000000</i>
   <i type="logical" name="LSELFENERGY"> F  </i>
   <i type="logical" name="LSPECTRAL"> F  </i>
   <i type="logical" name="LSPECTRALGW"> F  </i>
   <i type="logical" name="LSINGLES"> F  </i>
   <i type="logical" name="LFERMIGW"> F  </i>
   <i type="logical" name="ODDONLYGW"> F  </i>
   <i type="logical" name="EVENONLYGW"> F  </i>
   <i type="int" name="NKREDLFX">     1</i>
   <i type="int" name="NKREDLFY">     1</i>
   <i type="int" name="NKREDLFZ">     1</i>
   <i type="int" name="MAXMEM">  2800</i>
   <i type="int" name="TELESCOPE">     0</i>
   <i type="int" name="NTAUPAR">    -1</i>
   <i type="int" name="NOMEGAPAR">    -1</i>
   <i name="DAMP_NEWTON">      0.80000001</i>
   <i name="LAMBDA">      1.00000000</i>
  </separator>
  <separator name="External order field" >
   <i name="OFIELD_KAPPA">      0.00000000</i>
   <v name="OFIELD_K">      0.00000000      0.00000000      0.00000000</v>
   <i name="OFIELD_Q6_NEAR">      0.00000000</i>
   <i name="OFIELD_Q6_FAR">      0.00000000</i>
   <i name="OFIELD_A">      0.00000000</i>
  </separator>
  <separator name="optional k-points parameters" >
   <i type="int" name="KPOINTS_OPT_MODE">     1</i>
   <i type="logical" name="LKPOINTS_OPT"> F  </i>
  </separator>
  <separator name="solvation model" >
   <i type="logical" name="LSOL"> F  </i>
  </separator>
 </parameters>
 <atominfo>
  <atoms>      59 </atoms>
  <types>       4 </types>
  <array name="atoms" >
   <dimension dim="1">ion</dimension>
   <field type="string">element</field>
   <field type="int">atomtype</field>
   <set>
    <rc><c>C </c><c>   1</c></rc>
    <rc><c>C </c><c>   1</c></rc>
    <rc><c>C </c><c>   1</c></rc>
    <rc><c>C </c><c>   1</c></rc>
    <rc><c>C </c><c>   1</c></rc>
    <rc><c>C </c><c>   1</c></rc>
    <rc><c>C </c><c>   1</c></rc>
    <rc><c>C </c><c>   1</c></rc>
    <rc><c>C </c><c>   1</c></rc>
    <rc><c>C </c><c>   1</c></rc>
    <rc><c>C </c><c>   1</c></rc>
    <rc><c>C </c><c>   1</c></rc>
    <rc><c>C </c><c>   1</c></rc>
    <rc><c>C </c><c>   1</c></rc>
    <rc><c>C </c><c>   1</c></rc>
    <rc><c>C </c><c>   1</c></rc>
    <rc><c>C </c><c>   1</c></rc>
    <rc><c>C </c><c>   1</c></rc>
    <rc><c>C </c><c>   1</c></rc>
    <rc><c>C </c><c>   1</c></rc>
    <rc><c>C </c><c>   1</c></rc>
    <rc><c>C </c><c>   1</c></rc>
    <rc><c>C </c><c>   1</c></rc>
    <rc><c>C </c><c>   1</c></rc>
    <rc><c>N </c><c>   2</c></rc>
    <rc><c>N </c><c>   2</c></rc>
    <rc><c>N </c><c>   2</c></rc>
    <rc><c>N </c><c>   2</c></rc>
    <rc><c>N </c><c>   2</c></rc>
    <rc><c>N </c><c>   2</c></rc>
    <rc><c>N </c><c>   2</c></rc>
    <rc><c>N </c><c>   2</c></rc>
    <rc><c>N </c><c>   2</c></rc>
    <rc><c>N </c><c>   2</c></rc>
    <rc><c>N </c><c>   2</c></rc>
    <rc><c>N </c><c>   2</c></rc>
    <rc><c>N </c><c>   2</c></rc>
    <rc><c>N </c><c>   2</c></rc>
    <rc><c>N </c><c>   2</c></rc>
    <rc><c>N </c><c>   2</c></rc>
    <rc><c>N </c><c>   2</c></rc>
    <rc><c>N </c><c>   2</c></rc>
    <rc><c>N </c><c>   2</c></rc>
    <rc><c>N </c><c>   2</c></rc>
    <rc><c>N </c><c>   2</c></rc>
    <rc><c>N </c><c>   2</c></rc>
    <rc><c>N </c><c>   2</c></rc>
    <rc><c>N </c><c>   2</c></rc>
    <rc><c>N </c><c>   2</c></rc>
    <rc><c>N </c><c>   2</c></rc>
    <rc><c>N </c><c>   2</c></rc>
    <rc><c>N </c><c>   2</c></rc>
    <rc><c>N </c><c>   2</c></rc>
    <rc><c>N </c><c>   2</c></rc>
    <rc><c>N </c><c>   2</c></rc>
    <rc><c>N </c><c>   2</c></rc>
    <rc><c>Cu</c><c>   3</c></rc>
    <rc><c>Pd</c><c>   4</c></rc>
    <rc><c>Pd</c><c>   4</c></rc>
   </set>
  </array>
  <array name="atomtypes" >
   <dimension dim="1">type</dimension>
   <field type="int">atomspertype</field>
   <field type="string">element</field>
   <field>mass</field>
   <field>valence</field>
   <field type="string">pseudopotential</field>
   <set>
    <rc><c>  24</c><c>C </c><c>     12.01100000</c><c>      4.00000000</c><c>  PAW_PBE C 08Apr2002                   </c></rc>
    <rc><c>  32</c><c>N </c><c>     14.00100000</c><c>      5.00000000</c><c>  PAW_PBE N 08Apr2002                   </c></rc>
    <rc><c>   1</c><c>Cu</c><c>     63.54600000</c><c>     11.00000000</c><c>  PAW_PBE Cu 22Jun2005                  </c></rc>
    <rc><c>   2</c><c>Pd</c><c>    106.42000000</c><c>     10.00000000</c><c>  PAW_PBE Pd 04Jan2005                  </c></rc>
   </set>
  </array>
 </atominfo>
 <structure name="initialpos" >
  <crystal>
   <varray name="basis" >
    <v>      13.75970367       0.00000000       0.00000000 </v>
    <v>       0.00000000      11.28669971       0.00000000 </v>
    <v>       0.00000000       0.00000000      15.00000000 </v>
   </varray>
   <i name="volume">   2329.52465126 </i>
   <varray name="rec_basis" >
    <v>       0.07267598       0.00000000       0.00000000 </v>
    <v>       0.00000000       0.08859986       0.00000000 </v>
    <v>       0.00000000       0.00000000       0.06666667 </v>
   </varray>
  </crystal>
  <varray name="positions" >
   <v>       0.07054120       0.38816457       0.22227495 </v>
   <v>       0.98151180       0.21832942       0.16785344 </v>
   <v>       0.22877304       0.39667288       0.18904348 </v>
   <v>       0.82472337       0.57572318       0.18403191 </v>
   <v>       0.14970601       0.24663792       0.12277753 </v>
   <v>       0.90758628       0.38434512       0.21811946 </v>
   <v>       0.56886571       0.39316130       0.23173729 </v>
   <v>       0.47768100       0.22391730       0.18017943 </v>
   <v>       0.73035049       0.39802658       0.19909345 </v>
   <v>       0.31101118       0.58132963       0.17977696 </v>
   <v>       0.64681854       0.25040749       0.13377315 </v>
   <v>       0.40275100       0.39355427       0.22106508 </v>
   <v>       0.81808056       0.88988957       0.05647519 </v>
   <v>       0.73319531       0.72568325       0.12448457 </v>
   <v>       0.97932824       0.89597624       0.07999408 </v>
   <v>       0.06867909       0.07698375       0.09423854 </v>
   <v>       0.90528082       0.74258583       0.14719628 </v>
   <v>       0.65472406       0.89333727       0.07691603 </v>
   <v>       0.31825350       0.89473226       0.05377466 </v>
   <v>       0.22716619       0.72126926       0.10084126 </v>
   <v>       0.47498917       0.90396535       0.09489577 </v>
   <v>       0.56592959       0.08075138       0.11024766 </v>
   <v>       0.38612516       0.76037560       0.16363174 </v>
   <v>       0.15509033       0.88950396       0.05271529 </v>
   <v>       0.98784551       0.43883046       0.24713656 </v>
   <v>       0.89991795       0.26975381       0.19549767 </v>
   <v>       0.15759857       0.43325808       0.24240148 </v>
   <v>       0.14788829       0.14353661       0.08017307 </v>
   <v>       0.98633649       0.10796021       0.13653167 </v>
   <v>       0.22915942       0.31533454       0.12527490 </v>
   <v>       0.06735802       0.28598388       0.16888911 </v>
   <v>       0.82274912       0.45552252       0.21014877 </v>
   <v>       0.48493735       0.44793349       0.25146232 </v>
   <v>       0.39648714       0.27665554       0.20625030 </v>
   <v>       0.65756919       0.43524210       0.25419888 </v>
   <v>       0.64488604       0.14640144       0.09374788 </v>
   <v>       0.48286722       0.11321356       0.15081376 </v>
   <v>       0.72606390       0.31870920       0.13454719 </v>
   <v>       0.56470606       0.29135323       0.18008364 </v>
   <v>       0.31888640       0.46086995       0.20329135 </v>
   <v>       0.73287748       0.94248397       0.03965616 </v>
   <v>       0.64891188       0.78317499       0.11254597 </v>
   <v>       0.90382696       0.93469024       0.03189926 </v>
   <v>       0.90701680       0.63807548       0.18754912 </v>
   <v>       0.73647441       0.61699787       0.15934394 </v>
   <v>       0.98321706       0.81212363       0.14197152 </v>
   <v>       0.81925020       0.78400528       0.10639513 </v>
   <v>       0.56804185       0.96074410       0.08520074 </v>
   <v>       0.23699719       0.94478449       0.02657725 </v>
   <v>       0.14820250       0.77173059       0.06843984 </v>
   <v>       0.40793432       0.93556381       0.03646331 </v>
   <v>       0.38047481       0.65838217       0.20939239 </v>
   <v>       0.23501053       0.60894863       0.12850628 </v>
   <v>       0.46527775       0.83024755       0.16578047 </v>
   <v>       0.31113112       0.79334051       0.10891910 </v>
   <v>       0.06990262       0.95754122       0.06514651 </v>
   <v>       0.57736557       0.77647674       0.24193941 </v>
   <v>       0.65582252       0.60772566       0.29790490 </v>
   <v>       0.48700699       0.61617049       0.29396059 </v>
  </varray>
 </structure>
 <calculation>
  <scstep>
   <time name="dav">    1.67    1.68</time>
   <time name="total">    1.71    1.72</time>
   <dipole>
    <v name="dipole">      0.00000000       0.00000000       0.00003051 </v>
    <i name="Tr[quadrupol]">  -8054.43856146 </i>
    <i name="Echarged">      0.00000000 </i>
    <i name="Edipol_quadrupol">      0.00000000 </i>
    <i name="Eion">      0.00000000 </i>
   </dipole>
   <energy>
    <i name="alphaZ">    169.93016372 </i>
    <i name="ewald">  28662.12842187 </i>
    <i name="hartreedc"> -41087.89794304 </i>
    <i name="XCdc">    942.47997057 </i>
    <i name="pawpsdc">  12004.05981366 </i>
    <i name="pawaedc"> -12037.23427115 </i>
    <i name="eentropy">     -0.10547092 </i>
    <i name="bandstr">  -1010.58937138 </i>
    <i name="atom">  15004.69887552 </i>
    <i name="e_fr_energy">   2647.47018886 </i>
    <i name="e_wo_entrp">   2647.57565978 </i>
    <i name="e_0_energy">   2647.52292432 </i>
   </energy>
  </scstep>
  <scstep>
   <time name="dav">    1.93    1.94</time>
   <time name="total">    1.93    1.94</time>
   <dipole>
    <v name="dipole">      0.00000000       0.00000000       0.00003051 </v>
    <i name="Tr[quadrupol]">  -8054.43856146 </i>
    <i name="Echarged">      0.00000000 </i>
    <i name="Edipol_quadrupol">      0.00000000 </i>
    <i name="Eion">      0.00000000 </i>
   </dipole>
   <energy>
    <i name="e_fr_energy">      4.57504090 </i>
    <i name="e_wo_entrp">      4.59752180 </i>
    <i name="e_0_energy">      4.58628135 </i>
   </energy>
  </scstep>
  <scstep>
   <time name="dav">    1.69    1.69</time>
   <time name="total">    1.69    1.69</time>
   <dipole>
    <v name="dipole">      0.00000000       0.00000000       0.00003051 </v>
    <i name="Tr[quadrupol]">  -8054.43856146 </i>
    <i name="Echarged">      0.00000000 </i>
    <i name="Edipol_quadrupol">      0.00000000 </i>
    <i name="Eion">      0.00000000 </i>
   </dipole>
   <energy>
    <i name="e_fr_energy">   -490.28360319 </i>
    <i name="e_wo_entrp">   -490.12120792 </i>
    <i name="e_0_energy">   -490.20240555 </i>
   </energy>
  </scstep>
  <scstep>
   <time name="dav">    2.06    2.07</time>
   <time name="total">    2.06    2.07</time>
   <dipole>
    <v name="dipole">      0.00000000       0.00000000       0.00003051 </v>
    <i name="Tr[quadrupol]">  -8054.43856146 </i>
    <i name="Echarged">      0.00000000 </i>
    <i name="Edipol_quadrupol">      0.00000000 </i>
    <i name="Eion">      0.00000000 </i>
   </dipole>
   <energy>
    <i name="e_fr_energy">   -519.01635080 </i>
    <i name="e_wo_entrp">   -518.90580534 </i>
    <i name="e_0_energy">   -518.96107807 </i>
   </energy>
  </scstep>
  <scstep>
   <time name="dav">    1.84    1.84</time>
   <time name="total">    1.88    1.89</time>
   <dipole>
    <v name="dipole">      0.00000000       0.00000000       0.00003051 </v>
    <i name="Tr[quadrupol]">  -8054.43856146 </i>
    <i name="Echarged">      0.00000000 </i>
    <i name="Edipol_quadrupol">      0.00000000 </i>
    <i name="Eion">      0.00000000 </i>
   </dipole>
   <energy>
    <i name="e_fr_energy">   -519.68380354 </i>
    <i name="e_wo_entrp">   -519.57288232 </i>
    <i name="e_0_energy">   -519.62834293 </i>
   </energy>
  </scstep>
  <scstep>
   <time name="dav">    1.81    1.81</time>
   <time name="total">    1.89    1.89</time>
   <dipole>
    <v name="dipole">      0.00000000       0.00000000      -0.97056071 </v>
    <i name="Tr[quadrupol]">  -8055.97083092 </i>
    <i name="Echarged">      0.00000000 </i>
    <i name="Edipol_quadrupol">      0.00000000 </i>
    <i name="Eion">      0.00000000 </i>
   </dipole>
   <energy>
    <i name="e_fr_energy">   -586.02536222 </i>
    <i name="e_wo_entrp">   -585.95075388 </i>
    <i name="e_0_energy">   -585.98805805 </i>
   </energy>
  </scstep>
  <scstep>
   <time name="dav">    1.72    1.72</time>
   <time name="total">    1.80    1.80</time>
   <dipole>
    <v name="dipole">      0.00000000       0.00000000      -0.42721079 </v>
    <i name="Tr[quadrupol]">  -8055.98568389 </i>
    <i name="Echarged">      0.00000000 </i>
    <i name="Edipol_quadrupol">      0.00000000 </i>
    <i name="Eion">      0.00000000 </i>
   </dipole>
   <energy>
    <i name="e_fr_energy">   -509.46125604 </i>
    <i name="e_wo_entrp">   -509.40489264 </i>
    <i name="e_0_energy">   -509.43307434 </i>
   </energy>
  </scstep>
  <scstep>
   <time name="dav">    1.90    1.90</time>
   <time name="total">    1.97    1.98</time>
   <dipole>
    <v name="dipole">      0.00000000       0.00000000      -0.29351559 </v>
    <i name="Tr[quadrupol]">  -8056.56143007 </i>
    <i name="Echarged">      0.00000000 </i>
    <i name="Edipol_quadrupol">      0.00000000 </i>
    <i name="Eion">      0.00000000 </i>
   </dipole>
   <energy>
    <i name="e_fr_energy">   -483.28753253 </i>
    <i name="e_wo_entrp">   -483.23289351 </i>
    <i name="e_0_energy">   -483.26021302 </i>
   </energy>
  </scstep>
  <scstep>
   <time name="dav">    2.05    2.06</time>
   <time name="total">    2.13    2.13</time>
   <dipole>
    <v name="dipole">      0.00000000       0.00000000      -0.00305787 </v>
    <i name="Tr[quadrupol]">  -8056.86961223 </i>
    <i name="Echarged">      0.00000000 </i>
    <i name="Edipol_quadrupol">      0.00000000 </i>
    <i name="Eion">      0.00000000 </i>
   </dipole>
   <energy>
    <i name="e_fr_energy">   -522.28916632 </i>
    <i name="e_wo_entrp">   -522.21940392 </i>
    <i name="e_0_energy">   -522.25428512 </i>
   </energy>
  </scstep>
  <scstep>
   <time name="dav">    1.97    1.97</time>
   <time name="total">    2.04    2.05</time>
   <dipole>
    <v name="dipole">      0.00000000       0.00000000      -0.08937059 </v>
    <i name="Tr[quadrupol]">  -8056.88184283 </i>
    <i name="Echarged">      0.00000000 </i>
    <i name="Edipol_quadrupol">      0.00000000 </i>
    <i name="Eion">      0.00000000 </i>
   </dipole>
   <energy>
    <i name="e_fr_energy">   -485.57732976 </i>
    <i name="e_wo_entrp">   -485.46161455 </i>
    <i name="e_0_energy">   -485.51947216 </i>
   </energy>
  </scstep>
  <scstep>
   <time name="dav">    1.92    1.92</time>
   <time name="total">    2.01    2.01</time>
   <dipole>
    <v name="dipole">      0.00000000       0.00000000      -0.11673898 </v>
    <i name="Tr[quadrupol]">  -8057.13988395 </i>
    <i name="Echarged">      0.00000000 </i>
    <i name="Edipol_quadrupol">      0.00000000 </i>
    <i name="Eion">      0.00000000 </i>
   </dipole>
   <energy>
    <i name="e_fr_energy">   -485.99909100 </i>
    <i name="e_wo_entrp">   -485.84547306 </i>
    <i name="e_0_energy">   -485.92228203 </i>
   </energy>
  </scstep>
  <scstep>
   <time name="dav">    2.00    2.00</time>
   <time name="total">    2.08    2.09</time>
   <dipole>
    <v name="dipole">      0.00000000       0.00000000      -0.11532185 </v>
    <i name="Tr[quadrupol]">  -8057.27820523 </i>
    <i name="Echarged">      0.00000000 </i>
    <i name="Edipol_quadrupol">      0.00000000 </i>
    <i name="Eion">      0.00000000 </i>
   </dipole>
   <energy>
    <i name="e_fr_energy">   -484.50296402 </i>
    <i name="e_wo_entrp">   -484.44864692 </i>
    <i name="e_0_energy">   -484.47580547 </i>
   </energy>
  </scstep>
  <scstep>
   <time name="dav">    1.99    1.99</time>
   <time name="total">    2.06    2.06</time>
   <dipole>
    <v name="dipole">      0.00000000       0.00000000      -0.07467756 </v>
    <i name="Tr[quadrupol]">  -8057.55086195 </i>
    <i name="Echarged">      0.00000000 </i>
    <i name="Edipol_quadrupol">      0.00000000 </i>
    <i name="Eion">      0.00000000 </i>
   </dipole>
   <energy>
    <i name="e_fr_energy">   -483.59663221 </i>
    <i name="e_wo_entrp">   -483.53003090 </i>
    <i name="e_0_energy">   -483.56333156 </i>
   </energy>
  </scstep>
  <scstep>
   <time name="dav">    1.93    1.94</time>
   <time name="total">    2.01    2.02</time>
   <dipole>
    <v name="dipole">      0.00000000       0.00000000      -0.07488059 </v>
    <i name="Tr[quadrupol]">  -8057.67607622 </i>
    <i name="Echarged">      0.00000000 </i>
    <i name="Edipol_quadrupol">      0.00000000 </i>
    <i name="Eion">      0.00000000 </i>
   </dipole>
   <energy>
    <i name="e_fr_energy">   -483.69452294 </i>
    <i name="e_wo_entrp">   -483.63790803 </i>
    <i name="e_0_energy">   -483.66621549 </i>
   </energy>
  </scstep>
  <scstep>
   <time name="dav">    2.09    2.09</time>
   <time name="total">    2.17    2.17</time>
   <dipole>
    <v name="dipole">      0.00000000       0.00000000      -0.03988555 </v>
    <i name="Tr[quadrupol]">  -8057.83641417 </i>
    <i name="Echarged">      0.00000000 </i>
    <i name="Edipol_quadrupol">      0.00000000 </i>
    <i name="Eion">      0.00000000 </i>
   </dipole>
   <energy>
    <i name="e_fr_energy">   -483.24106330 </i>
    <i name="e_wo_entrp">   -483.17139584 </i>
    <i name="e_0_energy">   -483.20622957 </i>
   </energy>
  </scstep>
  <scstep>
   <time name="dav">    1.77    1.77</time>
   <time name="total">    1.85    1.86</time>
   <dipole>
    <v name="dipole">      0.00000000       0.00000000      -0.03212753 </v>
    <i name="Tr[quadrupol]">  -8058.07751718 </i>
    <i name="Echarged">      0.00000000 </i>
    <i name="Edipol_quadrupol">      0.00000000 </i>
    <i name="Eion">      0.00000000 </i>
   </dipole>
   <energy>
    <i name="e_fr_energy">   -483.22915269 </i>
    <i name="e_wo_entrp">   -483.16580849 </i>
    <i name="e_0_energy">   -483.19748059 </i>
   </energy>
  </scstep>
  <scstep>
   <time name="dav">    2.05    2.06</time>
   <time name="total">    2.13    2.13</time>
   <dipole>
    <v name="dipole">      0.00000000       0.00000000       0.00298025 </v>
    <i name="Tr[quadrupol]">  -8058.43322340 </i>
    <i name="Echarged">      0.00000000 </i>
    <i name="Edipol_quadrupol">      0.00000000 </i>
    <i name="Eion">      0.00000000 </i>
   </dipole>
   <energy>
    <i name="e_fr_energy">   -483.07141459 </i>
    <i name="e_wo_entrp">   -483.00434924 </i>
    <i name="e_0_energy">   -483.03788191 </i>
   </energy>
  </scstep>
  <scstep>
   <time name="dav">    1.98    1.98</time>
   <time name="total">    2.05    2.05</time>
   <dipole>
    <v name="dipole">      0.00000000       0.00000000       0.01282245 </v>
    <i name="Tr[quadrupol]">  -8058.58158422 </i>
    <i name="Echarged">      0.00000000 </i>
    <i name="Edipol_quadrupol">      0.00000000 </i>
    <i name="Eion">      0.00000000 </i>
   </dipole>
   <energy>
    <i name="e_fr_energy">   -483.05368485 </i>
    <i name="e_wo_entrp">   -482.98731162 </i>
    <i name="e_0_energy">   -483.02049823 </i>
   </energy>
  </scstep>
  <scstep>
   <time name="dav">    1.91    1.92</time>
   <time name="total">    1.99    2.00</time>
   <dipole>
    <v name="dipole">      0.00000000       0.00000000       0.02907511 </v>
    <i name="Tr[quadrupol]">  -8058.81984681 </i>
    <i name="Echarged">      0.00000000 </i>
    <i name="Edipol_quadrupol">      0.00000000 </i>
    <i name="Eion">      0.00000000 </i>
   </dipole>
   <energy>
    <i name="e_fr_energy">   -483.04642056 </i>
    <i name="e_wo_entrp">   -482.97996397 </i>
    <i name="e_0_energy">   -483.01319227 </i>
   </energy>
  </scstep>
  <scstep>
   <time name="dav">    2.00    2.00</time>
   <time name="total">    2.08    2.08</time>
   <dipole>
    <v name="dipole">      0.00000000       0.00000000       0.05250139 </v>
    <i name="Tr[quadrupol]">  -8059.16347541 </i>
    <i name="Echarged">      0.00000000 </i>
    <i name="Edipol_quadrupol">      0.00000000 </i>
    <i name="Eion">      0.00000000 </i>
   </dipole>
   <energy>
    <i name="e_fr_energy">   -483.02197803 </i>
    <i name="e_wo_entrp">   -482.95541401 </i>
    <i name="e_0_energy">   -482.98869602 </i>
   </energy>
  </scstep>
  <scstep>
   <time name="dav">    2.02    2.02</time>
   <time name="total">    2.10    2.10</time>
   <dipole>
    <v name="dipole">      0.00000000       0.00000000       0.05431045 </v>
    <i name="Tr[quadrupol]">  -8059.20475111 </i>
    <i name="Echarged">      0.00000000 </i>
    <i name="Edipol_quadrupol">      0.00000000 </i>
    <i name="Eion">      0.00000000 </i>
   </dipole>
   <energy>
    <i name="e_fr_energy">   -483.02852895 </i>
    <i name="e_wo_entrp">   -482.96201700 </i>
    <i name="e_0_energy">   -482.99527298 </i>
   </energy>
  </scstep>
  <scstep>
   <time name="dav">    2.01    2.01</time>
   <time name="total">    2.09    2.09</time>
   <dipole>
    <v name="dipole">      0.00000000       0.00000000       0.06049998 </v>
    <i name="Tr[quadrupol]">  -8059.30486720 </i>
    <i name="Echarged">      0.00000000 </i>
    <i name="Edipol_quadrupol">      0.00000000 </i>
    <i name="Eion">      0.00000000 </i>
   </dipole>
   <energy>
    <i name="e_fr_energy">   -483.02041303 </i>
    <i name="e_wo_entrp">   -482.95370352 </i>
    <i name="e_0_energy">   -482.98705827 </i>
   </energy>
  </scstep>
  <scstep>
   <time name="dav">    1.99    1.99</time>
   <time name="total">    2.07    2.07</time>
   <dipole>
    <v name="dipole">      0.00000000       0.00000000       0.07629670 </v>
    <i name="Tr[quadrupol]">  -8059.62953030 </i>
    <i name="Echarged">      0.00000000 </i>
    <i name="Edipol_quadrupol">      0.00000000 </i>
    <i name="Eion">      0.00000000 </i>
   </dipole>
   <energy>
    <i name="e_fr_energy">   -483.01361476 </i>
    <i name="e_wo_entrp">   -482.94664170 </i>
    <i name="e_0_energy">   -482.98012823 </i>
   </energy>
  </scstep>
  <scstep>
   <time name="dav">    1.98    1.98</time>
   <time name="total">    2.06    2.06</time>
   <dipole>
    <v name="dipole">      0.00000000       0.00000000       0.08040893 </v>
    <i name="Tr[quadrupol]">  -8059.70643430 </i>
    <i name="Echarged">      0.00000000 </i>
    <i name="Edipol_quadrupol">      0.00000000 </i>
    <i name="Eion">      0.00000000 </i>
   </dipole>
   <energy>
    <i name="e_fr_energy">   -483.01284513 </i>
    <i name="e_wo_entrp">   -482.94567709 </i>
    <i name="e_0_energy">   -482.97926111 </i>
   </energy>
  </scstep>
  <scstep>
   <time name="dav">    1.79    1.79</time>
   <time name="total">    1.86    1.86</time>
   <dipole>
    <v name="dipole">      0.00000000       0.00000000       0.09852385 </v>
    <i name="Tr[quadrupol]">  -8059.90106305 </i>
    <i name="Echarged">      0.00000000 </i>
    <i name="Edipol_quadrupol">      0.00000000 </i>
    <i name="Eion">      0.00000000 </i>
   </dipole>
   <energy>
    <i name="e_fr_energy">   -483.01122521 </i>
    <i name="e_wo_entrp">   -482.94369862 </i>
    <i name="e_0_energy">   -482.97746192 </i>
   </energy>
  </scstep>
  <scstep>
   <time name="dav">    1.88    1.88</time>
   <time name="total">    1.96    1.96</time>
   <dipole>
    <v name="dipole">      0.00000000       0.00000000       0.10233788 </v>
    <i name="Tr[quadrupol]">  -8060.00988452 </i>
    <i name="Echarged">      0.00000000 </i>
    <i name="Edipol_quadrupol">      0.00000000 </i>
    <i name="Eion">      0.00000000 </i>
   </dipole>
   <energy>
    <i name="e_fr_energy">   -483.01071445 </i>
    <i name="e_wo_entrp">   -482.94325302 </i>
    <i name="e_0_energy">   -482.97698373 </i>
   </energy>
  </scstep>
  <scstep>
   <time name="dav">    1.81    1.81</time>
   <time name="total">    1.89    1.89</time>
   <dipole>
    <v name="dipole">      0.00000000       0.00000000       0.09895584 </v>
    <i name="Tr[quadrupol]">  -8060.07968717 </i>
    <i name="Echarged">      0.00000000 </i>
    <i name="Edipol_quadrupol">      0.00000000 </i>
    <i name="Eion">      0.00000000 </i>
   </dipole>
   <energy>
    <i name="e_fr_energy">   -483.01021224 </i>
    <i name="e_wo_entrp">   -482.94278221 </i>
    <i name="e_0_energy">   -482.97649723 </i>
   </energy>
  </scstep>
  <scstep>
   <time name="dav">    1.61    1.61</time>
   <time name="total">    1.69    1.69</time>
   <dipole>
    <v name="dipole">      0.00000000       0.00000000       0.09566295 </v>
    <i name="Tr[quadrupol]">  -8060.10591136 </i>
    <i name="Echarged">      0.00000000 </i>
    <i name="Edipol_quadrupol">      0.00000000 </i>
    <i name="Eion">      0.00000000 </i>
   </dipole>
   <energy>
    <i name="e_fr_energy">   -483.01008536 </i>
    <i name="e_wo_entrp">   -482.94260831 </i>
    <i name="e_0_energy">   -482.97634683 </i>
   </energy>
  </scstep>
  <scstep>
   <time name="dav">    1.30    1.31</time>
   <time name="total">    1.38    1.39</time>
   <dipole>
    <v name="dipole">      0.00000000       0.00000000       0.09346949 </v>
    <i name="Tr[quadrupol]">  -8060.09888885 </i>
    <i name="Echarged">      0.00000000 </i>
    <i name="Edipol_quadrupol">      0.00000000 </i>
    <i name="Eion">      0.00000000 </i>
   </dipole>
   <energy>
    <i name="e_fr_energy">   -483.00999568 </i>
    <i name="e_wo_entrp">   -482.94246909 </i>
    <i name="e_0_energy">   -482.97623238 </i>
   </energy>
  </scstep>
  <scstep>
   <time name="dav">    1.54    1.54</time>
   <time name="total">    1.62    1.62</time>
   <dipole>
    <v name="dipole">      0.00000000       0.00000000       0.08779429 </v>
    <i name="Tr[quadrupol]">  -8060.09646328 </i>
    <i name="Echarged">      0.00000000 </i>
    <i name="Edipol_quadrupol">      0.00000000 </i>
    <i name="Eion">      0.00000000 </i>
   </dipole>
   <energy>
    <i name="e_fr_energy">   -483.00971302 </i>
    <i name="e_wo_entrp">   -482.94208724 </i>
    <i name="e_0_energy">   -482.97590013 </i>
   </energy>
  </scstep>
  <scstep>
   <time name="dav">    1.61    1.61</time>
   <time name="total">    1.69    1.69</time>
   <dipole>
    <v name="dipole">      0.00000000       0.00000000       0.08594735 </v>
    <i name="Tr[quadrupol]">  -8060.09111101 </i>
    <i name="Echarged">      0.00000000 </i>
    <i name="Edipol_quadrupol">      0.00000000 </i>
    <i name="Eion">      0.00000000 </i>
   </dipole>
   <energy>
    <i name="e_fr_energy">   -483.00966133 </i>
    <i name="e_wo_entrp">   -482.94200462 </i>
    <i name="e_0_energy">   -482.97583297 </i>
   </energy>
  </scstep>
  <scstep>
   <time name="dav">    1.29    1.29</time>
   <time name="total">    1.37    1.37</time>
   <dipole>
    <v name="dipole">      0.00000000       0.00000000       0.08503820 </v>
    <i name="Tr[quadrupol]">  -8060.08070194 </i>
    <i name="Echarged">      0.00000000 </i>
    <i name="Edipol_quadrupol">      0.00000000 </i>
    <i name="Eion">      0.00000000 </i>
   </dipole>
   <energy>
    <i name="e_fr_energy">   -483.00962788 </i>
    <i name="e_wo_entrp">   -482.94198304 </i>
    <i name="e_0_energy">   -482.97580546 </i>
   </energy>
  </scstep>
  <scstep>
   <time name="dav">    1.41    1.41</time>
   <time name="total">    1.49    1.49</time>
   <dipole>
    <v name="dipole">      0.00000000       0.00000000       0.08397173 </v>
    <i name="Tr[quadrupol]">  -8060.08754112 </i>
    <i name="Echarged">      0.00000000 </i>
    <i name="Edipol_quadrupol">      0.00000000 </i>
    <i name="Eion">      0.00000000 </i>
   </dipole>
   <energy>
    <i name="e_fr_energy">   -483.00958769 </i>
    <i name="e_wo_entrp">   -482.94189431 </i>
    <i name="e_0_energy">   -482.97574100 </i>
   </energy>
  </scstep>
  <scstep>
   <time name="dav">    1.34    1.34</time>
   <time name="total">    1.42    1.42</time>
   <dipole>
    <v name="dipole">      0.00000000       0.00000000       0.08352662 </v>
    <i name="Tr[quadrupol]">  -8060.07714549 </i>
    <i name="Echarged">      0.00000000 </i>
    <i name="Edipol_quadrupol">      0.00000000 </i>
    <i name="Eion">      0.00000000 </i>
   </dipole>
   <energy>
    <i name="e_fr_energy">   -483.00956022 </i>
    <i name="e_wo_entrp">   -482.94185402 </i>
    <i name="e_0_energy">   -482.97570712 </i>
   </energy>
  </scstep>
  <scstep>
   <time name="dav">    1.23    1.23</time>
   <time name="total">    1.26    1.26</time>
   <dipole>
    <v name="dipole">      0.00000000       0.00000000       0.08353096 </v>
    <i name="Tr[quadrupol]">  -8060.07845540 </i>
    <i name="Echarged">      0.00000000 </i>
    <i name="Edipol_quadrupol">      0.00000000 </i>
    <i name="Eion">      0.00000000 </i>
   </dipole>
   <energy>
    <i name="alphaZ">    170.27946062 </i>
    <i name="ewald">  28662.12842187 </i>
    <i name="hartreedc"> -41724.72340879 </i>
    <i name="XCdc">    973.04540864 </i>
    <i name="pawpsdc">  30769.18349662 </i>
    <i name="pawaedc"> -30821.25903386 </i>
    <i name="eentropy">     -0.06771824 </i>
    <i name="bandstr">  -3516.29505708 </i>
    <i name="atom">  15004.69887552 </i>
    <i name="e_fr_energy">   -483.00955468 </i>
    <i name="e_wo_entrp">   -482.94183645 </i>
    <i name="e_0_energy">   -482.97569556 </i>
   </energy>
  </scstep>
  <structure>
   <crystal>
    <varray name="basis" >
     <v>      13.75970367       0.00000000       0.00000000 </v>
     <v>       0.00000000      11.28669971       0.00000000 </v>
     <v>       0.00000000       0.00000000      15.00000000 </v>
    </varray>
    <i name="volume">   2329.52465126 </i>
    <varray name="rec_basis" >
     <v>       0.07267598       0.00000000       0.00000000 </v>
     <v>       0.00000000       0.08859986       0.00000000 </v>
     <v>       0.00000000       0.00000000       0.06666667 </v>
    </varray>
   </crystal>
   <varray name="positions" >
    <v>       0.07054120       0.38816457       0.22227495 </v>
    <v>       0.98151180       0.21832942       0.16785344 </v>
    <v>       0.22877304       0.39667288       0.18904348 </v>
    <v>       0.82472337       0.57572318       0.18403191 </v>
    <v>       0.14970601       0.24663792       0.12277753 </v>
    <v>       0.90758628       0.38434512       0.21811946 </v>
    <v>       0.56886571       0.39316130       0.23173729 </v>
    <v>       0.47768100       0.22391730       0.18017943 </v>
    <v>       0.73035049       0.39802658       0.19909345 </v>
    <v>       0.31101118       0.58132963       0.17977696 </v>
    <v>       0.64681854       0.25040749       0.13377315 </v>
    <v>       0.40275100       0.39355427       0.22106508 </v>
    <v>       0.81808056       0.88988957       0.05647519 </v>
    <v>       0.73319531       0.72568325       0.12448457 </v>
    <v>       0.97932824       0.89597624       0.07999408 </v>
    <v>       0.06867909       0.07698375       0.09423854 </v>
    <v>       0.90528082       0.74258583       0.14719628 </v>
    <v>       0.65472406       0.89333727       0.07691603 </v>
    <v>       0.31825350       0.89473226       0.05377466 </v>
    <v>       0.22716619       0.72126926       0.10084126 </v>
    <v>       0.47498917       0.90396535       0.09489577 </v>
    <v>       0.56592959       0.08075138       0.11024766 </v>
    <v>       0.38612516       0.76037560       0.16363174 </v>
    <v>       0.15509033       0.88950396       0.05271529 </v>
    <v>       0.98784551       0.43883046       0.24713656 </v>
    <v>       0.89991795       0.26975381       0.19549767 </v>
    <v>       0.15759857       0.43325808       0.24240148 </v>
    <v>       0.14788829       0.14353661       0.08017307 </v>
    <v>       0.98633649       0.10796021       0.13653167 </v>
    <v>       0.22915942       0.31533454       0.12527490 </v>
    <v>       0.06735802       0.28598388       0.16888911 </v>
    <v>       0.82274912       0.45552252       0.21014877 </v>
    <v>       0.48493735       0.44793349       0.25146232 </v>
    <v>       0.39648714       0.27665554       0.20625030 </v>
    <v>       0.65756919       0.43524210       0.25419888 </v>
    <v>       0.64488604       0.14640144       0.09374788 </v>
    <v>       0.48286722       0.11321356       0.15081376 </v>
    <v>       0.72606390       0.31870920       0.13454719 </v>
    <v>       0.56470606       0.29135323       0.18008364 </v>
    <v>       0.31888640       0.46086995       0.20329135 </v>
    <v>       0.73287748       0.94248397       0.03965616 </v>
    <v>       0.64891188       0.78317499       0.11254597 </v>
    <v>       0.90382696       0.93469024       0.03189926 </v>
    <v>       0.90701680       0.63807548       0.18754912 </v>
    <v>       0.73647441       0.61699787       0.15934394 </v>
    <v>       0.98321706       0.81212363       0.14197152 </v>
    <v>       0.81925020       0.78400528       0.10639513 </v>
    <v>       0.56804185       0.96074410       0.08520074 </v>
    <v>       0.23699719       0.94478449       0.02657725 </v>
    <v>       0.14820250       0.77173059       0.06843984 </v>
    <v>       0.40793432       0.93556381       0.03646331 </v>
    <v>       0.38047481       0.65838217       0.20939239 </v>
    <v>       0.23501053       0.60894863       0.12850628 </v>
    <v>       0.46527775       0.83024755       0.16578047 </v>
    <v>       0.31113112       0.79334051       0.10891910 </v>
    <v>       0.06990262       0.95754122       0.06514651 </v>
    <v>       0.57736557       0.77647674       0.24193941 </v>
    <v>       0.65582252       0.60772566       0.29790490 </v>
    <v>       0.48700699       0.61617049       0.29396059 </v>
   </varray>
  </structure>
  <varray name="forces" >
   <v>      -0.06082950      -0.05242661      -0.05406116 </v>
   <v>       0.03025478       0.14396510       0.04529323 </v>
   <v>      -0.05548633       0.01979171      -0.04338110 </v>
   <v>       0.44852037       0.05692716       0.26108710 </v>
   <v>      -0.04970535       0.08086497       0.07525277 </v>
   <v>      -0.11068259       0.10576993      -0.04679051 </v>
   <v>      -0.01257952      -0.28694624      -0.16400472 </v>
   <v>       0.13209102       0.08409098      -0.02011799 </v>
   <v>       0.30702249       0.10303217      -0.07141257 </v>
   <v>      -0.23887372      -0.06690571      -0.07079140 </v>
   <v>       0.09189811       0.31964576       0.02886250 </v>
   <v>      -0.08866422       0.02160581       0.01620880 </v>
   <v>       0.22328389       0.05890564      -0.02679014 </v>
   <v>       0.36457039       0.22179311      -0.12827715 </v>
   <v>       0.08310551      -0.05316286       0.08581826 </v>
   <v>      -0.02426461       0.08190421       0.00231392 </v>
   <v>       0.11830745       0.05966709       0.05622509 </v>
   <v>       0.09680053       0.11687063      -0.06156188 </v>
   <v>      -0.09389868      -0.03860127       0.06810325 </v>
   <v>       0.09284929       0.15306877      -0.02192593 </v>
   <v>       0.11591390       0.09503417       0.07128058 </v>
   <v>       0.22031761       0.28831751      -0.12654389 </v>
   <v>      -0.03052771       0.23276417      -0.25207038 </v>
   <v>      -0.14893846      -0.01355813       0.01782773 </v>
   <v>       0.04613622      -0.02834505      -0.01478268 </v>
   <v>       0.00240658      -0.03015701       0.02154393 </v>
   <v>       0.11204280      -0.00010156      -0.00805902 </v>
   <v>      -0.03687582      -0.05683978      -0.01505194 </v>
   <v>       0.10065658      -0.06534708      -0.06102726 </v>
   <v>       0.03682869      -0.01480066      -0.03734956 </v>
   <v>       0.02330591      -0.01235405       0.02851900 </v>
   <v>      -0.00073299      -0.24842181      -0.05535628 </v>
   <v>      -0.33195303      -0.86438775      -0.37271815 </v>
   <v>       0.03122595      -0.00422649       0.05907707 </v>
   <v>      -0.09145011      -0.43890402       0.03764635 </v>
   <v>      -0.21636867      -0.33467845      -0.02521360 </v>
   <v>      -0.03536017      -0.06297866       0.03361861 </v>
   <v>      -0.20141630      -0.21708352      -0.05027131 </v>
   <v>      -0.15158482      -0.06099941      -0.01886235 </v>
   <v>      -0.02102917      -0.03720706      -0.04321191 </v>
   <v>      -0.14077475       0.00552657       0.03083421 </v>
   <v>      -0.06988830       0.05303060       0.00007203 </v>
   <v>      -0.19610668      -0.00223527       0.01083439 </v>
   <v>      -0.14544837      -0.10257993       0.05434075 </v>
   <v>      -0.24601707      -0.07175520      -0.11482198 </v>
   <v>      -0.00514967      -0.03726928      -0.11368560 </v>
   <v>      -0.33761386      -0.22032589       0.12927362 </v>
   <v>      -0.04390601      -0.19774630      -0.05237331 </v>
   <v>       0.11137552      -0.01218749       0.04628051 </v>
   <v>      -0.05995382       0.07142088      -0.06768983 </v>
   <v>       0.11369076      -0.04436303       0.01637293 </v>
   <v>      -1.01776351       0.01339938      -0.42278947 </v>
   <v>       0.12336202      -0.01406418       0.07742709 </v>
   <v>      -0.07350158       0.02952399      -0.00091426 </v>
   <v>      -0.04139249      -0.08645077      -0.00122264 </v>
   <v>      -0.00433713      -0.09207867      -0.02200657 </v>
   <v>      -0.16544394       1.24470751      -0.50506987 </v>
   <v>       2.63819772       0.08355922       0.91371489 </v>
   <v>      -1.11564512       0.12430215       0.90237781 </v>
  </varray>
  <varray name="stress" >
   <v>      -0.05437790       4.33307968       1.38132877 </v>
   <v>       4.33307968      -3.03727394      -0.06031712 </v>
   <v>       1.38132876      -0.06031711     -11.67348648 </v>
  </varray>
  <energy>
   <i name="e_fr_energy">   -483.00955468 </i>
   <i name="e_wo_entrp">   -482.94183645 </i>
   <i name="e_0_energy">   -482.97569556 </i>
  </energy>
  <time name="totalsc">   66.72   66.85</time>
 </calculation>
 <calculation>
  <scstep>
   <time name="dav">    1.47    1.47</time>
   <time name="total">    1.54    1.55</time>
   <dipole>
    <v name="dipole">      0.00000000       0.00000000       0.08352721 </v>
    <i name="Tr[quadrupol]">  -8049.59825790 </i>
    <i name="Echarged">      0.00000000 </i>
    <i name="Edipol_quadrupol">      0.00000000 </i>
    <i name="Eion">      0.00000000 </i>
   </dipole>
   <energy>
    <i name="alphaZ">    170.40427627 </i>
    <i name="ewald">  28658.70862778 </i>
    <i name="hartreedc"> -41722.92866882 </i>
    <i name="XCdc">    973.24692915 </i>
    <i name="pawpsdc">  30769.20285246 </i>
    <i name="pawaedc"> -30821.27371334 </i>
    <i name="eentropy">     -0.06937271 </i>
    <i name="bandstr">  -3515.12478208 </i>
    <i name="atom">  15004.69887552 </i>
    <i name="e_fr_energy">   -483.13497575 </i>
    <i name="e_wo_entrp">   -483.06560305 </i>
    <i name="e_0_energy">   -483.10028940 </i>
   </energy>
  </scstep>
  <scstep>
   <time name="dav">    1.88    1.88</time>
   <time name="total">    1.95    1.95</time>
   <dipole>
    <v name="dipole">      0.00000000       0.00000000       0.09015092 </v>
    <i name="Tr[quadrupol]">  -8049.60577399 </i>
    <i name="Echarged">      0.00000000 </i>
    <i name="Edipol_quadrupol">      0.00000000 </i>
    <i name="Eion">      0.00000000 </i>
   </dipole>
   <energy>
    <i name="e_fr_energy">   -483.15376278 </i>
    <i name="e_wo_entrp">   -483.08191168 </i>
    <i name="e_0_energy">   -483.11783723 </i>
   </energy>
  </scstep>
  <scstep>
   <time name="dav">    1.94    1.94</time>
   <time name="total">    2.02    2.02</time>
   <dipole>
    <v name="dipole">      0.00000000       0.00000000       0.08031653 </v>
    <i name="Tr[quadrupol]">  -8049.62940649 </i>
    <i name="Echarged">      0.00000000 </i>
    <i name="Edipol_quadrupol">      0.00000000 </i>
    <i name="Eion">      0.00000000 </i>
   </dipole>
   <energy>
    <i name="e_fr_energy">   -483.14726155 </i>
    <i name="e_wo_entrp">   -483.07775683 </i>
    <i name="e_0_energy">   -483.11250919 </i>
   </energy>
  </scstep>
  <scstep>
   <time name="dav">    1.88    1.88</time>
   <time name="total">    1.95    1.96</time>
   <dipole>
    <v name="dipole">      0.00000000       0.00000000       0.08424691 </v>
    <i name="Tr[quadrupol]">  -8049.63091229 </i>
    <i name="Echarged">      0.00000000 </i>
    <i name="Edipol_quadrupol">      0.00000000 </i>
    <i name="Eion">      0.00000000 </i>
   </dipole>
   <energy>
    <i name="e_fr_energy">   -483.14794005 </i>
    <i name="e_wo_entrp">   -483.07692333 </i>
    <i name="e_0_energy">   -483.11243169 </i>
   </energy>
  </scstep>
  <scstep>
   <time name="dav">    1.86    1.86</time>
   <time name="total">    1.93    1.94</time>
   <dipole>
    <v name="dipole">      0.00000000       0.00000000       0.07952406 </v>
    <i name="Tr[quadrupol]">  -8049.65533886 </i>
    <i name="Echarged">      0.00000000 </i>
    <i name="Edipol_quadrupol">      0.00000000 </i>
    <i name="Eion">      0.00000000 </i>
   </dipole>
   <energy>
    <i name="e_fr_energy">   -483.14701689 </i>
    <i name="e_wo_entrp">   -483.07649371 </i>
    <i name="e_0_energy">   -483.11175530 </i>
   </energy>
  </scstep>
  <scstep>
   <time name="dav">    1.81    1.81</time>
   <time name="total">    1.88    1.89</time>
   <dipole>
    <v name="dipole">      0.00000000       0.00000000       0.07843820 </v>
    <i name="Tr[quadrupol]">  -8049.65875233 </i>
    <i name="Echarged">      0.00000000 </i>
    <i name="Edipol_quadrupol">      0.00000000 </i>
    <i name="Eion">      0.00000000 </i>
   </dipole>
   <energy>
    <i name="e_fr_energy">   -483.14615377 </i>
    <i name="e_wo_entrp">   -483.07600306 </i>
    <i name="e_0_energy">   -483.11107842 </i>
   </energy>
  </scstep>
  <scstep>
   <time name="dav">    1.80    1.80</time>
   <time name="total">    1.88    1.88</time>
   <dipole>
    <v name="dipole">      0.00000000       0.00000000       0.07876787 </v>
    <i name="Tr[quadrupol]">  -8049.65918063 </i>
    <i name="Echarged">      0.00000000 </i>
    <i name="Edipol_quadrupol">      0.00000000 </i>
    <i name="Eion">      0.00000000 </i>
   </dipole>
   <energy>
    <i name="e_fr_energy">   -483.14615523 </i>
    <i name="e_wo_entrp">   -483.07588843 </i>
    <i name="e_0_energy">   -483.11102183 </i>
   </energy>
  </scstep>
  <scstep>
   <time name="dav">    1.61    1.61</time>
   <time name="total">    1.68    1.68</time>
   <dipole>
    <v name="dipole">      0.00000000       0.00000000       0.07828655 </v>
    <i name="Tr[quadrupol]">  -8049.66062334 </i>
    <i name="Echarged">      0.00000000 </i>
    <i name="Edipol_quadrupol">      0.00000000 </i>
    <i name="Eion">      0.00000000 </i>
   </dipole>
   <energy>
    <i name="e_fr_energy">   -483.14612351 </i>
    <i name="e_wo_entrp">   -483.07598729 </i>
    <i name="e_0_energy">   -483.11105540 </i>
   </energy>
  </scstep>
  <scstep>
   <time name="dav">    1.37    1.37</time>
   <time name="total">    1.40    1.41</time>
   <dipole>
    <v name="dipole">      0.00000000       0.00000000       0.07797921 </v>
    <i name="Tr[quadrupol]">  -8049.66261194 </i>
    <i name="Echarged">      0.00000000 </i>
    <i name="Edipol_quadrupol">      0.00000000 </i>
    <i name="Eion">      0.00000000 </i>
   </dipole>
   <energy>
    <i name="alphaZ">    170.71992828 </i>
    <i name="ewald">  28658.70862778 </i>
    <i name="hartreedc"> -41723.81578280 </i>
    <i name="XCdc">    973.20411324 </i>
    <i name="pawpsdc">  30793.57667796 </i>
    <i name="pawaedc"> -30845.21594209 </i>
    <i name="eentropy">     -0.07016648 </i>
    <i name="bandstr">  -3514.95245019 </i>
    <i name="atom">  15004.69887552 </i>
    <i name="e_fr_energy">   -483.14611878 </i>
    <i name="e_wo_entrp">   -483.07595230 </i>
    <i name="e_0_energy">   -483.11103554 </i>
   </energy>
  </scstep>
  <structure>
   <crystal>
    <varray name="basis" >
     <v>      13.75952576       0.00000000       0.00000000 </v>
     <v>       0.00000000      11.27854860       0.00000000 </v>
     <v>       0.00000000       0.00000000      15.00000000 </v>
    </varray>
    <i name="volume">   2327.81219976 </i>
    <varray name="rec_basis" >
     <v>       0.07267692       0.00000000       0.00000000 </v>
     <v>       0.00000000       0.08866389       0.00000000 </v>
     <v>       0.00000000       0.00000000       0.06666667 </v>
    </varray>
   </crystal>
   <varray name="positions" >
    <v>       0.07049855       0.38811976       0.22224017 </v>
    <v>       0.98153301       0.21845249       0.16788257 </v>
    <v>       0.22873413       0.39668980       0.18901558 </v>
    <v>       0.82503788       0.57577184       0.18419985 </v>
    <v>       0.14967116       0.24670704       0.12282593 </v>
    <v>       0.90750867       0.38443553       0.21808936 </v>
    <v>       0.56885689       0.39291600       0.23163180 </v>
    <v>       0.47777363       0.22398918       0.18016649 </v>
    <v>       0.73056578       0.39811466       0.19904752 </v>
    <v>       0.31084368       0.58127243       0.17973142 </v>
    <v>       0.64688298       0.25068074       0.13379171 </v>
    <v>       0.40268883       0.39357274       0.22107550 </v>
    <v>       0.81823714       0.88993993       0.05645796 </v>
    <v>       0.73345095       0.72587285       0.12440206 </v>
    <v>       0.97938651       0.89593079       0.08004928 </v>
    <v>       0.06866208       0.07705377       0.09424003 </v>
    <v>       0.90536378       0.74263683       0.14723244 </v>
    <v>       0.65479193       0.89343718       0.07687643 </v>
    <v>       0.31818765       0.89469926       0.05381847 </v>
    <v>       0.22723129       0.72140011       0.10082716 </v>
    <v>       0.47507045       0.90404659       0.09494162 </v>
    <v>       0.56608408       0.08099785       0.11016626 </v>
    <v>       0.38610375       0.76057458       0.16346960 </v>
    <v>       0.15498589       0.88949237       0.05272675 </v>
    <v>       0.98787786       0.43880623       0.24712705 </v>
    <v>       0.89991963       0.26972803       0.19551153 </v>
    <v>       0.15767713       0.43325799       0.24239630 </v>
    <v>       0.14786243       0.14348802       0.08016339 </v>
    <v>       0.98640707       0.10790435       0.13649241 </v>
    <v>       0.22918525       0.31532189       0.12525088 </v>
    <v>       0.06737436       0.28597332       0.16890746 </v>
    <v>       0.82274861       0.45531015       0.21011317 </v>
    <v>       0.48470458       0.44719456       0.25122257 </v>
    <v>       0.39650904       0.27665193       0.20628830 </v>
    <v>       0.65750506       0.43486690       0.25422310 </v>
    <v>       0.64473432       0.14611534       0.09373166 </v>
    <v>       0.48284242       0.11315972       0.15083538 </v>
    <v>       0.72592266       0.31852362       0.13451486 </v>
    <v>       0.56459977       0.29130108       0.18007150 </v>
    <v>       0.31887166       0.46083814       0.20326356 </v>
    <v>       0.73277877       0.94248869       0.03967600 </v>
    <v>       0.64886287       0.78322032       0.11254601 </v>
    <v>       0.90368944       0.93468833       0.03190623 </v>
    <v>       0.90691481       0.63798779       0.18758408 </v>
    <v>       0.73630190       0.61693652       0.15927008 </v>
    <v>       0.98321345       0.81209177       0.14189839 </v>
    <v>       0.81901346       0.78381693       0.10647828 </v>
    <v>       0.56801106       0.96057506       0.08516705 </v>
    <v>       0.23707529       0.94477407       0.02660702 </v>
    <v>       0.14816046       0.77179165       0.06839630 </v>
    <v>       0.40801404       0.93552589       0.03647384 </v>
    <v>       0.37976114       0.65839363       0.20912044 </v>
    <v>       0.23509703       0.60893661       0.12855609 </v>
    <v>       0.46522621       0.83027279       0.16577989 </v>
    <v>       0.31110210       0.79326661       0.10891831 </v>
    <v>       0.06989958       0.95746250       0.06513235 </v>
    <v>       0.57724956       0.77754079       0.24161453 </v>
    <v>       0.65767247       0.60779709       0.29849263 </v>
    <v>       0.48622468       0.61627675       0.29454103 </v>
   </varray>
  </structure>
  <varray name="forces" >
   <v>       0.01291917       0.00190817      -0.02442524 </v>
   <v>       0.01381024       0.04574057       0.01214110 </v>
   <v>      -0.00301864       0.01628878      -0.03484720 </v>
   <v>       0.06454558       0.01862499       0.17392146 </v>
   <v>      -0.00237809       0.02745646       0.01815790 </v>
   <v>      -0.06173715       0.04491198      -0.02834951 </v>
   <v>      -0.05717255      -0.24225651      -0.13388987 </v>
   <v>       0.05086058       0.00769744      -0.02199998 </v>
   <v>       0.11089782       0.00853138      -0.06027258 </v>
   <v>      -0.23598000      -0.08267897      -0.08082894 </v>
   <v>      -0.04567121       0.03743014      -0.07314087 </v>
   <v>      -0.12273618      -0.10277751      -0.03447091 </v>
   <v>      -0.01508091       0.04149278      -0.00845825 </v>
   <v>       0.09375180       0.07482711      -0.05426671 </v>
   <v>       0.04115644       0.00743709      -0.00915760 </v>
   <v>      -0.00567900       0.03901666      -0.02265470 </v>
   <v>       0.02291413      -0.00616517       0.07779086 </v>
   <v>       0.02053844       0.03586006      -0.02377308 </v>
   <v>       0.00072206      -0.00924488       0.05524308 </v>
   <v>       0.03205103       0.06506497      -0.01156983 </v>
   <v>       0.07567730       0.10508592       0.00406231 </v>
   <v>       0.02504762       0.06681728      -0.09341494 </v>
   <v>      -0.11837692       0.07618453      -0.17661595 </v>
   <v>      -0.07318144       0.05807905      -0.01397583 </v>
   <v>       0.01114952      -0.00224119      -0.01019346 </v>
   <v>       0.00411819      -0.04229468       0.01921860 </v>
   <v>       0.02175759      -0.00935313       0.00557158 </v>
   <v>      -0.01481733      -0.00142055      -0.00603024 </v>
   <v>       0.04681585      -0.00703885      -0.01528233 </v>
   <v>       0.00733763      -0.03123176      -0.04748421 </v>
   <v>       0.01161521       0.00302184       0.03219949 </v>
   <v>       0.07514845      -0.14630590      -0.03189668 </v>
   <v>      -0.14781145      -0.50402132      -0.22333660 </v>
   <v>      -0.01913682      -0.07161309       0.04179137 </v>
   <v>       0.01733742      -0.34215639       0.04822591 </v>
   <v>      -0.04398491      -0.04154897      -0.00058407 </v>
   <v>      -0.00607600      -0.03089069       0.02229615 </v>
   <v>      -0.05569703      -0.09150550      -0.03424360 </v>
   <v>      -0.03831611      -0.08453394      -0.08356684 </v>
   <v>      -0.07967332      -0.04902380      -0.03964624 </v>
   <v>       0.00591062       0.03163465      -0.01033398 </v>
   <v>       0.00504127       0.03012188       0.00597709 </v>
   <v>      -0.04477694       0.01160270       0.03753788 </v>
   <v>       0.03100950       0.00405585       0.07021503 </v>
   <v>      -0.06555325      -0.10099933      -0.03246144 </v>
   <v>       0.00969513      -0.07073777      -0.07740571 </v>
   <v>      -0.04559216      -0.05720004       0.07003168 </v>
   <v>      -0.01208213      -0.05383409      -0.05958289 </v>
   <v>       0.01099631       0.00745804       0.03889603 </v>
   <v>      -0.01419652      -0.01855361      -0.03645264 </v>
   <v>       0.06486616      -0.06552258       0.02430560 </v>
   <v>      -0.64046480       0.11775600      -0.24620799 </v>
   <v>      -0.04152610       0.01451808      -0.04481578 </v>
   <v>      -0.06741144       0.02383181       0.03487748 </v>
   <v>      -0.03898431       0.02502861      -0.07786740 </v>
   <v>      -0.02234125      -0.05919508      -0.02798226 </v>
   <v>      -0.11391278       0.92969920      -0.39845536 </v>
   <v>       2.02545677       0.20623768       0.78355198 </v>
   <v>      -0.65978109       0.14092360       0.83392914 </v>
  </varray>
  <varray name="stress" >
   <v>      -0.39728435       4.88569544       1.38206559 </v>
   <v>       4.88569543      -2.55631801       0.02303882 </v>
   <v>       1.38206559       0.02303881     -11.55707380 </v>
  </varray>
  <energy>
   <i name="e_fr_energy">   -483.14611878 </i>
   <i name="e_wo_entrp">   -483.07595230 </i>
   <i name="e_0_energy">   -483.11103554 </i>
  </energy>
  <time name="totalsc">   17.51   17.54</time>
 </calculation>
 <calculation>
  <scstep>
   <time name="dav">    1.45    1.45</time>
   <time name="total">    1.52    1.52</time>
   <dipole>
    <v name="dipole">      0.00000000       0.00000000       0.07723825 </v>
    <i name="Tr[quadrupol]">  -8027.06690019 </i>
    <i name="Echarged">      0.00000000 </i>
    <i name="Edipol_quadrupol">      0.00000000 </i>
    <i name="Eion">      0.00000000 </i>
   </dipole>
   <energy>
    <i name="alphaZ">    170.81688067 </i>
    <i name="ewald">  28653.56806242 </i>
    <i name="hartreedc"> -41721.63975992 </i>
    <i name="XCdc">    973.66013768 </i>
    <i name="pawpsdc">  30793.18053203 </i>
    <i name="pawaedc"> -30844.82330738 </i>
    <i name="eentropy">     -0.07510757 </i>
    <i name="bandstr">  -3512.60657920 </i>
    <i name="atom">  15004.69887552 </i>
    <i name="e_fr_energy">   -483.22026576 </i>
    <i name="e_wo_entrp">   -483.14515818 </i>
    <i name="e_0_energy">   -483.18271197 </i>
   </energy>
  </scstep>
  <scstep>
   <time name="dav">    1.89    1.90</time>
   <time name="total">    1.97    1.98</time>
   <dipole>
    <v name="dipole">      0.00000000       0.00000000       0.08636031 </v>
    <i name="Tr[quadrupol]">  -8027.09334828 </i>
    <i name="Echarged">      0.00000000 </i>
    <i name="Edipol_quadrupol">      0.00000000 </i>
    <i name="Eion">      0.00000000 </i>
   </dipole>
   <energy>
    <i name="e_fr_energy">   -483.30921744 </i>
    <i name="e_wo_entrp">   -483.22811737 </i>
    <i name="e_0_energy">   -483.26866741 </i>
   </energy>
  </scstep>
  <scstep>
   <time name="dav">    1.67    1.67</time>
   <time name="total">    1.74    1.74</time>
   <dipole>
    <v name="dipole">      0.00000000       0.00000000       0.06392763 </v>
    <i name="Tr[quadrupol]">  -8027.12454622 </i>
    <i name="Echarged">      0.00000000 </i>
    <i name="Edipol_quadrupol">      0.00000000 </i>
    <i name="Eion">      0.00000000 </i>
   </dipole>
   <energy>
    <i name="e_fr_energy">   -483.28306324 </i>
    <i name="e_wo_entrp">   -483.21083662 </i>
    <i name="e_0_energy">   -483.24694993 </i>
   </energy>
  </scstep>
  <scstep>
   <time name="dav">    1.91    1.91</time>
   <time name="total">    2.00    2.01</time>
   <dipole>
    <v name="dipole">      0.00000000       0.00000000       0.07404850 </v>
    <i name="Tr[quadrupol]">  -8027.15881887 </i>
    <i name="Echarged">      0.00000000 </i>
    <i name="Edipol_quadrupol">      0.00000000 </i>
    <i name="Eion">      0.00000000 </i>
   </dipole>
   <energy>
    <i name="e_fr_energy">   -483.28629108 </i>
    <i name="e_wo_entrp">   -483.20814379 </i>
    <i name="e_0_energy">   -483.24721744 </i>
   </energy>
  </scstep>
  <scstep>
   <time name="dav">    1.93    1.93</time>
   <time name="total">    2.02    2.02</time>
   <dipole>
    <v name="dipole">      0.00000000       0.00000000       0.06664239 </v>
    <i name="Tr[quadrupol]">  -8027.15480904 </i>
    <i name="Echarged">      0.00000000 </i>
    <i name="Edipol_quadrupol">      0.00000000 </i>
    <i name="Eion">      0.00000000 </i>
   </dipole>
   <energy>
    <i name="e_fr_energy">   -483.27874680 </i>
    <i name="e_wo_entrp">   -483.20106803 </i>
    <i name="e_0_energy">   -483.23990741 </i>
   </energy>
  </scstep>
  <scstep>
   <time name="dav">    1.89    1.89</time>
   <time name="total">    1.98    1.98</time>
   <dipole>
    <v name="dipole">      0.00000000       0.00000000       0.06091618 </v>
    <i name="Tr[quadrupol]">  -8027.17601859 </i>
    <i name="Echarged">      0.00000000 </i>
    <i name="Edipol_quadrupol">      0.00000000 </i>
    <i name="Eion">      0.00000000 </i>
   </dipole>
   <energy>
    <i name="e_fr_energy">   -483.27501498 </i>
    <i name="e_wo_entrp">   -483.19795223 </i>
    <i name="e_0_energy">   -483.23648361 </i>
   </energy>
  </scstep>
  <scstep>
   <time name="dav">    1.84    1.84</time>
   <time name="total">    1.91    1.92</time>
   <dipole>
    <v name="dipole">      0.00000000       0.00000000       0.06076439 </v>
    <i name="Tr[quadrupol]">  -8027.17763860 </i>
    <i name="Echarged">      0.00000000 </i>
    <i name="Edipol_quadrupol">      0.00000000 </i>
    <i name="Eion">      0.00000000 </i>
   </dipole>
   <energy>
    <i name="e_fr_energy">   -483.27497247 </i>
    <i name="e_wo_entrp">   -483.19812196 </i>
    <i name="e_0_energy">   -483.23654721 </i>
   </energy>
  </scstep>
  <scstep>
   <time name="dav">    1.91    1.91</time>
   <time name="total">    1.99    1.99</time>
   <dipole>
    <v name="dipole">      0.00000000       0.00000000       0.05907579 </v>
    <i name="Tr[quadrupol]">  -8027.18238389 </i>
    <i name="Echarged">      0.00000000 </i>
    <i name="Edipol_quadrupol">      0.00000000 </i>
    <i name="Eion">      0.00000000 </i>
   </dipole>
   <energy>
    <i name="e_fr_energy">   -483.27477259 </i>
    <i name="e_wo_entrp">   -483.19860963 </i>
    <i name="e_0_energy">   -483.23669111 </i>
   </energy>
  </scstep>
  <scstep>
   <time name="dav">    1.73    1.73</time>
   <time name="total">    1.80    1.81</time>
   <dipole>
    <v name="dipole">      0.00000000       0.00000000       0.05823547 </v>
    <i name="Tr[quadrupol]">  -8027.18800023 </i>
    <i name="Echarged">      0.00000000 </i>
    <i name="Edipol_quadrupol">      0.00000000 </i>
    <i name="Eion">      0.00000000 </i>
   </dipole>
   <energy>
    <i name="e_fr_energy">   -483.27474168 </i>
[...]
       <r>    1.8818    0.0000 </r>
       <r>    1.9531    0.0000 </r>
       <r>    2.0912    0.0000 </r>
       <r>    2.3503    0.0000 </r>
       <r>    2.4892    0.0000 </r>
       <r>    2.5698    0.0000 </r>
       <r>    2.6513    0.0000 </r>
       <r>    2.7745    0.0000 </r>
       <r>    2.8243    0.0000 </r>
      </set>
     </set>
    </set>
   </array>
  </eigenvalues>
  <separator name="orbital magnetization" >
   <v name="MAGDIPOLOUT">      0.00000000      0.00000000      0.00000000</v>
  </separator>
  <dos>
   <i name="efermi">     -1.94772639 </i>
   <total>
    <array>
     <dimension dim="1">gridpoints</dimension>
     <dimension dim="2">spin</dimension>
     <field>energy</field>
     <field>total</field>
     <field>integrated</field>
     <set>
      <set comment="spin 1">
       <r>   -27.7238     0.0000     0.0000 </r>
       <r>   -27.6167     0.0000     0.0000 </r>
       <r>   -27.5096     0.0000     0.0000 </r>
       <r>   -27.4024     0.0000     0.0000 </r>
       <r>   -27.2953     0.0000     0.0000 </r>
       <r>   -27.1882     0.0000     0.0000 </r>
       <r>   -27.0810     0.0000     0.0000 </r>
       <r>   -26.9739     0.0000     0.0000 </r>
       <r>   -26.8668     0.0000     0.0000 </r>
       <r>   -26.7596     0.0000     0.0000 </r>
       <r>   -26.6525     0.0000     0.0000 </r>
       <r>   -26.5454     0.0003     0.0000 </r>
       <r>   -26.4382     0.0692     0.0074 </r>
       <r>   -26.3311     2.1519     0.2380 </r>
       <r>   -26.2240     9.5833     1.2647 </r>
       <r>   -26.1168    10.1621     2.3534 </r>
       <r>   -26.0097    16.9265     4.1668 </r>
       <r>   -25.9026    18.4168     6.1398 </r>
       <r>   -25.7954    13.0114     7.5338 </r>
       <r>   -25.6883     4.1127     7.9744 </r>
       <r>   -25.5812     0.2373     7.9998 </r>
       <r>   -25.4740     0.0018     8.0000 </r>
       <r>   -25.3669     0.0001     8.0000 </r>
       <r>   -25.2598     0.0336     8.0036 </r>
       <r>   -25.1526     1.1918     8.1313 </r>
       <r>   -25.0455     8.5070     9.0427 </r>
       <r>   -24.9384    16.5671    10.8176 </r>
       <r>   -24.8312    13.3636    12.2493 </r>
       <r>   -24.7241     9.3026    13.2459 </r>
       <r>   -24.6170     8.7861    14.1872 </r>
       <r>   -24.5098     9.1106    15.1632 </r>
       <r>   -24.4027     2.9703    15.4814 </r>
       <r>   -24.2956     0.1729    15.5000 </r>
       <r>   -24.1884     0.1077    15.5115 </r>
       <r>   -24.0813     1.4999    15.6722 </r>
       <r>   -23.9742     6.3913    16.3569 </r>
       <r>   -23.8670    18.5029    18.3392 </r>
       <r>   -23.7599    24.1945    20.9312 </r>
       <r>   -23.6528    23.1293    23.4091 </r>
       <r>   -23.5456     9.2160    24.3965 </r>
       <r>   -23.4385     0.9467    24.4979 </r>
       <r>   -23.3314     0.1594    24.5150 </r>
       <r>   -23.2242     2.6166    24.7953 </r>
       <r>   -23.1171     8.7900    25.7370 </r>
       <r>   -23.0100     8.9645    26.6974 </r>
       <r>   -22.9028     7.7295    27.5255 </r>
       <r>   -22.7957    12.1842    28.8308 </r>
       <r>   -22.6886    13.7595    30.3049 </r>
       <r>   -22.5814    10.6070    31.4413 </r>
       <r>   -22.4743     4.6427    31.9387 </r>
       <r>   -22.3672     0.5606    31.9987 </r>
       <r>   -22.2600     0.0118    32.0000 </r>
       <r>   -22.1529     0.0370    32.0040 </r>
       <r>   -22.0458     1.5404    32.1690 </r>
       <r>   -21.9386    12.9403    33.5553 </r>
       <r>   -21.8315    32.4507    37.0319 </r>
       <r>   -21.7244    34.7165    40.7512 </r>
       <r>   -21.6172    28.8104    43.8377 </r>
       <r>   -21.5101    25.4674    46.5662 </r>
       <r>   -21.4030    11.5906    47.8079 </r>
       <r>   -21.2958     1.7432    47.9947 </r>
       <r>   -21.1887     0.4149    48.0391 </r>
       <r>   -21.0816     3.7517    48.4410 </r>
       <r>   -20.9744    14.3712    49.9807 </r>
       <r>   -20.8673    22.5050    52.3917 </r>
       <r>   -20.7602    19.6750    54.4995 </r>
       <r>   -20.6530    11.3660    55.7172 </r>
       <r>   -20.5459     4.9527    56.2478 </r>
       <r>   -20.4388    11.3455    57.4633 </r>
       <r>   -20.3316    17.6618    59.3555 </r>
       <r>   -20.2245    19.2262    61.4152 </r>
       <r>   -20.1174    13.4418    62.8553 </r>
       <r>   -20.0102     9.0220    63.8219 </r>
       <r>   -19.9031     1.6183    63.9952 </r>
       <r>   -19.7960     0.0443    64.0000 </r>
       <r>   -19.6888     0.0002    64.0000 </r>
       <r>   -19.5817     0.0000    64.0000 </r>
       <r>   -19.4746     0.0000    64.0000 </r>
       <r>   -19.3674     0.0000    64.0000 </r>
       <r>   -19.2603     0.0000    64.0000 </r>
       <r>   -19.1532     0.0000    64.0000 </r>
       <r>   -19.0460     0.0000    64.0000 </r>
       <r>   -18.9389     0.0000    64.0000 </r>
       <r>   -18.8318     0.0000    64.0000 </r>
       <r>   -18.7246     0.0000    64.0000 </r>
       <r>   -18.6175     0.0000    64.0000 </r>
       <r>   -18.5104     0.0000    64.0000 </r>
       <r>   -18.4032     0.0000    64.0000 </r>
       <r>   -18.2961     0.0000    64.0000 </r>
       <r>   -18.1890     0.0000    64.0000 </r>
       <r>   -18.0818     0.0000    64.0000 </r>
       <r>   -17.9747     0.0000    64.0000 </r>
       <r>   -17.8676     0.0000    64.0000 </r>
       <r>   -17.7604     0.0000    64.0000 </r>
       <r>   -17.6533     0.0176    64.0019 </r>
       <r>   -17.5462     0.8820    64.0964 </r>
       <r>   -17.4390     7.3249    64.8811 </r>
       <r>   -17.3319    14.9393    66.4816 </r>
       <r>   -17.2248    14.3141    68.0151 </r>
       <r>   -17.1176    13.1921    69.4285 </r>
       <r>   -17.0105    17.9201    71.3483 </r>
       <r>   -16.9034    18.9324    73.3766 </r>
       <r>   -16.7962    19.2314    75.4369 </r>
       <r>   -16.6891    12.4223    76.7678 </r>
       <r>   -16.5820    12.0810    78.0620 </r>
       <r>   -16.4748    10.4190    79.1783 </r>
       <r>   -16.3677     2.8676    79.4855 </r>
       <r>   -16.2606     0.2178    79.5088 </r>
       <r>   -16.1534     1.2193    79.6394 </r>
       <r>   -16.0463     2.5419    79.9118 </r>
       <r>   -15.9392     0.7897    79.9964 </r>
       <r>   -15.8320     0.0353    80.0002 </r>
       <r>   -15.7249     0.2002    80.0216 </r>
       <r>   -15.6178     3.8045    80.4292 </r>
       <r>   -15.5106    16.0543    82.1491 </r>
       <r>   -15.4035    26.6716    85.0066 </r>
       <r>   -15.2964    19.3442    87.0790 </r>
       <r>   -15.1892     6.0778    87.7301 </r>
       <r>   -15.0821     2.3221    87.9789 </r>
       <r>   -14.9750     1.6609    88.1568 </r>
       <r>   -14.8678     2.9299    88.4707 </r>
       <r>   -14.7607     2.9460    88.7863 </r>
       <r>   -14.6536     1.8013    88.9793 </r>
       <r>   -14.5464     0.8640    89.0718 </r>
       <r>   -14.4393     6.8471    89.8054 </r>
       <r>   -14.3322    13.9999    91.3053 </r>
       <r>   -14.2250    12.2059    92.6129 </r>
       <r>   -14.1179    14.1025    94.1238 </r>
       <r>   -14.0108    15.0524    95.7364 </r>
       <r>   -13.9036    16.7354    97.5293 </r>
       <r>   -13.7965    20.5488    99.7308 </r>
       <r>   -13.6894    24.2733   102.3312 </r>
       <r>   -13.5822    25.7338   105.0882 </r>
       <r>   -13.4751    24.2518   107.6864 </r>
       <r>   -13.3680    25.1601   110.3819 </r>
       <r>   -13.2608    21.1652   112.6494 </r>
       <r>   -13.1537    14.3105   114.1825 </r>
       <r>   -13.0466     6.3730   114.8653 </r>
       <r>   -12.9394     6.1987   115.5293 </r>
       <r>   -12.8323     8.3688   116.4259 </r>
       <r>   -12.7252     9.7247   117.4678 </r>
       <r>   -12.6180     7.1334   118.2320 </r>
       <r>   -12.5109     3.6446   118.6224 </r>
       <r>   -12.4038     5.7418   119.2376 </r>
       <r>   -12.2966     7.4914   120.0402 </r>
       <r>   -12.1895     8.9911   121.0034 </r>
       <r>   -12.0824     7.1031   121.7644 </r>
       <r>   -11.9752    10.8937   122.9315 </r>
       <r>   -11.8681    15.3271   124.5735 </r>
       <r>   -11.7610    21.9278   126.9227 </r>
       <r>   -11.6538    21.9777   129.2773 </r>
       <r>   -11.5467    18.1328   131.2199 </r>
       <r>   -11.4396    17.1641   133.0587 </r>
       <r>   -11.3324    17.3807   134.9208 </r>
       <r>   -11.2253    17.3731   136.7820 </r>
       <r>   -11.1182    16.8357   138.5857 </r>
       <r>   -11.0110    11.7757   139.8473 </r>
       <r>   -10.9039     8.0175   140.7062 </r>
       <r>   -10.7968     4.7556   141.2157 </r>
       <r>   -10.6896    11.1362   142.4087 </r>
       <r>   -10.5825    16.8213   144.2109 </r>
       <r>   -10.4754    16.1788   145.9442 </r>
       <r>   -10.3682    15.6065   147.6161 </r>
       <r>   -10.2611    13.3823   149.0498 </r>
       <r>   -10.1540    14.4207   150.5948 </r>
       <r>   -10.0468    10.2686   151.6949 </r>
       <r>    -9.9397     3.4236   152.0617 </r>
       <r>    -9.8326     3.2404   152.4088 </r>
       <r>    -9.7254     7.1097   153.1705 </r>
       <r>    -9.6183    12.9837   154.5615 </r>
       <r>    -9.5112    16.0316   156.2790 </r>
       <r>    -9.4040    21.0459   158.5337 </r>
       <r>    -9.2969    16.2545   160.2751 </r>
       <r>    -9.1898    20.2748   162.4472 </r>
       <r>    -9.0826    21.0477   164.7021 </r>
       <r>    -8.9755    19.0258   166.7404 </r>
       <r>    -8.8684    13.4071   168.1768 </r>
       <r>    -8.7612    13.8291   169.6583 </r>
       <r>    -8.6541    15.9867   171.3710 </r>
       <r>    -8.5470     6.1299   172.0278 </r>
       <r>    -8.4398     2.8601   172.3342 </r>
       <r>    -8.3327     3.7027   172.7309 </r>
       <r>    -8.2256    11.2327   173.9343 </r>
       <r>    -8.1184    18.0812   175.8714 </r>
       <r>    -8.0113    17.1256   177.7061 </r>
       <r>    -7.9042    18.0127   179.6358 </r>
       <r>    -7.7970    19.4292   181.7174 </r>
       <r>    -7.6899    18.1876   183.6659 </r>
       <r>    -7.5828    13.1495   185.0746 </r>
       <r>    -7.4756    14.7637   186.6563 </r>
       <r>    -7.3685    24.1610   189.2447 </r>
       <r>    -7.2614    28.8996   192.3409 </r>
       <r>    -7.1542    26.8941   195.2221 </r>
       <r>    -7.0471    30.1196   198.4489 </r>
       <r>    -6.9400    28.1994   201.4700 </r>
       <r>    -6.8328    21.3604   203.7584 </r>
       <r>    -6.7257    16.7935   205.5576 </r>
       <r>    -6.6186    19.9685   207.6969 </r>
       <r>    -6.5114    22.1974   210.0749 </r>
       <r>    -6.4043    15.6609   211.7528 </r>
       <r>    -6.2972    12.6665   213.1098 </r>
       <r>    -6.1900    13.9137   214.6004 </r>
       <r>    -6.0829    10.0615   215.6783 </r>
       <r>    -5.9758     6.8301   216.4100 </r>
       <r>    -5.8686    13.9786   217.9076 </r>
       <r>    -5.7615    18.7223   219.9134 </r>
       <r>    -5.6544    19.2614   221.9769 </r>
       <r>    -5.5472    24.4576   224.5972 </r>
       <r>    -5.4401    29.0081   227.7049 </r>
       <r>    -5.3330    25.4041   230.4265 </r>
       <r>    -5.2258    28.7081   233.5021 </r>
       <r>    -5.1187    32.5936   236.9940 </r>
       <r>    -5.0116    27.3356   239.9225 </r>
       <r>    -4.9044    24.0587   242.5000 </r>
       <r>    -4.7973    22.4245   244.9024 </r>
       <r>    -4.6902    21.2107   247.1748 </r>
       <r>    -4.5830    24.0354   249.7498 </r>
       <r>    -4.4759    22.9881   252.2126 </r>
       <r>    -4.3688    24.2291   254.8083 </r>
       <r>    -4.2616    30.6448   258.0914 </r>
       <r>    -4.1545    26.8760   260.9707 </r>
       <r>    -4.0474    15.5423   262.6358 </r>
       <r>    -3.9402    15.5164   264.2982 </r>
       <r>    -3.8331    13.5808   265.7531 </r>
       <r>    -3.7260     9.2303   266.7420 </r>
       <r>    -3.6188     9.7419   267.7857 </r>
       <r>    -3.5117     6.0878   268.4379 </r>
       <r>    -3.4046    17.7362   270.3380 </r>
       <r>    -3.2974    23.3002   272.8343 </r>
       <r>    -3.1903    11.9779   274.1175 </r>
       <r>    -3.0832    10.4643   275.2386 </r>
       <r>    -2.9760     9.6276   276.2700 </r>
       <r>    -2.8689    10.8171   277.4289 </r>
       <r>    -2.7618     6.3960   278.1141 </r>
       <r>    -2.6546    11.7627   279.3743 </r>
       <r>    -2.5475    19.2159   281.4329 </r>
       <r>    -2.4404    13.9622   282.9288 </r>
       <r>    -2.3332     9.2814   283.9231 </r>
       <r>    -2.2261     6.9697   284.6698 </r>
       <r>    -2.1190     9.6632   285.7050 </r>
       <r>    -2.0118     6.2086   286.3702 </r>
       <r>    -1.9047    10.9670   287.5451 </r>
       <r>    -1.7976    13.6461   289.0071 </r>
       <r>    -1.6904    13.2259   290.4240 </r>
       <r>    -1.5833    14.6881   291.9976 </r>
       <r>    -1.4762    14.7370   293.5764 </r>
       <r>    -1.3690    11.1525   294.7712 </r>
       <r>    -1.2619     8.3738   295.6683 </r>
       <r>    -1.1548    13.4173   297.1058 </r>
       <r>    -1.0476    21.9540   299.4578 </r>
       <r>    -0.9405    21.7554   301.7885 </r>
       <r>    -0.8334    15.7020   303.4707 </r>
       <r>    -0.7262     8.8103   304.4146 </r>
       <r>    -0.6191    12.7790   305.7837 </r>
       <r>    -0.5120    11.6821   307.0352 </r>
       <r>    -0.4048    14.3569   308.5733 </r>
       <r>    -0.2977    18.6283   310.5690 </r>
       <r>    -0.1906    10.9988   311.7473 </r>
       <r>    -0.0834     2.2678   311.9903 </r>
       <r>     0.0237     0.0900   311.9999 </r>
       <r>     0.1308     0.0006   312.0000 </r>
       <r>     0.2380     0.0259   312.0028 </r>
       <r>     0.3451     1.2113   312.1325 </r>
       <r>     0.4522     7.9996   312.9896 </r>
       <r>     0.5594     8.7895   313.9312 </r>
       <r>     0.6665     5.9219   314.5657 </r>
       <r>     0.7736     9.7007   315.6049 </r>
       <r>     0.8808    12.5339   316.9477 </r>
       <r>     0.9879    10.7210   318.0963 </r>
       <r>     1.0950    10.9979   319.2746 </r>
       <r>     1.2022     8.5621   320.1918 </r>
       <r>     1.3093     9.9663   321.2596 </r>
       <r>     1.4164    17.7636   323.1626 </r>
       <r>     1.5236    24.4320   325.7801 </r>
       <r>     1.6307    20.2919   327.9541 </r>
       <r>     1.7378    23.8778   330.5122 </r>
       <r>     1.8450    28.3615   333.5506 </r>
       <r>     1.9521    22.4928   335.9604 </r>
       <r>     2.0592    16.1958   337.6955 </r>
       <r>     2.1664    18.0492   339.6291 </r>
       <r>     2.2735    14.6057   341.1939 </r>
       <r>     2.3806    15.3881   342.8425 </r>
       <r>     2.4878    14.7980   344.4278 </r>
       <r>     2.5949    15.2755   346.0644 </r>
       <r>     2.7020    18.9343   348.0929 </r>
       <r>     2.8092    20.3630   350.2744 </r>
       <r>     2.9163    11.3182   351.4870 </r>
       <r>     3.0234     3.9663   351.9119 </r>
       <r>     3.1306     0.7914   351.9967 </r>
       <r>     3.2377     0.0307   352.0000 </r>
       <r>     3.3448     0.0002   352.0000 </r>
       <r>     3.4520     0.0000   352.0000 </r>
       <r>     3.5591     0.0000   352.0000 </r>
       <r>     3.6662     0.0000   352.0000 </r>
       <r>     3.7734     0.0000   352.0000 </r>
       <r>     3.8805     0.0000   352.0000 </r>
       <r>     3.9876     0.0000   352.0000 </r>
       <r>     4.0948     0.0000   352.0000 </r>
       <r>     4.2019     0.0000   352.0000 </r>
       <r>     4.3090     0.0000   352.0000 </r>
       <r>     4.4162     0.0000   352.0000 </r>
      </set>
     </set>
    </array>
   </total>
  </dos>
 </calculation>
 <structure name="finalpos" >
  <crystal>
   <varray name="basis" >
    <v>      13.70292610       0.00000000       0.00000000 </v>
    <v>       0.00000000      10.87515740       0.00000000 </v>
    <v>       0.00000000       0.00000000      15.00000000 </v>
   </varray>
   <i name="volume">   2235.32217326 </i>
   <varray name="rec_basis" >
    <v>       0.07297711       0.00000000       0.00000000 </v>
    <v>       0.00000000       0.09195269       0.00000000 </v>
    <v>       0.00000000       0.00000000       0.06666667 </v>
   </varray>
  </crystal>
  <varray name="positions" >
   <v>       0.07230404       0.38110798       0.22997207 </v>
   <v>       0.98051108       0.21463386       0.16492564 </v>
   <v>       0.23056314       0.39111039       0.19537780 </v>
   <v>       0.82517383       0.58130092       0.20706796 </v>
   <v>       0.14930680       0.24659659       0.12019952 </v>
   <v>       0.90856615       0.38001611       0.22768677 </v>
   <v>       0.57047860       0.39535378       0.23707483 </v>
   <v>       0.47865032       0.22525003       0.17883187 </v>
   <v>       0.73139101       0.39731934       0.20822495 </v>
   <v>       0.30904306       0.58180048       0.18181528 </v>
   <v>       0.64662949       0.25910442       0.12966501 </v>
   <v>       0.40476782       0.39550829       0.22935050 </v>
   <v>       0.81778928       0.88217353       0.04972117 </v>
   <v>       0.73325536       0.72921485       0.13607490 </v>
   <v>       0.97944429       0.88974706       0.06951093 </v>
   <v>       0.06648066       0.07655756       0.08184009 </v>
   <v>       0.90676953       0.74515644       0.15317787 </v>
   <v>       0.65421838       0.89072278       0.07002347 </v>
   <v>       0.31687108       0.89276014       0.04154170 </v>
   <v>       0.22498345       0.71731007       0.09511811 </v>
   <v>       0.47361545       0.90609296       0.08428323 </v>
   <v>       0.56613471       0.08532634       0.09922641 </v>
   <v>       0.38326708       0.76326048       0.15760738 </v>
   <v>       0.15360726       0.88568970       0.03744803 </v>
   <v>       0.99044436       0.43196109       0.25891076 </v>
   <v>       0.89968821       0.26372349       0.19801618 </v>
   <v>       0.16081825       0.42307674       0.25231140 </v>
   <v>       0.14612162       0.14552791       0.07058656 </v>
   <v>       0.98417323       0.10460375       0.12554618 </v>
   <v>       0.23027046       0.31454058       0.12666562 </v>
   <v>       0.06756116       0.28269685       0.16959992 </v>
   <v>       0.82445578       0.45352178       0.22549664 </v>
   <v>       0.48719736       0.45271620       0.25850188 </v>
   <v>       0.39907527       0.27350991       0.21416423 </v>
   <v>       0.65984377       0.42810413       0.26571757 </v>
   <v>       0.64473444       0.15422880       0.08437338 </v>
   <v>       0.48363513       0.11393895       0.14292108 </v>
   <v>       0.72695907       0.32772886       0.13563107 </v>
   <v>       0.56450694       0.29719671       0.17774142 </v>
   <v>       0.31920972       0.46016744       0.20997915 </v>
   <v>       0.73252403       0.93515835       0.02901426 </v>
   <v>       0.64843816       0.78406746       0.11601679 </v>
   <v>       0.90300499       0.92243579       0.01932611 </v>
   <v>       0.90857887       0.64407731       0.20252886 </v>
   <v>       0.73501458       0.62523816       0.18381214 </v>
   <v>       0.98539985       0.81380440       0.13835843 </v>
   <v>       0.81908738       0.78281177       0.11071055 </v>
   <v>       0.56727890       0.96172519       0.07123300 </v>
   <v>       0.23586034       0.94240466       0.01097104 </v>
   <v>       0.14691170       0.76431878       0.05655481 </v>
   <v>       0.40747244       0.93267607       0.02335263 </v>
   <v>       0.38015668       0.66082251       0.20567495 </v>
   <v>       0.23121754       0.60493300       0.13088442 </v>
   <v>       0.46210973       0.83722152       0.15901971 </v>
   <v>       0.30867733       0.79312497       0.10105939 </v>
   <v>       0.06827543       0.95450353       0.04888009 </v>
   <v>       0.56648583       0.77761354       0.23532397 </v>
   <v>       0.67571595       0.63960478       0.31704157 </v>
   <v>       0.48243450       0.62219033       0.33148641 </v>
  </varray>
 </structure>
</modeling>
