slab_Cel1-OPT                           
           1
    13.759704    0.000000    0.000000
     0.000000   11.286700    0.000000
     0.000000    0.000000   15.000000
   C    N    Cu   Pd
    24    32     1     2
Direct configuration=     1
   0.07054120  0.38816457  0.22227495
   0.98151180  0.21832942  0.16785344
   0.22877304  0.39667288  0.18904348
   0.82472337  0.57572318  0.18403191
   0.14970601  0.24663792  0.12277753
   0.90758628  0.38434512  0.21811946
   0.56886571  0.39316130  0.23173729
   0.47768100  0.22391730  0.18017943
   0.73035049  0.39802658  0.19909345
   0.31101118  0.58132963  0.17977696
   0.64681854  0.25040749  0.13377315
   0.40275100  0.39355427  0.22106508
   0.81808056  0.88988957  0.05647519
   0.73319531  0.72568325  0.12448457
   0.97932824  0.89597624  0.07999408
   0.06867909  0.07698375  0.09423854
   0.90528082  0.74258583  0.14719628
   0.65472406  0.89333727  0.07691603
   0.31825350  0.89473226  0.05377466
   0.22716619  0.72126926  0.10084126
   0.47498917  0.90396535  0.09489577
   0.56592959  0.08075138  0.11024766
   0.38612516  0.76037560  0.16363174
   0.15509033  0.88950396  0.05271529
   0.98784551  0.43883046  0.24713656
   0.89991795  0.26975381  0.19549767
   0.15759857  0.43325808  0.24240148
   0.14788829  0.14353661  0.08017307
   0.98633649  0.10796021  0.13653167
   0.22915942  0.31533454  0.12527490
   0.06735802  0.28598388  0.16888911
   0.82274912  0.45552252  0.21014877
   0.48493735  0.44793349  0.25146232
   0.39648714  0.27665554  0.20625030
   0.65756919  0.43524210  0.25419888
   0.64488604  0.14640144  0.09374788
   0.48286722  0.11321356  0.15081376
   0.72606390  0.31870920  0.13454719
   0.56470606  0.29135323  0.18008364
   0.31888640  0.46086995  0.20329135
   0.73287748  0.94248397  0.03965616
   0.64891188  0.78317499  0.11254597
   0.90382696  0.93469024  0.03189926
   0.90701680  0.63807548  0.18754912
   0.73647441  0.61699787  0.15934394
   0.98321706  0.81212363  0.14197152
   0.81925020  0.78400528  0.10639513
   0.56804185  0.96074410  0.08520074
   0.23699719  0.94478449  0.02657725
   0.14820250  0.77173059  0.06843984
   0.40793432  0.93556381  0.03646331
   0.38047481  0.65838217  0.20939239
   0.23501053  0.60894863  0.12850628
   0.46527775  0.83024755  0.16578047
   0.31113112  0.79334051  0.10891910
   0.06990262  0.95754122  0.06514651
   0.57736557  0.77647674  0.24193941
   0.65582252  0.60772566  0.29790490
   0.48700699  0.61617049  0.29396059
slab_Cel1-OPT                           
           1
    13.759526    0.000000    0.000000
     0.000000   11.278549    0.000000
     0.000000    0.000000   15.000000
   C    N    Cu   Pd
    24    32     1     2
Direct configuration=     2
   0.07049855  0.38811976  0.22224017
   0.98153301  0.21845249  0.16788257
   0.22873413  0.39668980  0.18901558
   0.82503788  0.57577184  0.18419985
   0.14967116  0.24670704  0.12282593
   0.90750867  0.38443553  0.21808936
   0.56885689  0.39291600  0.23163180
   0.47777363  0.22398918  0.18016649
   0.73056578  0.39811466  0.19904752
   0.31084368  0.58127243  0.17973142
   0.64688298  0.25068074  0.13379171
   0.40268883  0.39357274  0.22107550
   0.81823714  0.88993993  0.05645796
   0.73345095  0.72587285  0.12440206
   0.97938651  0.89593079  0.08004928
   0.06866208  0.07705377  0.09424003
   0.90536378  0.74263683  0.14723244
   0.65479193  0.89343718  0.07687643
   0.31818765  0.89469926  0.05381847
   0.22723129  0.72140011  0.10082716
   0.47507045  0.90404659  0.09494162
   0.56608408  0.08099785  0.11016626
   0.38610375  0.76057458  0.16346960
   0.15498589  0.88949237  0.05272675
   0.98787786  0.43880623  0.24712705
   0.89991963  0.26972803  0.19551153
   0.15767713  0.43325799  0.24239630
   0.14786243  0.14348802  0.08016339
   0.98640707  0.10790435  0.13649241
   0.22918525  0.31532189  0.12525088
   0.06737436  0.28597332  0.16890746
   0.82274861  0.45531015  0.21011317
   0.48470458  0.44719456  0.25122257
   0.39650904  0.27665193  0.20628830
   0.65750506  0.43486690  0.25422310
   0.64473432  0.14611534  0.09373166
   0.48284242  0.11315972  0.15083538
   0.72592266  0.31852362  0.13451486
   0.56459977  0.29130108  0.18007150
   0.31887166  0.46083814  0.20326356
   0.73277877  0.94248869  0.03967600
   0.64886287  0.78322032  0.11254601
   0.90368944  0.93468833  0.03190623
   0.90691481  0.63798779  0.18758408
   0.73630190  0.61693652  0.15927008
   0.98321345  0.81209177  0.14189839
   0.81901346  0.78381693  0.10647828
   0.56801106  0.96057506  0.08516705
   0.23707529  0.94477407  0.02660702
   0.14816046  0.77179165  0.06839630
   0.40801404  0.93552589  0.03647384
   0.37976114  0.65839363  0.20912044
   0.23509703  0.60893661  0.12855609
   0.46522621  0.83027279  0.16577989
   0.31110210  0.79326661  0.10891831
   0.06989958  0.95746250  0.06513235
   0.57724956  0.77754079  0.24161453
   0.65767247  0.60779709  0.29849263
   0.48622468  0.61627675  0.29454103
slab_Cel1-OPT                           
           1
    13.759141    0.000000    0.000000
     0.000000   11.260907    0.000000
     0.000000    0.000000   15.000000
   C    N    Cu   Pd
    24    32     1     2
Direct configuration=     3
   0.07040623  0.38802269  0.22216491
   0.98157893  0.21871905  0.16794563
   0.22864992  0.39672645  0.18895518
   0.82571860  0.57587725  0.18456334
   0.14959572  0.24685677  0.12293070
   0.90734069  0.38463137  0.21802422
   0.56883780  0.39238471  0.23140348
   0.47797410  0.22414488  0.18013848
   0.73103175  0.39830543  0.19894810
   0.31048114  0.58114855  0.17963286
   0.64702246  0.25127258  0.13383189
   0.40255426  0.39361274  0.22109807
   0.81857601  0.89004899  0.05642066
   0.73400426  0.72628351  0.12422347
   0.97951264  0.89583236  0.08016876
   0.06862525  0.07720542  0.09424325
   0.90554334  0.74274731  0.14731072
   0.65493885  0.89365357  0.07679073
   0.31804514  0.89462779  0.05391328
   0.22737221  0.72168353  0.10079663
   0.47524637  0.90422255  0.09504085
   0.56641846  0.08153168  0.10999009
   0.38605742  0.76100555  0.16311867
   0.15475985  0.88946727  0.05275157
   0.98794789  0.43875375  0.24710647
   0.89992329  0.26967220  0.19554152
   0.15784718  0.43325780  0.24238508
   0.14780646  0.14338278  0.08014243
   0.98655984  0.10778336  0.13640745
   0.22924114  0.31529449  0.12519888
   0.06740973  0.28595045  0.16894716
   0.82274750  0.45485018  0.21003610
   0.48420077  0.44559410  0.25070368
   0.39655643  0.27664410  0.20637055
   0.65736627  0.43405424  0.25427551
   0.64440594  0.14549566  0.09369656
   0.48278876  0.11304311  0.15088219
   0.72561697  0.31812168  0.13444487
   0.56436971  0.29118814  0.18004524
   0.31883974  0.46076925  0.20320340
   0.73256512  0.94249892  0.03971892
   0.64875680  0.78331851  0.11254611
   0.90339181  0.93468419  0.03192131
   0.90669406  0.63779786  0.18765973
   0.73592852  0.61680367  0.15911023
   0.98320564  0.81202276  0.14174012
   0.81850106  0.78340898  0.10665826
   0.56794442  0.96020892  0.08509413
   0.23724433  0.94475151  0.02667145
   0.14806947  0.77192389  0.06830206
   0.40818659  0.93544375  0.03649664
   0.37821648  0.65841844  0.20853184
   0.23528426  0.60891057  0.12866388
   0.46511466  0.83032745  0.16577861
   0.31103928  0.79310654  0.10891661
   0.06989300  0.95729201  0.06510172
   0.57699846  0.77984543  0.24091138
   0.66167646  0.60795181  0.29976470
   0.48453146  0.61650690  0.29579731
slab_Cel1-OPT                           
           1
    13.758418    0.000000    0.000000
     0.000000   11.252291    0.000000
     0.000000    0.000000   15.000000
   C    N    Cu   Pd
    24    32     1     2
Direct configuration=     4
   0.07054734  0.38813896  0.22217809
   0.98157411  0.21860594  0.16791167
   0.22873804  0.39674822  0.18892258
   0.82515254  0.57580536  0.18467321
   0.14967291  0.24680137  0.12286819
   0.90733786  0.38458203  0.21801416
   0.56868236  0.39205312  0.23126857
   0.47790187  0.22398613  0.18010708
   0.73085513  0.39812282  0.19887917
   0.31013621  0.58094254  0.17950808
   0.64670170  0.25075495  0.13358287
   0.40228299  0.39313950  0.22096019
   0.81814302  0.89008079  0.05644159
   0.73362269  0.72607640  0.12426909
   0.97950723  0.89596881  0.08001386
   0.06865124  0.07719317  0.09417415
   0.90541349  0.74260935  0.14744511
   0.65482931  0.89353894  0.07682440
   0.31820462  0.89466587  0.05397514
   0.22732494  0.72161667  0.10080011
   0.47528049  0.90443216  0.09494192
   0.56607533  0.08116013  0.10992547
   0.38572564  0.76080962  0.16299989
   0.15477715  0.88971583  0.05268540
   0.98790241  0.43880773  0.24710085
   0.89993152  0.26956858  0.19556371
   0.15772919  0.43322521  0.24241688
   0.14782115  0.14348910  0.08014633
   0.98653758  0.10788372  0.13645664
   0.22920175  0.31520356  0.12511726
   0.06740593  0.28598491  0.16899611
   0.82299563  0.45480488  0.21003473
   0.48433626  0.44543507  0.25064579
   0.39643664  0.27637704  0.20639738
   0.65756582  0.43363123  0.25435654
   0.64467681  0.14603679  0.09371451
   0.48282935  0.11305624  0.15089409
   0.72580607  0.31823230  0.13442573
   0.56450949  0.29098948  0.17983183
   0.31861608  0.46066145  0.20315681
   0.73282122  0.94261973  0.03963322
   0.64889101  0.78332774  0.11256620
   0.90358939  0.93474438  0.03200517
   0.90706463  0.63803050  0.18777870
   0.73611650  0.61657270  0.15919036
   0.98324956  0.81182625  0.14169394
   0.81897987  0.78367031  0.10665212
   0.56798133  0.96040573  0.08500093
   0.23708846  0.94481129  0.02670963
   0.14812218  0.77171197  0.06829789
   0.40820787  0.93528820  0.03654016
   0.37792709  0.65887453  0.20848344
   0.23492773  0.60899661  0.12839943
   0.46502481  0.83036647  0.16587233
   0.31098411  0.79338584  0.10868420
   0.06983410  0.95724652  0.06505267
   0.57691188  0.78098084  0.24052375
   0.66387226  0.60851026  0.30064123
   0.48412696  0.61678355  0.29682713
slab_Cel1-OPT                           
           1
    13.757968    0.000000    0.000000
     0.000000   11.246933    0.000000
     0.000000    0.000000   15.000000
   C    N    Cu   Pd
    24    32     1     2
Direct configuration=     5
   0.07063510  0.38821132  0.22218629
   0.98157112  0.21853555  0.16789055
   0.22879284  0.39676177  0.18890230
   0.82480054  0.57576063  0.18474153
   0.14972092  0.24676690  0.12282932
   0.90733610  0.38455132  0.21800790
   0.56858570  0.39184677  0.23118468
   0.47785696  0.22388734  0.18008755
   0.73074530  0.39800919  0.19883630
   0.30992171  0.58081434  0.17943049
   0.64650224  0.25043283  0.13342802
   0.40211430  0.39284500  0.22087446
   0.81787377  0.89010058  0.05645461
   0.73338541  0.72594752  0.12429746
   0.97950386  0.89605373  0.07991754
   0.06866740  0.07718554  0.09413118
   0.90533275  0.74252351  0.14752868
   0.65476120  0.89346760  0.07684533
   0.31830379  0.89468956  0.05401361
   0.22729554  0.72157507  0.10080227
   0.47530170  0.90456260  0.09488040
   0.56586195  0.08092891  0.10988529
   0.38551932  0.76068769  0.16292603
   0.15478791  0.88987052  0.05264425
   0.98787413  0.43884133  0.24709736
   0.89993663  0.26950410  0.19557750
   0.15765581  0.43320492  0.24243665
   0.14783028  0.14355527  0.08014875
   0.98652375  0.10794617  0.13648722
   0.22917726  0.31514698  0.12506650
   0.06740356  0.28600635  0.16902655
   0.82314994  0.45477668  0.21003388
   0.48442052  0.44533610  0.25060979
   0.39636215  0.27621085  0.20641407
   0.65768992  0.43336799  0.25440693
   0.64484525  0.14637353  0.09372566
   0.48285460  0.11306441  0.15090149
   0.72592366  0.31830113  0.13441384
   0.56459641  0.29086586  0.17969913
   0.31847699  0.46059436  0.20312784
   0.73298049  0.94269491  0.03957992
   0.64897447  0.78333349  0.11257870
   0.90371225  0.93478184  0.03205731
   0.90729507  0.63817528  0.18785267
   0.73623340  0.61642896  0.15924018
   0.98327687  0.81170397  0.14166523
   0.81927762  0.78383293  0.10664830
   0.56800428  0.96052821  0.08494297
   0.23699153  0.94484849  0.02673336
   0.14815496  0.77158010  0.06829529
   0.40822110  0.93519141  0.03656722
   0.37774714  0.65915835  0.20845334
   0.23470603  0.60905015  0.12823498
   0.46496894  0.83039075  0.16593061
   0.31094981  0.79355964  0.10853969
   0.06979747  0.95721821  0.06502217
   0.57685803  0.78168739  0.24028272
   0.66523772  0.60885779  0.30118628
   0.48387543  0.61695570  0.29746748
slab_Cel1-OPT                           
           1
    13.746417    0.000000    0.000000
     0.000000   11.242050    0.000000
     0.000000    0.000000   15.000000
   C    N    Cu   Pd
    24    32     1     2
Direct configuration=     6
   0.07051682  0.38833157  0.22221596
   0.98156061  0.21856503  0.16791882
   0.22866189  0.39663655  0.18887407
   0.82478234  0.57586632  0.18499036
   0.14967730  0.24677074  0.12281582
   0.90753416  0.38441694  0.21802776
   0.56868977  0.39171574  0.23113685
   0.47770419  0.22376891  0.18007620
   0.73048711  0.39756212  0.19877762
   0.30951943  0.58087731  0.17924274
   0.64650957  0.25058210  0.13330316
   0.40205129  0.39255940  0.22078767
   0.81809508  0.89014343  0.05650682
   0.73345944  0.72560156  0.12445651
   0.97935473  0.89586971  0.07986294
   0.06861017  0.07718589  0.09407248
   0.90536404  0.74268432  0.14756302
   0.65484330  0.89350654  0.07669270
   0.31824094  0.89490042  0.05392502
   0.22708722  0.72173405  0.10066083
   0.47522903  0.90445812  0.09494933
   0.56581296  0.08086019  0.10976604
   0.38525799  0.76073685  0.16276132
   0.15482012  0.88984140  0.05259428
   0.98790028  0.43893353  0.24710119
   0.89992452  0.26927148  0.19561164
   0.15776410  0.43324391  0.24246401
   0.14784946  0.14350782  0.08005426
   0.98656691  0.10782162  0.13644946
   0.22923662  0.31518570  0.12499388
   0.06748368  0.28601463  0.16902281
   0.82314163  0.45482031  0.21000812
   0.48450658  0.44549744  0.25054033
   0.39612679  0.27543351  0.20639954
   0.65782566  0.43294044  0.25459963
   0.64479649  0.14605285  0.09351433
   0.48287882  0.11276048  0.15081207
   0.72599680  0.31829367  0.13425587
   0.56456080  0.29051705  0.17935262
   0.31822036  0.46044225  0.20305146
   0.73282365  0.94289786  0.03950843
   0.64893590  0.78337161  0.11260562
   0.90368819  0.93492855  0.03207944
   0.90724223  0.63785823  0.18814610
   0.73620935  0.61635549  0.15925198
   0.98343876  0.81162901  0.14156605
   0.81923879  0.78391403  0.10667626
   0.56806011  0.96073055  0.08478756
   0.23700678  0.94504985  0.02676851
   0.14813485  0.77152213  0.06820500
   0.40821221  0.93517620  0.03646458
   0.37761052  0.65923474  0.20864600
   0.23424060  0.60876783  0.12795668
   0.46476194  0.83059558  0.16592016
   0.31086217  0.79378978  0.10827686
   0.06979228  0.95736967  0.06491408
   0.57681659  0.78263465  0.23994257
   0.66738569  0.60989900  0.30231489
   0.48405128  0.61745272  0.29893734
slab_Cel1-OPT                           
           1
    13.734204    0.000000    0.000000
     0.000000   11.236886    0.000000
     0.000000    0.000000   15.000000
   C    N    Cu   Pd
    24    32     1     2
Direct configuration=     7
   0.07039166  0.38845877  0.22224733
   0.98154949  0.21859621  0.16794872
   0.22852331  0.39650410  0.18884421
   0.82476309  0.57597812  0.18525346
   0.14963114  0.24677479  0.12280155
   0.90774375  0.38427479  0.21804876
   0.56879989  0.39157714  0.23108627
   0.47754252  0.22364364  0.18006420
   0.73021388  0.39708921  0.19871557
   0.30909373  0.58094392  0.17904422
   0.64651733  0.25073999  0.13317114
   0.40198461  0.39225729  0.22069590
   0.81832928  0.89018876  0.05656203
   0.73353777  0.72523559  0.12462468
   0.97919691  0.89567506  0.07980521
   0.06854962  0.07718626  0.09401040
   0.90539715  0.74285443  0.14759933
   0.65493019  0.89354773  0.07653131
   0.31817443  0.89512348  0.05383135
   0.22686676  0.72190223  0.10051128
   0.47515214  0.90434760  0.09502221
   0.56576111  0.08078750  0.10963996
   0.38498144  0.76078885  0.16258718
   0.15485420  0.88981061  0.05254145
   0.98792796  0.43903106  0.24710524
   0.89991169  0.26902541  0.19564773
   0.15787870  0.43328515  0.24249293
   0.14786976  0.14345763  0.07995436
   0.98661259  0.10768987  0.13640953
   0.22929943  0.31522665  0.12491708
   0.06756846  0.28602339  0.16901885
   0.82313284  0.45486646  0.20998090
   0.48459765  0.44566811  0.25046689
   0.39587772  0.27461123  0.20638417
   0.65796930  0.43248817  0.25480339
   0.64474489  0.14571364  0.09329087
   0.48290446  0.11243898  0.15071752
   0.72607421  0.31828577  0.13408884
   0.56452312  0.29014807  0.17898624
   0.31794877  0.46028135  0.20297070
   0.73265769  0.94311254  0.03943283
   0.64889509  0.78341192  0.11263408
   0.90366273  0.93508375  0.03210285
   0.90718631  0.63752286  0.18845636
   0.73618391  0.61627778  0.15926445
   0.98361007  0.81154973  0.14146119
   0.81919769  0.78399982  0.10670583
   0.56811919  0.96094458  0.08462325
   0.23702291  0.94526284  0.02680567
   0.14811357  0.77146080  0.06810953
   0.40820280  0.93516011  0.03635606
   0.37746594  0.65931556  0.20884972
   0.23374807  0.60846920  0.12766242
   0.46454289  0.83081226  0.16590911
   0.31076943  0.79403322  0.10799896
   0.06978680  0.95752988  0.06479979
   0.57677273  0.78363668  0.23958290
   0.66965876  0.61100040  0.30350823
   0.48423736  0.61797847  0.30049150
slab_Cel1-OPT                           
           1
    13.723598    0.000000    0.000000
     0.000000   11.229246    0.000000
     0.000000    0.000000   15.000000
   C    N    Cu   Pd
    24    32     1     2
Direct configuration=     8
   0.07057569  0.38850471  0.22226176
   0.98170354  0.21835777  0.16790463
   0.22840099  0.39631353  0.18878047
   0.82504002  0.57579496  0.18569264
   0.14966398  0.24673215  0.12270634
   0.90753962  0.38427974  0.21805649
   0.56883627  0.39159794  0.23110625
   0.47754062  0.22288764  0.17982295
   0.73038498  0.39703879  0.19893014
   0.30890891  0.58108852  0.17901358
   0.64663685  0.25039682  0.13274266
   0.40210278  0.39221733  0.22068554
   0.81825935  0.89039704  0.05654153
   0.73366867  0.72546699  0.12462209
   0.97944227  0.89563440  0.07974992
   0.06856116  0.07718714  0.09389487
   0.90551254  0.74256031  0.14781008
   0.65497275  0.89359594  0.07635095
   0.31810797  0.89541288  0.05357971
   0.22676338  0.72175457  0.10035334
   0.47507962  0.90436809  0.09495917
   0.56595329  0.08096105  0.10946887
   0.38489686  0.76082054  0.16265195
   0.15475115  0.88986928  0.05243735
   0.98795011  0.43919578  0.24719792
   0.89981435  0.26889539  0.19579913
   0.15778670  0.43332367  0.24259719
   0.14791255  0.14345501  0.07980188
   0.98652409  0.10759586  0.13643913
   0.22931581  0.31521556  0.12477030
   0.06751241  0.28607125  0.16904805
   0.82293245  0.45445956  0.20997173
   0.48456850  0.44575923  0.25020760
   0.39542453  0.27416699  0.20657404
   0.65806575  0.43206801  0.25506926
   0.64472895  0.14552997  0.09300038
   0.48272914  0.11202177  0.15066582
   0.72600247  0.31803889  0.13362682
   0.56429004  0.29037130  0.17882180
   0.31798172  0.46019393  0.20283987
   0.73280182  0.94321824  0.03930070
   0.64881625  0.78338949  0.11268961
   0.90354530  0.93532272  0.03203810
   0.90706634  0.63774729  0.18864985
   0.73584914  0.61614259  0.15932417
   0.98379604  0.81141893  0.14138819
   0.81897220  0.78377325  0.10689206
   0.56796908  0.96057285  0.08439305
   0.23692279  0.94569343  0.02674198
   0.14766782  0.77181376  0.06774765
   0.40830585  0.93527921  0.03613060
   0.37731378  0.65913215  0.20897307
   0.23332826  0.60829578  0.12734987
   0.46419948  0.83106766  0.16594085
   0.31056571  0.79378244  0.10785859
   0.06973712  0.95739708  0.06460844
   0.57685031  0.78415155  0.23934875
   0.67164442  0.61254086  0.30486214
   0.48496633  0.61874984  0.30238579
slab_Cel1-OPT                           
           1
    13.718420    0.000000    0.000000
     0.000000   11.225516    0.000000
     0.000000    0.000000   15.000000
   C    N    Cu   Pd
    24    32     1     2
Direct configuration=     9
   0.07066560  0.38852715  0.22226880
   0.98177881  0.21824128  0.16788311
   0.22834122  0.39622043  0.18874935
   0.82517531  0.57570548  0.18590704
   0.14968003  0.24671131  0.12265985
   0.90743989  0.38428216  0.21806026
   0.56885404  0.39160810  0.23111600
   0.47753970  0.22251831  0.17970517
   0.73046858  0.39701416  0.19903489
   0.30881861  0.58115916  0.17899862
   0.64669524  0.25022917  0.13253347
   0.40216051  0.39219781  0.22068048
   0.81822519  0.89049879  0.05653153
   0.73373263  0.72558003  0.12462083
   0.97956214  0.89561454  0.07972293
   0.06856679  0.07718757  0.09383847
   0.90556891  0.74241663  0.14791297
   0.65499354  0.89361950  0.07626290
   0.31807550  0.89555426  0.05345686
   0.22671287  0.72168243  0.10027623
   0.47504419  0.90437810  0.09492839
   0.56604718  0.08104584  0.10938535
   0.38485554  0.76083602  0.16268358
   0.15470080  0.88989794  0.05238653
   0.98796094  0.43927625  0.24724317
   0.89976680  0.26883186  0.19587304
   0.15774176  0.43334249  0.24264810
   0.14793345  0.14345373  0.07972743
   0.98648085  0.10754993  0.13645358
   0.22932381  0.31521014  0.12469864
   0.06748502  0.28609462  0.16906231
   0.82283455  0.45426077  0.20996725
   0.48455426  0.44580375  0.25008101
   0.39520311  0.27394996  0.20666673
   0.65811286  0.43186275  0.25519906
   0.64472117  0.14544024  0.09285857
   0.48264349  0.11181795  0.15064059
   0.72596742  0.31791829  0.13340126
   0.56417616  0.29048036  0.17874152
   0.31799782  0.46015122  0.20277600
   0.73287225  0.94326988  0.03923620
   0.64877774  0.78337853  0.11271673
   0.90348793  0.93543947  0.03200649
   0.90700773  0.63785693  0.18874432
   0.73568558  0.61607655  0.15935332
   0.98388690  0.81135503  0.14135255
   0.81886202  0.78366257  0.10698297
   0.56789574  0.96039124  0.08428066
   0.23687388  0.94590379  0.02671088
   0.14745004  0.77198620  0.06757098
   0.40835620  0.93533740  0.03602053
   0.37723943  0.65904255  0.20903329
   0.23312315  0.60821107  0.12719728
   0.46403170  0.83119244  0.16595635
   0.31046618  0.79365992  0.10779006
   0.06971285  0.95733220  0.06451503
   0.57688821  0.78440307  0.23923444
   0.67261457  0.61329342  0.30552311
   0.48532248  0.61912668  0.30331058
slab_Cel1-OPT                           
           1
    13.710673    0.000000    0.000000
     0.000000   11.216089    0.000000
     0.000000    0.000000   15.000000
   C    N    Cu   Pd
    24    32     1     2
Direct configuration=    10
   0.07049402  0.38848744  0.22232404
   0.98165396  0.21827619  0.16803274
   0.22846937  0.39626103  0.18876862
   0.82474737  0.57549709  0.18622479
   0.14969215  0.24670759  0.12253090
   0.90726851  0.38420636  0.21814485
   0.56875500  0.39169034  0.23111551
   0.47709844  0.22249915  0.17977403
   0.73050784  0.39665701  0.19900950
   0.30882939  0.58105525  0.17909643
   0.64672323  0.25025792  0.13225250
   0.40221646  0.39204123  0.22064062
   0.81811582  0.89054357  0.05655524
   0.73355703  0.72569282  0.12467419
   0.97969023  0.89563809  0.07959899
   0.06854938  0.07707671  0.09368071
   0.90564893  0.74240141  0.14798040
   0.65486703  0.89341093  0.07616293
   0.31797634  0.89564223  0.05322111
   0.22626043  0.72157519  0.09985639
   0.47492061  0.90449833  0.09467887
   0.56599233  0.08056763  0.10912460
   0.38468087  0.76058977  0.16296273
   0.15453792  0.89021768  0.05215169
   0.98785923  0.43932239  0.24730020
   0.89980464  0.26866810  0.19603202
   0.15786635  0.43334667  0.24272997
   0.14793888  0.14344958  0.07953010
   0.98645238  0.10727268  0.13641427
   0.22926297  0.31515449  0.12449901
   0.06751750  0.28600552  0.16898993
   0.82286476  0.45387806  0.21007851
   0.48463758  0.44614102  0.24985353
   0.39518320  0.27388405  0.20693115
   0.65827764  0.43166821  0.25546763
   0.64483685  0.14530202  0.09240105
   0.48259641  0.11109653  0.15044067
   0.72595600  0.31806306  0.13312867
   0.56403538  0.29061523  0.17852709
   0.31815135  0.46027284  0.20258279
   0.73293978  0.94332644  0.03905618
   0.64870236  0.78354533  0.11266969
   0.90360027  0.93555129  0.03202182
   0.90711448  0.63805658  0.18906743
   0.73558884  0.61587666  0.15964046
   0.98398065  0.81116957  0.14131997
   0.81904570  0.78367065  0.10711596
   0.56782890  0.96013148  0.08404254
   0.23673932  0.94640046  0.02655641
   0.14720715  0.77204775  0.06719821
   0.40841463  0.93546809  0.03572886
   0.37731876  0.65890215  0.20907479
   0.23302252  0.60813574  0.12710091
   0.46380525  0.83144504  0.16612782
   0.31036735  0.79329518  0.10770815
   0.06964411  0.95733367  0.06430203
   0.57709770  0.78424343  0.23916127
   0.67397309  0.61497864  0.30670269
   0.48627624  0.61987982  0.30511344
slab_Cel1-OPT                           
           1
    13.706284    0.000000    0.000000
     0.000000   11.210748    0.000000
     0.000000    0.000000   15.000000
   C    N    Cu   Pd
    24    32     1     2
Direct configuration=    11
   0.07039676  0.38846492  0.22235533
   0.98158318  0.21829599  0.16811751
   0.22854201  0.39628405  0.18877954
   0.82450479  0.57537893  0.18640481
   0.14969902  0.24670548  0.12245785
   0.90717135  0.38416338  0.21819278
   0.56869887  0.39173697  0.23111523
   0.47684830  0.22248828  0.17981305
   0.73053010  0.39645451  0.19899511
   0.30883551  0.58099633  0.17915184
   0.64673910  0.25027421  0.13209333
   0.40224818  0.39195245  0.22061804
   0.81805383  0.89056895  0.05656868
   0.73345749  0.72575677  0.12470442
   0.97976283  0.89565144  0.07952878
   0.06853950  0.07701385  0.09359134
   0.90569429  0.74239278  0.14801860
   0.65479531  0.89329267  0.07610630
   0.31792013  0.89569211  0.05308755
   0.22600396  0.72151438  0.09961853
   0.47485057  0.90456651  0.09453751
   0.56596125  0.08029648  0.10897688
   0.38458185  0.76045014  0.16312087
   0.15444559  0.89039897  0.05201864
   0.98780157  0.43934855  0.24733252
   0.89982609  0.26857524  0.19612209
   0.15793698  0.43334905  0.24277636
   0.14794196  0.14344723  0.07941830
   0.98643624  0.10711547  0.13639201
   0.22922849  0.31512293  0.12438592
   0.06753592  0.28595500  0.16894892
   0.82288189  0.45366106  0.21014154
   0.48468481  0.44633226  0.24972465
   0.39517192  0.27384667  0.20708096
   0.65837104  0.43155791  0.25561978
   0.64490243  0.14522365  0.09214186
   0.48256972  0.11068748  0.15032741
   0.72594953  0.31814515  0.13297424
   0.56395557  0.29069171  0.17840561
   0.31823838  0.46034180  0.20247333
   0.73297806  0.94335851  0.03895419
   0.64865964  0.78363990  0.11264304
   0.90366395  0.93561470  0.03203051
   0.90717499  0.63816979  0.18925048
   0.73553400  0.61576333  0.15980313
   0.98403379  0.81106441  0.14130152
   0.81914982  0.78367524  0.10719130
   0.56779101  0.95998420  0.08390764
   0.23666304  0.94668208  0.02646889
   0.14706947  0.77208265  0.06698702
   0.40844775  0.93554219  0.03556362
   0.37736373  0.65882254  0.20909831
   0.23296548  0.60809302  0.12704632
   0.46367689  0.83158827  0.16622496
   0.31031133  0.79308837  0.10766175
   0.06960514  0.95733451  0.06418136
   0.57721644  0.78415292  0.23911981
   0.67474317  0.61593419  0.30737096
   0.48681688  0.62030686  0.30613482
slab_Cel1-OPT                           
           1
    13.700551    0.000000    0.000000
     0.000000   11.197335    0.000000
     0.000000    0.000000   15.000000
   C    N    Cu   Pd
    24    32     1     2
Direct configuration=    12
   0.07034115  0.38840783  0.22241916
   0.98155437  0.21798811  0.16817887
   0.22871731  0.39634220  0.18869338
   0.82428341  0.57559649  0.18676534
   0.14962099  0.24667975  0.12227867
   0.90722263  0.38400482  0.21841340
   0.56886762  0.39192437  0.23106868
   0.47664882  0.22209551  0.17973590
   0.73022205  0.39598523  0.19901473
   0.30886259  0.58106838  0.17914275
   0.64641761  0.25028073  0.13181565
   0.40231680  0.39239835  0.22066830
   0.81831500  0.89047538  0.05662525
   0.73338417  0.72538265  0.12499240
   0.97958963  0.89542053  0.07949715
   0.06844202  0.07709302  0.09343749
   0.90567715  0.74249273  0.14802062
   0.65471712  0.89327488  0.07582581
   0.31781340  0.89549364  0.05294440
   0.22572238  0.72123509  0.09921315
   0.47458854  0.90435596  0.09446054
   0.56587882  0.07985705  0.10862948
   0.38432918  0.76040328  0.16330145
   0.15435071  0.89067416  0.05160121
   0.98758134  0.43927406  0.24739133
   0.89972688  0.26836925  0.19638976
   0.15806951  0.43319982  0.24282090
   0.14785995  0.14335017  0.07912122
   0.98642117  0.10695875  0.13641502
   0.22928663  0.31535078  0.12428713
   0.06746707  0.28588590  0.16891001
   0.82290237  0.45351450  0.21033263
   0.48477509  0.44699850  0.24954715
   0.39521002  0.27382108  0.20748509
   0.65857254  0.43135936  0.25575289
   0.64491470  0.14522257  0.09164674
   0.48248081  0.11056783  0.15029122
   0.72602632  0.31856644  0.13275718
   0.56384290  0.29056980  0.17808527
   0.31844374  0.46020673  0.20225851
   0.73268888  0.94324396  0.03879004
   0.64858456  0.78358285  0.11257977
   0.90379120  0.93557747  0.03207191
   0.90692884  0.63776508  0.18977164
   0.73530256  0.61594425  0.16013565
   0.98427979  0.81118702  0.14117481
   0.81921039  0.78389303  0.10721216
   0.56785844  0.95974122  0.08353647
   0.23664747  0.94706878  0.02628199
   0.14683347  0.77208473  0.06640930
   0.40820718  0.93556214  0.03512622
   0.37778136  0.65846156  0.20931016
   0.23307465  0.60796371  0.12717031
   0.46356132  0.83197444  0.16638848
   0.31022975  0.79305333  0.10739714
   0.06954918  0.95751343  0.06388925
   0.57750784  0.78349779  0.23910453
   0.67586478  0.61784389  0.30853236
   0.48779472  0.62098502  0.30805959
slab_Cel1-OPT                           
           1
    13.699430    0.000000    0.000000
     0.000000   11.194714    0.000000
     0.000000    0.000000   15.000000
   C    N    Cu   Pd