  58  58   0   0
  0.4559061E+02  0.1426590E-08  0.1235700E-08  0.1500000E-08  0.1000000E-15
  1.000000000000000E-004
  CAR 
 slab_Cel1-OPT                           
      3.97765853    -28.00395336  301     -2.53085314      1.00000000
    -28.004  0.0000E+00  0.0000E+00
    -27.897  0.0000E+00  0.0000E+00
    -27.791  0.0000E+00  0.0000E+00
    -27.684  0.0000E+00  0.0000E+00
    -27.578  0.0000E+00  0.0000E+00
    -27.471  0.0000E+00  0.0000E+00
    -27.364  0.0000E+00  0.0000E+00
    -27.258  0.0000E+00  0.0000E+00
    -27.151  0.0000E+00  0.0000E+00
    -27.045  0.8501E-14  0.9062E-15
    -26.938  0.1442E-09  0.1537E-10
    -26.831  0.2802E-06  0.2988E-07
    -26.725  0.6583E-04  0.7048E-05
    -26.618  0.2043E-02  0.2248E-03
    -26.511  0.1001E-01  0.1292E-02
    -26.405  0.1385E-01  0.2768E-02
    -26.298  0.1493E-01  0.4359E-02
    -26.192  0.1844E-01  0.6325E-02
    -26.085  0.1308E-01  0.7720E-02
    -25.978  0.2537E-02  0.7990E-02
    -25.872  0.9285E-04  0.8000E-02
    -25.765  0.4871E-06  0.8000E-02
    -25.659  0.2447E-06  0.8000E-02
    -25.552  0.4974E-04  0.8005E-02
    -25.445  0.1397E-02  0.8154E-02
    -25.339  0.7010E-02  0.8902E-02
    -25.232  0.1236E-01  0.1022E-01
    -25.126  0.1420E-01  0.1173E-01
    -25.019  0.1022E-01  0.1282E-01
    -24.912  0.9925E-02  0.1388E-01
    -24.806  0.9498E-02  0.1489E-01
    -24.699  0.4924E-02  0.1542E-01
    -24.593  0.7454E-03  0.1550E-01
    -24.486  0.5878E-04  0.1550E-01
    -24.379  0.9483E-03  0.1561E-01
    -24.273  0.5600E-02  0.1620E-01
    -24.166  0.1698E-01  0.1801E-01
    -24.060  0.2464E-01  0.2064E-01
    -23.953  0.2208E-01  0.2299E-01
    -23.846  0.1230E-01  0.2430E-01
    -23.740  0.1792E-02  0.2450E-01
    -23.633  0.1094E-03  0.2451E-01
    -23.527  0.1880E-02  0.2471E-01
    -23.420  0.8304E-02  0.2559E-01
    -23.313  0.8632E-02  0.2651E-01
    -23.207  0.7560E-02  0.2732E-01
    -23.100  0.1154E-01  0.2855E-01
    -22.994  0.1349E-01  0.2999E-01
    -22.887  0.1148E-01  0.3121E-01
    -22.780  0.6059E-02  0.3186E-01
    -22.674  0.1275E-02  0.3199E-01
    -22.567  0.6207E-04  0.3200E-01
    -22.460  0.4773E-04  0.3201E-01
    -22.354  0.1616E-02  0.3218E-01
    -22.247  0.1136E-01  0.3339E-01
    -22.141  0.2790E-01  0.3636E-01
    -22.034  0.3417E-01  0.4001E-01
    -21.927  0.2953E-01  0.4315E-01
    -21.821  0.2809E-01  0.4615E-01
    -21.714  0.1545E-01  0.4780E-01
    -21.608  0.1887E-02  0.4800E-01
    -21.501  0.3109E-03  0.4803E-01
    -21.394  0.3897E-02  0.4845E-01
    -21.288  0.1194E-01  0.4972E-01
    -21.181  0.1705E-01  0.5154E-01
    -21.075  0.2193E-01  0.5387E-01
    -20.968  0.1541E-01  0.5552E-01
    -20.861  0.4858E-02  0.5603E-01
    -20.755  0.6954E-02  0.5678E-01
    -20.648  0.1508E-01  0.5838E-01
    -20.542  0.1745E-01  0.6024E-01
    -20.435  0.1781E-01  0.6214E-01
    -20.328  0.1326E-01  0.6356E-01
    -20.222  0.3913E-02  0.6397E-01
    -20.115  0.2531E-03  0.6400E-01
    -20.009  0.2497E-05  0.6400E-01
    -19.902  0.3119E-08  0.6400E-01
    -19.795  0.4502E-12  0.6400E-01
    -19.689  0.7290E-17  0.6400E-01
    -19.582  0.0000E+00  0.6400E-01
    -19.476  0.0000E+00  0.6400E-01
    -19.369  0.0000E+00  0.6400E-01
    -19.262  0.0000E+00  0.6400E-01
    -19.156  0.0000E+00  0.6400E-01
    -19.049  0.0000E+00  0.6400E-01
    -18.942  0.0000E+00  0.6400E-01
    -18.836  0.0000E+00  0.6400E-01
    -18.729  0.0000E+00  0.6400E-01
    -18.623  0.0000E+00  0.6400E-01
    -18.516  0.0000E+00  0.6400E-01
    -18.409  0.0000E+00  0.6400E-01
    -18.303  0.1795E-14  0.6400E-01
    -18.196  0.3818E-10  0.6400E-01
    -18.090  0.9108E-07  0.6400E-01
    -17.983  0.2555E-04  0.6400E-01
    -17.876  0.9260E-03  0.6410E-01
    -17.770  0.5501E-02  0.6469E-01
    -17.663  0.1063E-01  0.6582E-01
    -17.557  0.1312E-01  0.6722E-01
    -17.450  0.1168E-01  0.6846E-01
    -17.343  0.1653E-01  0.7023E-01
    -17.237  0.2126E-01  0.7249E-01
    -17.130  0.1779E-01  0.7439E-01
    -17.024  0.1726E-01  0.7623E-01
    -16.917  0.1566E-01  0.7790E-01
    -16.810  0.8796E-02  0.7884E-01
    -16.704  0.3398E-02  0.7920E-01
    -16.597  0.3586E-02  0.7958E-01
    -16.491  0.3044E-02  0.7991E-01
    -16.384  0.8466E-03  0.8000E-01
    -16.277  0.3812E-04  0.8000E-01
    -16.171  0.2619E-05  0.8000E-01
    -16.064  0.2656E-03  0.8003E-01
    -15.958  0.4383E-02  0.8050E-01
    -15.851  0.1621E-01  0.8222E-01
    -15.744  0.2551E-01  0.8494E-01
    -15.638  0.1862E-01  0.8693E-01
    -15.531  0.5575E-02  0.8752E-01
    -15.425  0.2748E-02  0.8782E-01
    -15.318  0.1964E-02  0.8803E-01
    -15.211  0.3505E-02  0.8840E-01
    -15.105  0.4606E-02  0.8889E-01
    -14.998  0.1348E-02  0.8903E-01
    -14.891  0.2234E-02  0.8927E-01
    -14.785  0.3454E-02  0.8964E-01
    -14.678  0.5467E-02  0.9022E-01
    -14.572  0.1014E-01  0.9130E-01
    -14.465  0.1547E-01  0.9295E-01
    -14.358  0.1815E-01  0.9489E-01
    -14.252  0.1845E-01  0.9685E-01
    -14.145  0.2056E-01  0.9905E-01
    -14.039  0.2506E-01  0.1017E+00
    -13.932  0.2187E-01  0.1040E+00
    -13.825  0.2747E-01  0.1070E+00
    -13.719  0.2930E-01  0.1101E+00
    -13.612  0.2044E-01  0.1123E+00
    -13.506  0.1195E-01  0.1136E+00
    -13.399  0.6973E-02  0.1143E+00
    -13.292  0.5201E-02  0.1149E+00
    -13.186  0.6873E-02  0.1156E+00
    -13.079  0.1087E-01  0.1167E+00
    -12.973  0.1101E-01  0.1179E+00
    -12.866  0.4946E-02  0.1184E+00
    -12.759  0.5219E-03  0.1185E+00
    -12.653  0.1531E-03  0.1185E+00
    -12.546  0.1707E-02  0.1187E+00
    -12.440  0.5725E-02  0.1193E+00
    -12.333  0.1730E-01  0.1212E+00
    -12.226  0.2709E-01  0.1240E+00
    -12.120  0.2381E-01  0.1266E+00
    -12.013  0.1539E-01  0.1282E+00
    -11.907  0.1415E-01  0.1297E+00
    -11.800  0.1760E-01  0.1316E+00
    -11.693  0.1627E-01  0.1333E+00
    -11.587  0.1528E-01  0.1350E+00
    -11.480  0.1856E-01  0.1369E+00
    -11.374  0.1648E-01  0.1387E+00
    -11.267  0.8873E-02  0.1396E+00
    -11.160  0.8986E-02  0.1406E+00
    -11.054  0.1112E-01  0.1418E+00
    -10.947  0.1074E-01  0.1429E+00
    -10.840  0.7185E-02  0.1437E+00
    -10.734  0.9596E-02  0.1447E+00
    -10.627  0.1251E-01  0.1461E+00
    -10.521  0.1565E-01  0.1477E+00
    -10.414  0.1607E-01  0.1494E+00
    -10.307  0.1586E-01  0.1511E+00
    -10.201  0.1399E-01  0.1526E+00
    -10.094  0.1048E-01  0.1537E+00
     -9.988  0.5341E-02  0.1543E+00
     -9.881  0.1517E-01  0.1559E+00
     -9.774  0.2354E-01  0.1584E+00
     -9.668  0.1673E-01  0.1602E+00
     -9.561  0.1314E-01  0.1616E+00
     -9.455  0.1621E-01  0.1633E+00
     -9.348  0.2319E-01  0.1658E+00
     -9.241  0.2538E-01  0.1685E+00
     -9.135  0.1249E-01  0.1699E+00
     -9.028  0.1302E-02  0.1700E+00
     -8.922  0.1385E-03  0.1700E+00
     -8.815  0.1500E-02  0.1702E+00
     -8.708  0.4510E-02  0.1707E+00
     -8.602  0.1037E-01  0.1718E+00
     -8.495  0.1499E-01  0.1734E+00
     -8.389  0.1283E-01  0.1747E+00
     -8.282  0.1414E-01  0.1762E+00
     -8.175  0.1783E-01  0.1781E+00
     -8.069  0.1307E-01  0.1795E+00
     -7.962  0.4097E-02  0.1800E+00
     -7.856  0.3059E-02  0.1803E+00
     -7.749  0.1513E-01  0.1819E+00
     -7.642  0.3075E-01  0.1852E+00
     -7.536  0.3557E-01  0.1890E+00
     -7.429  0.3428E-01  0.1926E+00
     -7.323  0.3394E-01  0.1962E+00
     -7.216  0.3226E-01  0.1997E+00
     -7.109  0.2055E-01  0.2019E+00
     -7.003  0.1312E-01  0.2033E+00
     -6.896  0.1483E-01  0.2049E+00
     -6.789  0.2483E-01  0.2075E+00
     -6.683  0.2829E-01  0.2105E+00
     -6.576  0.1704E-01  0.2123E+00
     -6.470  0.1212E-01  0.2136E+00
     -6.363  0.1361E-01  0.2151E+00
     -6.256  0.1318E-01  0.2165E+00
     -6.150  0.1584E-01  0.2182E+00
     -6.043  0.1506E-01  0.2198E+00
     -5.937  0.9406E-02  0.2208E+00
     -5.830  0.9427E-02  0.2218E+00
     -5.723  0.1028E-01  0.2229E+00
     -5.617  0.2580E-01  0.2256E+00
     -5.510  0.3340E-01  0.2292E+00
     -5.404  0.3358E-01  0.2328E+00
     -5.297  0.3973E-01  0.2370E+00
     -5.190  0.3694E-01  0.2409E+00
     -5.084  0.2715E-01  0.2438E+00
     -4.977  0.2061E-01  0.2460E+00
     -4.871  0.2622E-01  0.2488E+00
     -4.764  0.3509E-01  0.2526E+00
     -4.657  0.2746E-01  0.2555E+00
     -4.551  0.1762E-01  0.2574E+00
     -4.444  0.1908E-01  0.2594E+00
     -4.338  0.1761E-01  0.2613E+00
     -4.231  0.6185E-02  0.2619E+00
     -4.124  0.1851E-02  0.2621E+00
     -4.018  0.1069E-01  0.2633E+00
     -3.911  0.1817E-01  0.2652E+00
     -3.805  0.1342E-01  0.2667E+00
     -3.698  0.2064E-01  0.2689E+00
     -3.591  0.1004E-01  0.2699E+00
     -3.485  0.2156E-02  0.2702E+00
     -3.378  0.1105E-01  0.2713E+00
     -3.272  0.2364E-01  0.2739E+00
     -3.165  0.1723E-01  0.2757E+00
     -3.058  0.2852E-02  0.2760E+00
     -2.952  0.7580E-04  0.2760E+00
     -2.845  0.4004E-06  0.2760E+00
     -2.738  0.3891E-04  0.2760E+00
     -2.632  0.1486E-02  0.2762E+00
     -2.525  0.8443E-02  0.2771E+00
     -2.419  0.9256E-02  0.2780E+00
     -2.312  0.6923E-02  0.2788E+00
     -2.205  0.8065E-02  0.2796E+00
     -2.099  0.1255E-01  0.2810E+00
     -1.992  0.1406E-01  0.2825E+00
     -1.886  0.1241E-01  0.2838E+00
     -1.779  0.5977E-02  0.2844E+00
     -1.672  0.5078E-02  0.2850E+00
     -1.566  0.1509E-01  0.2866E+00
     -1.459  0.1630E-01  0.2883E+00
     -1.353  0.1397E-01  0.2898E+00
     -1.246  0.2001E-01  0.2920E+00
     -1.139  0.1338E-01  0.2934E+00
     -1.033  0.4858E-02  0.2939E+00
     -0.926  0.4640E-02  0.2944E+00
     -0.820  0.1555E-01  0.2961E+00
     -0.713  0.2224E-01  0.2984E+00
     -0.606  0.2075E-01  0.3006E+00
     -0.500  0.1058E-01  0.3018E+00
     -0.393  0.2132E-02  0.3020E+00
     -0.287  0.9806E-04  0.3020E+00
     -0.180  0.6853E-06  0.3020E+00
     -0.073  0.6024E-09  0.3020E+00
      0.033  0.1040E-07  0.3020E+00
      0.140  0.5822E-05  0.3020E+00
      0.246  0.4385E-03  0.3020E+00
      0.353  0.5051E-02  0.3026E+00
      0.460  0.9828E-02  0.3036E+00
      0.566  0.3269E-02  0.3040E+00
      0.673  0.2063E-03  0.3040E+00
      0.779  0.1251E-02  0.3041E+00
      0.886  0.6981E-02  0.3049E+00
      0.993  0.1083E-01  0.3060E+00
      1.099  0.1576E-01  0.3077E+00
      1.206  0.2193E-01  0.3101E+00
      1.313  0.2665E-01  0.3129E+00
      1.419  0.2341E-01  0.3154E+00
      1.526  0.2312E-01  0.3179E+00
      1.632  0.2333E-01  0.3203E+00
      1.739  0.1699E-01  0.3222E+00
      1.846  0.1858E-01  0.3241E+00
      1.952  0.2320E-01  0.3266E+00
      2.059  0.2076E-01  0.3288E+00
      2.165  0.1841E-01  0.3308E+00
      2.272  0.1468E-01  0.3323E+00
      2.379  0.1259E-01  0.3337E+00
      2.485  0.1126E-01  0.3349E+00
      2.592  0.8717E-02  0.3358E+00
      2.698  0.1631E-02  0.3360E+00
      2.805  0.4931E-04  0.3360E+00
      2.912  0.2087E-06  0.3360E+00
      3.018  0.1109E-09  0.3360E+00
      3.125  0.6843E-14  0.3360E+00
      3.231  0.0000E+00  0.3360E+00
      3.338  0.0000E+00  0.3360E+00
      3.445  0.0000E+00  0.3360E+00
      3.551  0.0000E+00  0.3360E+00
      3.658  0.0000E+00  0.3360E+00
      3.764  0.0000E+00  0.3360E+00
      3.871  0.0000E+00  0.3360E+00
      3.978  0.0000E+00  0.3360E+00
