 running on   48 total cores
 distrk:  each k-point on   48 cores,    1 groups
 distr:  one band on   12 cores,    4 groups
 vasp.6.3.2 27Jun22 (build May 04 2024 18:40:40) complex                        
  
 POSCAR found type information on POSCAR C N AuPd
 POSCAR found :  4 types and      58 ions
 Reading from existing POTCAR
 scaLAPACK will be used
 Reading from existing POTCAR
 LDA part: xc-table for Pade appr. of Perdew
 POSCAR found type information on POSCAR C N AuPd
 POSCAR found :  4 types and      58 ions
 POSCAR, INCAR and KPOINTS ok, starting setup
 FFT: planning ... GRIDC
 FFT: planning ... GRID_SOFT
 FFT: planning ... GRID
 WAVECAR not read
 entering main loop
       N       E                     dE             d eps       ncg     rms          rms(c)
DAV:   1     0.260140762625E+04    0.26014E+04   -0.97460E+04  1536   0.103E+03
DAV:   2     0.423773378061E+02   -0.25590E+04   -0.24442E+04  1952   0.286E+02
DAV:   3    -0.475806781278E+03   -0.51818E+03   -0.51358E+03  1640   0.140E+02
DAV:   4    -0.494261868280E+03   -0.18455E+02   -0.17923E+02  1560   0.304E+01
DAV:   5    -0.495031155622E+03   -0.76929E+00   -0.75629E+00  1808   0.502E+00    0.822E+01
DAV:   6    -0.459206134468E+03    0.35825E+02   -0.12138E+02  1560   0.373E+01    0.625E+01
DAV:   7    -0.456662905098E+03    0.25432E+01   -0.68353E+01  1536   0.299E+01    0.204E+01
DAV:   8    -0.454218165373E+03    0.24447E+01   -0.13533E+01  1504   0.146E+01    0.995E+00
DAV:   9    -0.454190036575E+03    0.28129E-01   -0.11795E+01  1648   0.655E+00    0.489E+00
DAV:  10    -0.453836867004E+03    0.35317E+00   -0.15774E+00  1592   0.421E+00    0.258E+00
DAV:  11    -0.453810002625E+03    0.26864E-01   -0.40893E-01  1528   0.171E+00    0.162E+00
DAV:  12    -0.453804055899E+03    0.59467E-02   -0.25586E-01  1632   0.108E+00    0.122E+00
DAV:  13    -0.453792281895E+03    0.11774E-01   -0.19246E-01  1616   0.851E-01    0.735E-01
DAV:  14    -0.453791530985E+03    0.75091E-03   -0.61243E-02  1544   0.548E-01    0.491E-01
DAV:  15    -0.453792989319E+03   -0.14583E-02   -0.34625E-02  1480   0.329E-01    0.315E-01
DAV:  16    -0.453794142261E+03   -0.11529E-02   -0.81300E-03  1480   0.189E-01    0.107E-01
DAV:  17    -0.453798000547E+03   -0.38583E-02   -0.36583E-03  1480   0.132E-01    0.114E-01
DAV:  18    -0.453802436203E+03   -0.44357E-02   -0.34865E-03  1480   0.111E-01    0.837E-02
DAV:  19    -0.453804544121E+03   -0.21079E-02   -0.96537E-04  1464   0.626E-02    0.431E-02
DAV:  20    -0.453805423879E+03   -0.87976E-03   -0.10797E-03  1496   0.637E-02    0.384E-02
DAV:  21    -0.453806531090E+03   -0.11072E-02   -0.16596E-04  1432   0.244E-02    0.285E-02
DAV:  22    -0.453808399856E+03   -0.18688E-02   -0.14309E-04  1296   0.216E-02    0.134E-02
DAV:  23    -0.453810366846E+03   -0.19670E-02   -0.16499E-04  1296   0.199E-02    0.954E-03
DAV:  24    -0.453811275077E+03   -0.90823E-03   -0.60798E-05  1288   0.119E-02    0.909E-03
DAV:  25    -0.453811670468E+03   -0.39539E-03   -0.25559E-05  1048   0.832E-03    0.405E-03
DAV:  26    -0.453811740863E+03   -0.70395E-04   -0.65943E-06   976   0.471E-03    0.387E-03
DAV:  27    -0.453811792995E+03   -0.52132E-04   -0.62913E-06   880   0.408E-03    0.154E-03
DAV:  28    -0.453811803179E+03   -0.10184E-04   -0.18903E-06   968   0.244E-03    0.774E-04
DAV:  29    -0.453811809698E+03   -0.65186E-05   -0.92740E-07   912   0.166E-03
   1 F= -.45381181E+03 E0= -.45375212E+03  d E =-.453812E+03
 curvature:   0.00 expect dE= 0.000E+00 dE for cont linesearch  0.000E+00
 trial: gam= 0.00000 g(F)=  0.189E+02 g(S)=  0.291E+01 ort = 0.000E+00 (trialstep = 0.100E+01)
 search vector abs. value=  0.218E+02
 bond charge predicted
       N       E                     dE             d eps       ncg     rms          rms(c)
DAV:   1    -0.457688111188E+03   -0.38763E+01   -0.88035E+02  1376   0.743E+01    0.270E+01
DAV:   2    -0.459650538749E+03   -0.19624E+01   -0.33433E+01  1528   0.166E+01    0.247E+01
DAV:   3    -0.459415534459E+03    0.23500E+00   -0.57638E+00  1576   0.707E+00    0.150E+01
DAV:   4    -0.460307390050E+03   -0.89186E+00   -0.12227E+01  1728   0.785E+00    0.742E+00
DAV:   5    -0.459121455934E+03    0.11859E+01   -0.72315E+00  1768   0.561E+00    0.316E+00
DAV:   6    -0.459143899824E+03   -0.22444E-01   -0.72550E-01  1536   0.182E+00    0.129E+00
DAV:   7    -0.459130397774E+03    0.13502E-01   -0.17581E-01  1560   0.839E-01    0.740E-01
DAV:   8    -0.459128280494E+03    0.21173E-02   -0.25645E-02  1560   0.413E-01    0.383E-01
DAV:   9    -0.459128521394E+03   -0.24090E-03   -0.69424E-03  1496   0.255E-01    0.177E-01
DAV:  10    -0.459128814715E+03   -0.29332E-03   -0.12001E-03  1544   0.106E-01    0.846E-02
DAV:  11    -0.459129103818E+03   -0.28910E-03   -0.53537E-04  1496   0.643E-02    0.421E-02
DAV:  12    -0.459129297106E+03   -0.19329E-03   -0.24049E-04  1528   0.450E-02    0.257E-02
DAV:  13    -0.459129417820E+03   -0.12071E-03   -0.60065E-05  1056   0.203E-02    0.122E-02
DAV:  14    -0.459129548260E+03   -0.13044E-03   -0.19297E-05  1008   0.970E-03    0.589E-03
DAV:  15    -0.459129666317E+03   -0.11806E-03   -0.13114E-05  1016   0.608E-03    0.378E-03
DAV:  16    -0.459129750915E+03   -0.84598E-04   -0.97666E-06   960   0.469E-03    0.281E-03
DAV:  17    -0.459129799628E+03   -0.48714E-04   -0.77332E-06   984   0.348E-03    0.208E-03
DAV:  18    -0.459129820941E+03   -0.21313E-04   -0.36450E-06   976   0.255E-03    0.950E-04
DAV:  19    -0.459129830762E+03   -0.98213E-05   -0.13068E-06   984   0.177E-03
   2 F= -.45912983E+03 E0= -.45907000E+03  d E =-.531802E+01
 trial-energy change:   -5.318021  1 .order   -7.589670  -21.777619    6.598280
 step:   0.6596(harm=  0.7675)  dis= 0.16269  next Energy=  -460.342359 (dE=-0.653E+01)
 bond charge predicted
       N       E                     dE             d eps       ncg     rms          rms(c)
DAV:   1    -0.460194848311E+03   -0.10650E+01   -0.10049E+02  1400   0.251E+01    0.664E+00
DAV:   2    -0.460319314583E+03   -0.12447E+00   -0.28397E+00  1536   0.494E+00    0.536E+00
DAV:   3    -0.460306340842E+03    0.12974E-01   -0.46790E-01  1512   0.220E+00    0.315E+00
DAV:   4    -0.460380937217E+03   -0.74596E-01   -0.14223E+00  1688   0.245E+00    0.236E+00
DAV:   5    -0.460281787296E+03    0.99150E-01   -0.41659E-01  1736   0.161E+00    0.142E+00
DAV:   6    -0.460280422670E+03    0.13646E-02   -0.65370E-02  1464   0.709E-01    0.337E-01
DAV:   7    -0.460281821932E+03   -0.13993E-02   -0.15982E-02  1568   0.290E-01    0.243E-01
DAV:   8    -0.460281355405E+03    0.46653E-03   -0.71842E-03  1568   0.159E-01    0.139E-01
DAV:   9    -0.460281503226E+03   -0.14782E-03   -0.98192E-04  1496   0.710E-02    0.650E-02
DAV:  10    -0.460281560292E+03   -0.57066E-04   -0.16272E-04  1520   0.366E-02    0.227E-02
DAV:  11    -0.460281596337E+03   -0.36045E-04   -0.25459E-05   976   0.151E-02    0.963E-03
DAV:  12    -0.460281628271E+03   -0.31934E-04   -0.75628E-06   912   0.697E-03    0.569E-03
DAV:  13    -0.460281655019E+03   -0.26748E-04   -0.42320E-06   912   0.432E-03    0.303E-03
DAV:  14    -0.460281673466E+03   -0.18447E-04   -0.18020E-06   880   0.279E-03    0.170E-03
DAV:  15    -0.460281688125E+03   -0.14659E-04   -0.11478E-06   904   0.196E-03    0.133E-03
DAV:  16    -0.460281703666E+03   -0.15541E-04   -0.15549E-06   920   0.172E-03    0.870E-04
DAV:  17    -0.460281708006E+03   -0.43405E-05   -0.37181E-07   912   0.102E-03
   3 F= -.46028171E+03 E0= -.46022128E+03  d E =-.646990E+01
 curvature:  -0.30 expect dE=-0.194E+01 dE for cont linesearch -0.286E-03
 trial: gam= 0.28952 g(F)=  0.608E+01 g(S)=  0.371E+00 ort = 0.144E+00 (trialstep = 0.932E+00)
 search vector abs. value=  0.836E+01
 bond charge predicted
       N       E                     dE             d eps       ncg     rms          rms(c)
DAV:   1    -0.463905079071E+03   -0.36234E+01   -0.26392E+02  1344   0.391E+01    0.904E+00
DAV:   2    -0.464073316256E+03   -0.16824E+00   -0.60475E+00  1464   0.707E+00    0.912E+00
DAV:   3    -0.464009306801E+03    0.64009E-01   -0.44707E-01  1536   0.236E+00    0.625E+00
DAV:   4    -0.463984196579E+03    0.25110E-01   -0.54153E-01  1528   0.213E+00    0.217E+00
DAV:   5    -0.463962234012E+03    0.21963E-01   -0.64620E-01  1576   0.183E+00    0.139E+00
DAV:   6    -0.463944377799E+03    0.17856E-01   -0.13996E-01  1544   0.830E-01    0.515E-01
DAV:   7    -0.463946089995E+03   -0.17122E-02   -0.16609E-02  1584   0.358E-01    0.320E-01
DAV:   8    -0.463945965386E+03    0.12461E-03   -0.54176E-03  1480   0.220E-01    0.172E-01
DAV:   9    -0.463946464792E+03   -0.49941E-03   -0.18313E-03  1568   0.101E-01    0.124E-01
DAV:  10    -0.463946692228E+03   -0.22744E-03   -0.10795E-03  1536   0.788E-02    0.426E-02
DAV:  11    -0.463946937064E+03   -0.24484E-03   -0.25860E-04  1496   0.433E-02    0.203E-02
DAV:  12    -0.463947151641E+03   -0.21458E-03   -0.53691E-05  1400   0.196E-02    0.131E-02
DAV:  13    -0.463947427795E+03   -0.27615E-03   -0.32405E-05  1160   0.116E-02    0.843E-03
DAV:  14    -0.463947593294E+03   -0.16550E-03   -0.15994E-05  1088   0.834E-03    0.520E-03
DAV:  15    -0.463947739476E+03   -0.14618E-03   -0.18178E-05  1144   0.660E-03    0.420E-03
DAV:  16    -0.463947838778E+03   -0.99303E-04   -0.12060E-05  1048   0.488E-03    0.263E-03
DAV:  17    -0.463947876821E+03   -0.38043E-04   -0.44584E-06   984   0.289E-03    0.136E-03
DAV:  18    -0.463947893559E+03   -0.16738E-04   -0.18329E-06   944   0.205E-03    0.834E-04
DAV:  19    -0.463947901874E+03   -0.83144E-05   -0.94617E-07   928   0.141E-03
   4 F= -.46394790E+03 E0= -.46389147E+03  d E =-.366619E+01
 trial-energy change:   -3.666194  1 .order   -3.745814   -6.048876   -1.442751
 step:   1.2720(harm=  1.2238)  dis= 0.12718  next Energy=  -464.207246 (dE=-0.393E+01)
 bond charge predicted
       N       E                     dE             d eps       ncg     rms          rms(c)
DAV:   1    -0.464221733038E+03   -0.27384E+00   -0.34446E+01  1344   0.142E+01    0.283E+00
DAV:   2    -0.464239848965E+03   -0.18116E-01   -0.71247E-01  1496   0.249E+00    0.295E+00
DAV:   3    -0.464232535359E+03    0.73136E-02   -0.59603E-02  1520   0.861E-01    0.202E+00
DAV:   4    -0.464230132398E+03    0.24030E-02   -0.56130E-02  1488   0.848E-01    0.999E-01
DAV:   5    -0.464225697664E+03    0.44347E-02   -0.53067E-02  1488   0.757E-01    0.563E-01
DAV:   6    -0.464224266656E+03    0.14310E-02   -0.13050E-02  1448   0.296E-01    0.218E-01
DAV:   7    -0.464224481089E+03   -0.21443E-03   -0.29756E-03  1552   0.131E-01    0.160E-01
DAV:   8    -0.464224370669E+03    0.11042E-03   -0.10043E-03  1520   0.823E-02    0.793E-02
DAV:   9    -0.464224455741E+03   -0.85072E-04   -0.19226E-04  1496   0.351E-02    0.321E-02
DAV:  10    -0.464224505248E+03   -0.49507E-04   -0.34408E-05  1016   0.163E-02    0.122E-02
DAV:  11    -0.464224542458E+03   -0.37211E-04   -0.15178E-05   912   0.967E-03    0.672E-03
DAV:  12    -0.464224581334E+03   -0.38876E-04   -0.83417E-06   928   0.673E-03    0.457E-03
DAV:  13    -0.464224613466E+03   -0.32131E-04   -0.44718E-06   920   0.470E-03    0.388E-03
DAV:  14    -0.464224643228E+03   -0.29762E-04   -0.27807E-06   936   0.311E-03    0.186E-03
DAV:  15    -0.464224672756E+03   -0.29528E-04   -0.35303E-06   976   0.296E-03    0.157E-03
DAV:  16    -0.464224686048E+03   -0.13292E-04   -0.11423E-06   912   0.177E-03    0.112E-03
DAV:  17    -0.464224696679E+03   -0.10631E-04   -0.12154E-06   920   0.152E-03    0.740E-04
DAV:  18    -0.464224703400E+03   -0.67207E-05   -0.70441E-07   896   0.119E-03
   5 F= -.46422470E+03 E0= -.46416954E+03  d E =-.394300E+01
 curvature:  -0.77 expect dE=-0.113E+01 dE for cont linesearch -0.993E-03
 trial: gam= 0.22701 g(F)=  0.132E+01 g(S)=  0.158E+00 ort = 0.104E+00 (trialstep = 0.100E+01)
 search vector abs. value=  0.196E+01
 bond charge predicted
       N       E                     dE             d eps       ncg     rms          rms(c)
DAV:   1    -0.465278517196E+03   -0.10538E+01   -0.72126E+01  1344   0.224E+01    0.450E+00
DAV:   2    -0.465405672676E+03   -0.12716E+00   -0.15987E+00  1552   0.335E+00    0.361E+00
DAV:   3    -0.465402287956E+03    0.33847E-02   -0.24233E-01  1552   0.146E+00    0.141E+00
DAV:   4    -0.465402498088E+03   -0.21013E-03   -0.33232E-01  1536   0.157E+00    0.155E+00
DAV:   5    -0.465385654840E+03    0.16843E-01   -0.83246E-02  1520   0.825E-01    0.444E-01
DAV:   6    -0.465387391577E+03   -0.17367E-02   -0.11317E-02  1592   0.292E-01    0.177E-01
DAV:   7    -0.465387369855E+03    0.21722E-04   -0.39189E-03  1584   0.138E-01    0.108E-01
DAV:   8    -0.465387426016E+03   -0.56161E-04   -0.97498E-04  1552   0.727E-02    0.633E-02
DAV:   9    -0.465387549699E+03   -0.12368E-03   -0.30161E-04  1472   0.554E-02    0.345E-02
DAV:  10    -0.465387613925E+03   -0.64226E-04   -0.76547E-05  1344   0.325E-02    0.146E-02
DAV:  11    -0.465387659475E+03   -0.45550E-04   -0.17019E-05   968   0.126E-02    0.893E-03
DAV:  12    -0.465387712662E+03   -0.53187E-04   -0.78594E-06   928   0.717E-03    0.434E-03
DAV:  13    -0.465387761894E+03   -0.49232E-04   -0.33113E-06   936   0.419E-03    0.274E-03
DAV:  14    -0.465387805441E+03   -0.43547E-04   -0.25883E-06   960   0.310E-03    0.166E-03
DAV:  15    -0.465387840536E+03   -0.35096E-04   -0.21417E-06   928   0.225E-03    0.164E-03
DAV:  16    -0.465387868795E+03   -0.28259E-04   -0.23433E-06   952   0.218E-03    0.950E-04
DAV:  17    -0.465387880095E+03   -0.11300E-04   -0.10279E-06   920   0.151E-03    0.629E-04
DAV:  18    -0.465387885704E+03   -0.56083E-05   -0.54028E-07   912   0.103E-03
   6 F= -.46538789E+03 E0= -.46533370E+03  d E =-.116318E+01
 trial-energy change:   -1.163182  1 .order   -1.163897   -1.501775   -0.826019
 step:   2.2222(harm=  2.2222)  dis= 0.07713  next Energy=  -465.893447 (dE=-0.167E+01)
 bond charge predicted
       N       E                     dE             d eps       ncg     rms          rms(c)
DAV:   1    -0.465740237381E+03   -0.35236E+00   -0.10822E+02  1344   0.274E+01    0.470E+00
DAV:   2    -0.465925999270E+03   -0.18576E+00   -0.24103E+00  1560   0.414E+00    0.393E+00
DAV:   3    -0.465914788033E+03    0.11211E-01   -0.37372E-01  1536   0.172E+00    0.178E+00
DAV:   4    -0.465914685887E+03    0.10215E-03   -0.39914E-01  1536   0.168E+00    0.163E+00
DAV:   5    -0.465894102716E+03    0.20583E-01   -0.11980E-01  1528   0.100E+00    0.699E-01
DAV:   6    -0.465895786472E+03   -0.16838E-02   -0.20084E-02  1528   0.418E-01    0.200E-01
DAV:   7    -0.465895866205E+03   -0.79733E-04   -0.55889E-03  1600   0.175E-01    0.135E-01
DAV:   8    -0.465895851738E+03    0.14467E-04   -0.16010E-03  1536   0.912E-02    0.865E-02
DAV:   9    -0.465896035510E+03   -0.18377E-03   -0.52104E-04  1472   0.699E-02    0.490E-02
DAV:  10    -0.465896136545E+03   -0.10103E-03   -0.16291E-04  1520   0.453E-02    0.210E-02
DAV:  11    -0.465896217336E+03   -0.80791E-04   -0.26730E-05  1016   0.162E-02    0.112E-02
DAV:  12    -0.465896308149E+03   -0.90813E-04   -0.12419E-05   992   0.865E-03    0.556E-03
DAV:  13    -0.465896382957E+03   -0.74807E-04   -0.47450E-06   968   0.499E-03    0.316E-03
DAV:  14    -0.465896451495E+03   -0.68538E-04   -0.41744E-06   968   0.380E-03    0.202E-03
DAV:  15    -0.465896504585E+03   -0.53090E-04   -0.34552E-06   968   0.284E-03    0.195E-03
DAV:  16    -0.465896546962E+03   -0.42377E-04   -0.36167E-06   976   0.276E-03    0.978E-04
DAV:  17    -0.465896564002E+03   -0.17039E-04   -0.17036E-06   968   0.185E-03    0.669E-04
DAV:  18    -0.465896573983E+03   -0.99816E-05   -0.83627E-07   920   0.130E-03
   7 F= -.46589657E+03 E0= -.46584224E+03  d E =-.167187E+01
 curvature:  -1.45 expect dE=-0.113E+01 dE for cont linesearch -0.686E-04
 trial: gam= 0.53102 g(F)=  0.773E+00 g(S)=  0.855E-02 ort = 0.963E-02 (trialstep = 0.124E+01)
 search vector abs. value=  0.134E+01
 bond charge predicted
       N       E                     dE             d eps       ncg     rms          rms(c)
DAV:   1    -0.466540310482E+03   -0.64375E+00   -0.79577E+01  1344   0.235E+01    0.258E+00
DAV:   2    -0.466659995440E+03   -0.11968E+00   -0.17188E+00  1584   0.345E+00    0.228E+00
DAV:   3    -0.466648796677E+03    0.11199E-01   -0.13860E-01  1552   0.118E+00    0.122E+00
DAV:   4    -0.466645747858E+03    0.30488E-02   -0.10651E-01  1536   0.934E-01    0.130E+00
DAV:   5    -0.466641570927E+03    0.41769E-02   -0.44606E-02  1520   0.725E-01    0.624E-01
DAV:   6    -0.466640614450E+03    0.95648E-03   -0.18252E-02  1520   0.426E-01    0.306E-01
DAV:   7    -0.466640538667E+03    0.75783E-04   -0.64286E-03  1536   0.172E-01    0.176E-01
DAV:   8    -0.466640400278E+03    0.13839E-03   -0.16623E-03  1552   0.855E-02    0.931E-02
DAV:   9    -0.466640510199E+03   -0.10992E-03   -0.23786E-04  1480   0.413E-02    0.436E-02
DAV:  10    -0.466640558454E+03   -0.48254E-04   -0.91158E-05  1248   0.265E-02    0.236E-02
DAV:  11    -0.466640601777E+03   -0.43323E-04   -0.27920E-05   936   0.149E-02    0.825E-03
DAV:  12    -0.466640649095E+03   -0.47318E-04   -0.65018E-06   984   0.623E-03    0.408E-03
DAV:  13    -0.466640690851E+03   -0.41756E-04   -0.24629E-06   976   0.350E-03    0.242E-03
DAV:  14    -0.466640727832E+03   -0.36981E-04   -0.22720E-06   984   0.250E-03    0.127E-03
DAV:  15    -0.466640748786E+03   -0.20954E-04   -0.11812E-06   960   0.161E-03    0.114E-03
DAV:  16    -0.466640770155E+03   -0.21370E-04   -0.18229E-06   976   0.171E-03    0.743E-04
DAV:  17    -0.466640779115E+03   -0.89600E-05   -0.68345E-07   936   0.118E-03
   8 F= -.46664078E+03 E0= -.46658226E+03  d E =-.744205E+00
 trial-energy change:   -0.744205  1 .order   -0.744247   -0.979371   -0.509122
 step:   2.5916(harm=  2.5916)  dis= 0.09837  next Energy=  -466.916426 (dE=-0.102E+01)
 bond charge predicted
       N       E                     dE             d eps       ncg     rms          rms(c)
DAV:   1    -0.466801310278E+03   -0.16054E+00   -0.93241E+01  1344   0.254E+01    0.293E+00
DAV:   2    -0.466969237425E+03   -0.16793E+00   -0.24745E+00  1576   0.405E+00    0.364E+00
DAV:   3    -0.466925190675E+03    0.44047E-01   -0.32707E-01  1544   0.189E+00    0.152E+00
DAV:   4    -0.466919426966E+03    0.57637E-02   -0.10543E-01  1528   0.995E-01    0.151E+00
DAV:   5    -0.466915202650E+03    0.42243E-02   -0.85204E-02  1528   0.907E-01    0.844E-01
DAV:   6    -0.466912162685E+03    0.30400E-02   -0.34332E-02  1520   0.510E-01    0.264E-01
DAV:   7    -0.466912363655E+03   -0.20097E-03   -0.92978E-03  1560   0.199E-01    0.190E-01
DAV:   8    -0.466912186403E+03    0.17725E-03   -0.18308E-03  1512   0.985E-02    0.103E-01
DAV:   9    -0.466912325406E+03   -0.13900E-03   -0.40446E-04  1536   0.538E-02    0.648E-02
DAV:  10    -0.466912372268E+03   -0.46861E-04   -0.22134E-04  1528   0.374E-02    0.220E-02
DAV:  11    -0.466912433865E+03   -0.61598E-04   -0.37008E-05  1008   0.162E-02    0.830E-03
DAV:  12    -0.466912484952E+03   -0.51087E-04   -0.72468E-06   976   0.670E-03    0.540E-03
DAV:  13    -0.466912534297E+03   -0.49344E-04   -0.29489E-06   960   0.377E-03    0.251E-03
DAV:  14    -0.466912579003E+03   -0.44706E-04   -0.28283E-06   976   0.280E-03    0.194E-03
DAV:  15    -0.466912607398E+03   -0.28395E-04   -0.17858E-06   984   0.206E-03    0.103E-03
DAV:  16    -0.466912627651E+03   -0.20253E-04   -0.13934E-06   960   0.171E-03    0.941E-04
DAV:  17    -0.466912639638E+03   -0.11986E-04   -0.11262E-06   984   0.136E-03    0.472E-04
DAV:  18    -0.466912645373E+03   -0.57350E-05   -0.44595E-07   928   0.949E-04
   9 F= -.46691265E+03 E0= -.46685009E+03  d E =-.101607E+01
 curvature:  -2.21 expect dE=-0.124E+01 dE for cont linesearch -0.776E-04
 trial: gam= 0.66340 g(F)=  0.542E+00 g(S)=  0.207E-01 ort =-0.686E-02 (trialstep = 0.151E+01)
 search vector abs. value=  0.114E+01
 bond charge predicted
       N       E                     dE             d eps       ncg     rms          rms(c)
DAV:   1    -0.467508013276E+03   -0.59537E+00   -0.10246E+02  1344   0.257E+01    0.448E+00
DAV:   2    -0.468118467373E+03   -0.61045E+00   -0.10164E+01  1624   0.769E+00    0.770E+00
DAV:   3    -0.467631572081E+03    0.48690E+00   -0.10748E+00  1528   0.435E+00    0.500E+00
DAV:   4    -0.467611647992E+03    0.19924E-01   -0.11890E-01  1544   0.115E+00    0.408E+00
DAV:   5    -0.467572920293E+03    0.38728E-01   -0.13237E-01  1600   0.107E+00    0.238E+00
DAV:   6    -0.467567194460E+03    0.57258E-02   -0.11933E-01  1576   0.835E-01    0.840E-01
DAV:   7    -0.467566646435E+03    0.54803E-03   -0.40157E-02  1552   0.429E-01    0.550E-01
DAV:   8    -0.467565857500E+03    0.78893E-03   -0.68089E-03  1504   0.221E-01    0.599E-01
DAV:   9    -0.467565232007E+03    0.62549E-03   -0.42941E-03  1568   0.148E-01    0.148E-01
DAV:  10    -0.467565558320E+03   -0.32631E-03   -0.87919E-04  1504   0.772E-02    0.228E-01
DAV:  11    -0.467565571195E+03   -0.12875E-04   -0.98269E-04  1584   0.664E-02    0.640E-02
DAV:  12    -0.467565650266E+03   -0.79071E-04   -0.10947E-04  1536   0.267E-02    0.379E-02
DAV:  13    -0.467565685168E+03   -0.34903E-04   -0.26663E-05   992   0.130E-02    0.289E-02
DAV:  14    -0.467565734513E+03   -0.49345E-04   -0.18583E-05   960   0.104E-02    0.770E-03
DAV:  15    -0.467565799606E+03   -0.65093E-04   -0.84035E-06   984   0.583E-03    0.540E-03
DAV:  16    -0.467565839375E+03   -0.39769E-04   -0.44976E-06   976   0.380E-03    0.379E-03
DAV:  17    -0.467565883041E+03   -0.43666E-04   -0.56059E-06   984   0.297E-03    0.259E-03
DAV:  18    -0.467565905863E+03   -0.22822E-04   -0.34913E-06   976   0.230E-03    0.246E-03
DAV:  19    -0.467565914988E+03   -0.91257E-05   -0.15634E-06   984   0.169E-03
  10 F= -.46756591E+03 E0= -.46750042E+03  d E =-.653270E+00
 trial-energy change:   -0.653270  1 .order   -0.652857   -0.844709   -0.461006
 step:   3.3327(harm=  3.3327)  dis= 0.15192  next Energy=  -467.842444 (dE=-0.930E+00)
 bond charge predicted
       N       E                     dE             d eps       ncg     rms          rms(c)
DAV:   1    -0.467761883163E+03   -0.19598E+00   -0.14756E+02  1344   0.308E+01    0.524E+00
DAV:   2    -0.468832168637E+03   -0.10703E+01   -0.16796E+01  1584   0.950E+00    0.951E+00
DAV:   3    -0.467938419266E+03    0.89375E+00   -0.17578E+00  1464   0.526E+00    0.615E+00
DAV:   4    -0.467914983541E+03    0.23436E-01   -0.17295E-01  1544   0.132E+00    0.515E+00
DAV:   5    -0.467858016670E+03    0.56967E-01   -0.18449E-01  1608   0.123E+00    0.310E+00
DAV:   6    -0.467844521838E+03    0.13495E-01   -0.20450E-01  1576   0.110E+00    0.132E+00
DAV:   7    -0.467842905213E+03    0.16166E-02   -0.63643E-02  1504   0.544E-01    0.620E-01
DAV:   8    -0.467842006540E+03    0.89867E-03   -0.13051E-02  1496   0.281E-01    0.863E-01
DAV:   9    -0.467840945573E+03    0.10610E-02   -0.51623E-03  1544   0.177E-01    0.368E-01
DAV:  10    -0.467840862902E+03    0.82671E-04   -0.19539E-03  1504   0.102E-01    0.147E-01
DAV:  11    -0.467841135497E+03   -0.27259E-03   -0.59776E-04  1544   0.604E-02    0.525E-02
DAV:  12    -0.467841238617E+03   -0.10312E-03   -0.13256E-04  1504   0.275E-02    0.274E-02
DAV:  13    -0.467841322826E+03   -0.84210E-04   -0.54619E-05  1000   0.165E-02    0.401E-02
DAV:  14    -0.467841381413E+03   -0.58586E-04   -0.29278E-05   984   0.105E-02    0.117E-02
DAV:  15    -0.467841453597E+03   -0.72185E-04   -0.10218E-05   992   0.617E-03    0.697E-03
DAV:  16    -0.467841516303E+03   -0.62706E-04   -0.99900E-06   968   0.550E-03    0.101E-02
DAV:  17    -0.467841559152E+03   -0.42848E-04   -0.68330E-06   976   0.372E-03    0.431E-03
DAV:  18    -0.467841590044E+03   -0.30893E-04   -0.49025E-06   960   0.289E-03    0.123E-03
DAV:  19    -0.467841601177E+03   -0.11133E-04   -0.20139E-06  1000   0.188E-03    0.220E-03
DAV:  20    -0.467841606318E+03   -0.51413E-05   -0.80345E-07   936   0.126E-03
  11 F= -.46784161E+03 E0= -.46777474E+03  d E =-.928961E+00
 curvature:  -3.42 expect dE=-0.239E+01 dE for cont linesearch -0.723E-05
 trial: gam= 1.21924 g(F)=  0.641E+00 g(S)=  0.571E-01 ort =-0.156E-02 (trialstep = 0.897E+00)
 search vector abs. value=  0.240E+01
 bond charge predicted
       N       E                     dE             d eps       ncg     rms          rms(c)
DAV:   1    -0.468308610386E+03   -0.46701E+00   -0.75612E+01  1344   0.209E+01    0.234E+00
DAV:   2    -0.468429719125E+03   -0.12111E+00   -0.19340E+00  1568   0.343E+00    0.374E+00
DAV:   3    -0.468393680171E+03    0.36039E-01   -0.28616E-01  1520   0.139E+00    0.138E+00
DAV:   4    -0.468412236889E+03   -0.18557E-01   -0.28955E-01  1504   0.130E+00    0.305E+00
DAV:   5    -0.468381497748E+03    0.30739E-01   -0.10702E-01  1520   0.887E-01    0.140E+00
DAV:   6    -0.468379658422E+03    0.18393E-02   -0.21939E-02  1496   0.364E-01    0.979E-01
DAV:   7    -0.468377542224E+03    0.21162E-02   -0.12846E-02  1584   0.254E-01    0.367E-01
DAV:   8    -0.468377677417E+03   -0.13519E-03   -0.24333E-03  1536   0.117E-01    0.279E-01
DAV:   9    -0.468377827126E+03   -0.14971E-03   -0.45967E-04  1544   0.520E-02    0.184E-01
DAV:  10    -0.468377946934E+03   -0.11981E-03   -0.27250E-04  1512   0.448E-02    0.451E-02
DAV:  11    -0.468378048489E+03   -0.10155E-03   -0.10297E-04  1264   0.239E-02    0.181E-02
DAV:  12    -0.468378117719E+03   -0.69230E-04   -0.13229E-05   992   0.995E-03    0.713E-03
DAV:  13    -0.468378205215E+03   -0.87496E-04   -0.97798E-06   984   0.601E-03    0.388E-03
DAV:  14    -0.468378266264E+03   -0.61049E-04   -0.50947E-06   984   0.365E-03    0.300E-03
DAV:  15    -0.468378311908E+03   -0.45644E-04   -0.43371E-06   992   0.274E-03    0.296E-03
DAV:  16    -0.468378347897E+03   -0.35989E-04   -0.46529E-06   984   0.239E-03    0.159E-03
DAV:  17    -0.468378362560E+03   -0.14663E-04   -0.19445E-06   992   0.170E-03    0.583E-04
DAV:  18    -0.468378370902E+03   -0.83424E-05   -0.10309E-06   952   0.125E-03
  12 F= -.46837837E+03 E0= -.46831495E+03  d E =-.536765E+00
 trial-energy change:   -0.536765  1 .order   -0.536819   -0.624360   -0.449278
 step:   3.1995(harm=  3.1995)  dis= 0.25011  next Energy=  -468.954873 (dE=-0.111E+01)
 bond charge predicted
       N       E                     dE             d eps       ncg     rms          rms(c)
DAV:   1    -0.468365158230E+03    0.13204E-01   -0.50894E+02  1344   0.540E+01    0.668E+00
DAV:   2    -0.469085742738E+03   -0.72058E+00   -0.11198E+01  1552   0.860E+00    0.528E+00
DAV:   3    -0.469020401994E+03    0.65341E-01   -0.18720E+00  1496   0.356E+00    0.263E+00
DAV:   4    -0.469042636362E+03   -0.22234E-01   -0.14487E+00  1560   0.254E+00    0.442E+00
DAV:   5    -0.468965091745E+03    0.77545E-01   -0.45227E-01  1544   0.169E+00    0.178E+00
DAV:   6    -0.468953628034E+03    0.11464E-01   -0.13270E-01  1512   0.946E-01    0.141E+00
DAV:   7    -0.468950454275E+03    0.31738E-02   -0.31691E-02  1552   0.380E-01    0.400E-01
DAV:   8    -0.468949801241E+03    0.65303E-03   -0.98396E-03  1560   0.247E-01    0.209E-01
DAV:   9    -0.468950259117E+03   -0.45788E-03   -0.22959E-03  1536   0.113E-01    0.103E-01
DAV:  10    -0.468950892750E+03   -0.63363E-03   -0.35614E-04  1608   0.445E-02    0.355E-02
DAV:  11    -0.468951275643E+03   -0.38289E-03   -0.10593E-04  1416   0.232E-02    0.258E-02
DAV:  12    -0.468951593636E+03   -0.31799E-03   -0.42462E-05  1104   0.139E-02    0.113E-02
DAV:  13    -0.468951847815E+03   -0.25418E-03   -0.28237E-05  1064   0.959E-03    0.673E-03
DAV:  14    -0.468952042941E+03   -0.19513E-03   -0.15355E-05  1040   0.672E-03    0.556E-03
DAV:  15    -0.468952303693E+03   -0.26075E-03   -0.43274E-05  1136   0.775E-03    0.271E-03
DAV:  16    -0.468952374962E+03   -0.71269E-04   -0.75617E-06  1016   0.365E-03    0.172E-03
DAV:  17    -0.468952419194E+03   -0.44232E-04   -0.45563E-06  1000   0.255E-03    0.997E-04
DAV:  18    -0.468952441404E+03   -0.22210E-04   -0.16029E-06   976   0.177E-03    0.771E-04
DAV:  19    -0.468952462365E+03   -0.20961E-04   -0.18968E-06  1000   0.153E-03    0.565E-04
DAV:  20    -0.468952469763E+03   -0.73980E-05   -0.44176E-07   936   0.981E-04
  13 F= -.46895247E+03 E0= -.46889887E+03  d E =-.111086E+01
 curvature:  -5.51 expect dE=-0.354E+01 dE for cont linesearch -0.542E-04
 trial: gam= 0.78230 g(F)=  0.621E+00 g(S)=  0.218E-01 ort =-0.486E-02 (trialstep = 0.136E+01)
 search vector abs. value=  0.210E+01
 bond charge predicted
       N       E                     dE             d eps       ncg     rms          rms(c)
DAV:   1    -0.469497695306E+03   -0.54523E+00   -0.16950E+02  1344   0.293E+01    0.369E+00
DAV:   2    -0.469761737918E+03   -0.26404E+00   -0.40015E+00  1536   0.484E+00    0.580E+00
DAV:   3    -0.469702620242E+03    0.59118E-01   -0.20684E+00  1552   0.300E+00    0.341E+00
DAV:   4    -0.469638613708E+03    0.64007E-01   -0.40820E-01  1520   0.152E+00    0.106E+00
DAV:   5    -0.469628902957E+03    0.97108E-02   -0.16697E-01  1504   0.102E+00    0.153E+00
DAV:   6    -0.469622558947E+03    0.63440E-02   -0.32977E-02  1512   0.498E-01    0.703E-01
DAV:   7    -0.469620984784E+03    0.15742E-02   -0.81825E-03  1552   0.243E-01    0.269E-01
DAV:   8    -0.469621446507E+03   -0.46172E-03   -0.14804E-03  1536   0.974E-02    0.207E-01
DAV:   9    -0.469621574785E+03   -0.12828E-03   -0.61355E-04  1600   0.607E-02    0.582E-02
DAV:  10    -0.469621765407E+03   -0.19062E-03   -0.10288E-04  1568   0.269E-02    0.288E-02
DAV:  11    -0.469621935710E+03   -0.17030E-03   -0.29953E-05  1056   0.137E-02    0.863E-03
DAV:  12    -0.469622075727E+03   -0.14002E-03   -0.13933E-05  1024   0.690E-03    0.545E-03
DAV:  13    -0.469622200160E+03   -0.12443E-03   -0.12713E-05  1048   0.530E-03    0.765E-03
DAV:  14    -0.469622304270E+03   -0.10411E-03   -0.11979E-05  1008   0.493E-03    0.254E-03
DAV:  15    -0.469622359011E+03   -0.54741E-04   -0.72808E-06  1016   0.332E-03    0.219E-03
DAV:  16    -0.469622391823E+03   -0.32813E-04   -0.42959E-06  1016   0.264E-03    0.170E-03
DAV:  17    -0.469622405951E+03   -0.14128E-04   -0.15679E-06   984   0.187E-03    0.116E-03
DAV:  18    -0.469622416593E+03   -0.10642E-04   -0.10511E-06   968   0.129E-03    0.471E-04
DAV:  19    -0.469622423379E+03   -0.67861E-05   -0.53734E-07   960   0.919E-04
  14 F= -.46962242E+03 E0= -.46957586E+03  d E =-.669954E+00
 trial-energy change:   -0.669954  1 .order   -0.666546   -0.867605   -0.465487
 step:   2.7810(harm=  2.9292)  dis= 0.23810  next Energy=  -469.870357 (dE=-0.918E+00)
 bond charge predicted
       N       E                     dE             d eps       ncg     rms          rms(c)
DAV:   1    -0.469712822908E+03   -0.90406E-01   -0.18652E+02  1344   0.306E+01    0.363E+00
DAV:   2    -0.469978300885E+03   -0.26548E+00   -0.38138E+00  1552   0.483E+00    0.484E+00
DAV:   3    -0.469939460363E+03    0.38841E-01   -0.17959E+00  1560   0.282E+00    0.323E+00
DAV:   4    -0.469875612494E+03    0.63848E-01   -0.32929E-01  1512   0.139E+00    0.948E-01
DAV:   5    -0.469874882118E+03    0.73038E-03   -0.12927E-01  1536   0.884E-01    0.135E+00
DAV:   6    -0.469867747135E+03    0.71350E-02   -0.37329E-02  1480   0.520E-01    0.596E-01
DAV:   7    -0.469866723434E+03    0.10237E-02   -0.77537E-03  1552   0.235E-01    0.194E-01
DAV:   8    -0.469867099880E+03   -0.37645E-03   -0.10942E-03  1536   0.836E-02    0.143E-01
DAV:   9    -0.469867259195E+03   -0.15931E-03   -0.42045E-04  1592   0.492E-02    0.380E-02
DAV:  10    -0.469867437062E+03   -0.17787E-03   -0.64355E-05  1448   0.216E-02    0.155E-02
DAV:  11    -0.469867575616E+03   -0.13855E-03   -0.18191E-05  1048   0.952E-03    0.661E-03
DAV:  12    -0.469867689034E+03   -0.11342E-03   -0.89111E-06  1008   0.565E-03    0.485E-03
DAV:  13    -0.469867794252E+03   -0.10522E-03   -0.90055E-06  1048   0.452E-03    0.406E-03
DAV:  14    -0.469867881916E+03   -0.87664E-04   -0.84777E-06  1016   0.387E-03    0.306E-03
DAV:  15    -0.469867939128E+03   -0.57213E-04   -0.69076E-06  1032   0.308E-03    0.126E-03
DAV:  16    -0.469867968647E+03   -0.29519E-04   -0.37209E-06  1016   0.234E-03    0.861E-04
DAV:  17    -0.469867979827E+03   -0.11179E-04   -0.10109E-06   960   0.149E-03    0.594E-04
DAV:  18    -0.469867987865E+03   -0.80381E-05   -0.84297E-07   976   0.102E-03
  15 F= -.46986799E+03 E0= -.46982766E+03  d E =-.915518E+00
 curvature:  -4.77 expect dE=-0.311E+01 dE for cont linesearch -0.192E-04
 trial: gam= 0.84660 g(F)=  0.620E+00 g(S)=  0.312E-01 ort =-0.291E-02 (trialstep = 0.160E+01)
 search vector abs. value=  0.215E+01
 bond charge predicted
       N       E                     dE             d eps       ncg     rms          rms(c)
DAV:   1    -0.470352708280E+03   -0.48473E+00   -0.27328E+02  1352   0.348E+01    0.324E+00
DAV:   2    -0.470717479899E+03   -0.36477E+00   -0.44804E+00  1552   0.529E+00    0.374E+00
DAV:   3    -0.470691900697E+03    0.25579E-01   -0.57980E-01  1544   0.182E+00    0.213E+00
DAV:   4    -0.470693344140E+03   -0.14434E-02   -0.50649E-01  1552   0.149E+00    0.277E+00
DAV:   5    -0.470662671377E+03    0.30673E-01   -0.15204E-01  1528   0.102E+00    0.122E+00
DAV:   6    -0.470658159442E+03    0.45119E-02   -0.36791E-02  1520   0.558E-01    0.642E-01
DAV:   7    -0.470656938977E+03    0.12205E-02   -0.77385E-03  1536   0.220E-01    0.270E-01
DAV:   8    -0.470656866992E+03    0.71986E-04   -0.19188E-03  1568   0.101E-01    0.872E-02
DAV:   9    -0.470657065768E+03   -0.19878E-03   -0.24056E-04  1640   0.439E-02    0.368E-02
DAV:  10    -0.470657201420E+03   -0.13565E-03   -0.54109E-05  1264   0.201E-02    0.122E-02
DAV:  11    -0.470657310472E+03   -0.10905E-03   -0.12874E-05  1032   0.829E-03    0.690E-03
DAV:  12    -0.470657416080E+03   -0.10561E-03   -0.91665E-06   992   0.536E-03    0.357E-03
DAV:  13    -0.470657493956E+03   -0.77876E-04   -0.77789E-06  1040   0.369E-03    0.286E-03
DAV:  14    -0.470657574883E+03   -0.80927E-04   -0.91818E-06   984   0.362E-03    0.186E-03
DAV:  15    -0.470657614216E+03   -0.39334E-04   -0.57096E-06  1016   0.264E-03    0.123E-03
DAV:  16    -0.470657632004E+03   -0.17788E-04   -0.20756E-06   976   0.192E-03    0.647E-04
DAV:  17    -0.470657640271E+03   -0.82671E-05   -0.83936E-07   960   0.122E-03
  16 F= -.47065764E+03 E0= -.47062460E+03  d E =-.789652E+00
 trial-energy change:   -0.789652  1 .order   -0.786469   -1.040169   -0.532768
 step:   3.1704(harm=  3.2870)  dis= 0.29947  next Energy=  -470.920935 (dE=-0.105E+01)
 bond charge predicted
       N       E                     dE             d eps       ncg     rms          rms(c)
DAV:   1    -0.470626912311E+03    0.30720E-01   -0.26024E+02  1344   0.337E+01    0.301E+00
DAV:   2    -0.470975893072E+03   -0.34898E+00   -0.41586E+00  1528   0.505E+00    0.339E+00
DAV:   3    -0.470953097107E+03    0.22796E-01   -0.53771E-01  1536   0.174E+00    0.190E+00
DAV:   4    -0.470948327109E+03    0.47700E-02   -0.39209E-01  1528   0.135E+00    0.234E+00
DAV:   5    -0.470924880982E+03    0.23446E-01   -0.11640E-01  1512   0.871E-01    0.888E-01
DAV:   6    -0.470923112560E+03    0.17684E-02   -0.24188E-02  1528   0.447E-01    0.439E-01
DAV:   7    -0.470922396904E+03    0.71566E-03   -0.47958E-03  1504   0.185E-01    0.200E-01
DAV:   8    -0.470922374461E+03    0.22443E-04   -0.14037E-03  1496   0.850E-02    0.535E-02
DAV:   9    -0.470922512480E+03   -0.13802E-03   -0.15629E-04  1624   0.338E-02    0.270E-02
DAV:  10    -0.470922613147E+03   -0.10067E-03   -0.32975E-05  1032   0.165E-02    0.875E-03
DAV:  11    -0.470922701259E+03   -0.88112E-04   -0.85789E-06   984   0.691E-03    0.453E-03
DAV:  12    -0.470922786821E+03   -0.85561E-04   -0.74445E-06  1000   0.459E-03    0.276E-03
DAV:  13    -0.470922857041E+03   -0.70221E-04   -0.62112E-06   984   0.359E-03    0.163E-03
DAV:  14    -0.470922904739E+03   -0.47697E-04   -0.54207E-06   976   0.287E-03    0.156E-03
DAV:  15    -0.470922925478E+03   -0.20739E-04   -0.21311E-06   968   0.201E-03    0.847E-04
DAV:  16    -0.470922937535E+03   -0.12057E-04   -0.11667E-06   936   0.143E-03    0.532E-04
DAV:  17    -0.470922944828E+03   -0.72927E-05   -0.70127E-07   944   0.106E-03
  17 F= -.47092294E+03 E0= -.47089493E+03  d E =-.105496E+01
 curvature:  -5.43 expect dE=-0.366E+01 dE for cont linesearch -0.351E-04
 trial: gam= 0.89994 g(F)=  0.673E+00 g(S)=  0.182E-02 ort = 0.373E-02 (trialstep = 0.170E+01)
 search vector abs. value=  0.243E+01
 bond charge predicted
       N       E                     dE             d eps       ncg     rms          rms(c)
DAV:   1    -0.471328317886E+03   -0.40538E+00   -0.35632E+02  1360   0.376E+01    0.331E+00
DAV:   2    -0.471848951887E+03   -0.52063E+00   -0.62530E+00  1496   0.603E+00    0.470E+00
DAV:   3    -0.471769569878E+03    0.79382E-01   -0.96267E-01  1504   0.224E+00    0.212E+00
DAV:   4    -0.471768737979E+03    0.83190E-03   -0.34493E-01  1512   0.128E+00    0.263E+00
DAV:   5    -0.471743039883E+03    0.25698E-01   -0.12486E-01  1472   0.894E-01    0.985E-01
DAV:   6    -0.471740591161E+03    0.24487E-02   -0.27728E-02  1504   0.467E-01    0.361E-01
DAV:   7    -0.471739933761E+03    0.65740E-03   -0.51455E-03  1504   0.196E-01    0.196E-01
DAV:   8    -0.471739809269E+03    0.12449E-03   -0.15125E-03  1512   0.859E-02    0.663E-02
DAV:   9    -0.471739934762E+03   -0.12549E-03   -0.19028E-04  1520   0.375E-02    0.222E-02
DAV:  10    -0.471740037644E+03   -0.10288E-03   -0.29843E-05  1040   0.151E-02    0.109E-02
DAV:  11    -0.471740129014E+03   -0.91370E-04   -0.10765E-05   928   0.798E-03    0.603E-03
DAV:  12    -0.471740217820E+03   -0.88806E-04   -0.98712E-06   936   0.536E-03    0.251E-03
DAV:  13    -0.471740282438E+03   -0.64617E-04   -0.70715E-06   960   0.367E-03    0.214E-03
DAV:  14    -0.471740331288E+03   -0.48850E-04   -0.64332E-06   896   0.291E-03    0.144E-03
DAV:  15    -0.471740353984E+03   -0.22697E-04   -0.36254E-06   960   0.225E-03    0.716E-04
DAV:  16    -0.471740363739E+03   -0.97547E-05   -0.13557E-06   960   0.153E-03
  18 F= -.47174036E+03 E0= -.47171420E+03  d E =-.817419E+00
 trial-energy change:   -0.817419  1 .order   -0.819285   -1.154550   -0.484019
 step:   2.9292(harm=  2.9292)  dis= 0.30024  next Energy=  -471.916923 (dE=-0.994E+00)
 bond charge predicted
       N       E                     dE             d eps       ncg     rms          rms(c)
DAV:   1    -0.471717715396E+03    0.22639E-01   -0.18169E+02  1376   0.268E+01    0.230E+00
DAV:   2    -0.471958684766E+03   -0.24097E+00   -0.28890E+00  1488   0.406E+00    0.288E+00
DAV:   3    -0.471932813861E+03    0.25871E-01   -0.46544E-01  1496   0.148E+00    0.136E+00
DAV:   4    -0.471928616646E+03    0.41972E-02   -0.17711E-01  1496   0.917E-01    0.154E+00
DAV:   5    -0.471919066351E+03    0.95503E-02   -0.58748E-02  1480   0.606E-01    0.540E-01
DAV:   6    -0.471918494323E+03    0.57203E-03   -0.10074E-02  1504   0.285E-01    0.241E-01
DAV:   7    -0.471918222140E+03    0.27218E-03   -0.20807E-03  1512   0.118E-01    0.112E-01
DAV:   8    -0.471918177601E+03    0.44539E-04   -0.54905E-04  1504   0.495E-02    0.370E-02
DAV:   9    -0.471918227314E+03   -0.49713E-04   -0.76250E-05  1480   0.233E-02    0.136E-02
DAV:  10    -0.471918272943E+03   -0.45629E-04   -0.97328E-06   920   0.977E-03    0.627E-03
DAV:  11    -0.471918317392E+03   -0.44449E-04   -0.47217E-06   928   0.498E-03    0.349E-03
DAV:  12    -0.471918358829E+03   -0.41437E-04   -0.34768E-06   920   0.344E-03    0.155E-03
DAV:  13    -0.471918389611E+03   -0.30783E-04   -0.31295E-06   944   0.249E-03    0.138E-03
DAV:  14    -0.471918412470E+03   -0.22859E-04   -0.27831E-06   920   0.207E-03    0.805E-04
DAV:  15    -0.471918422154E+03   -0.96845E-05   -0.11515E-06   944   0.141E-03
  19 F= -.47191842E+03 E0= -.47189261E+03  d E =-.995477E+00
 curvature:  -5.23 expect dE=-0.402E+01 dE for cont linesearch -0.498E-04
 trial: gam= 1.03391 g(F)=  0.759E+00 g(S)=  0.840E-02 ort = 0.481E-02 (trialstep = 0.140E+01)
 search vector abs. value=  0.337E+01
 bond charge predicted
       N       E                     dE             d eps       ncg     rms          rms(c)
DAV:   1    -0.472376898132E+03   -0.45849E+00   -0.33351E+02  1344   0.368E+01    0.297E+00
DAV:   2    -0.472786765980E+03   -0.40987E+00   -0.48346E+00  1488   0.523E+00    0.264E+00
DAV:   3    -0.472772314187E+03    0.14452E-01   -0.45016E-01  1528   0.167E+00    0.159E+00
DAV:   4    -0.472766643618E+03    0.56706E-02   -0.30871E-01  1544   0.135E+00    0.177E+00
DAV:   5    -0.472749458547E+03    0.17185E-01   -0.12002E-01  1464   0.827E-01    0.521E-01
DAV:   6    -0.472749946051E+03   -0.48750E-03   -0.14520E-02  1528   0.325E-01    0.273E-01
DAV:   7    -0.472749515975E+03    0.43008E-03   -0.32715E-03  1512   0.153E-01    0.122E-01
DAV:   8    -0.472749505807E+03    0.10168E-04   -0.78190E-04  1496   0.719E-02    0.486E-02
DAV:   9    -0.472749606406E+03   -0.10060E-03   -0.12508E-04  1504   0.327E-02    0.185E-02
DAV:  10    -0.472749674834E+03   -0.68428E-04   -0.17139E-05  1024   0.122E-02    0.102E-02
DAV:  11    -0.472749754678E+03   -0.79843E-04   -0.68672E-06   896   0.874E-03    0.399E-03
DAV:  12    -0.472749814718E+03   -0.60040E-04   -0.54898E-06   936   0.602E-03    0.246E-03
DAV:  13    -0.472749880499E+03   -0.65781E-04   -0.58691E-06   936   0.506E-03    0.161E-03
DAV:  14    -0.472749904400E+03   -0.23901E-04   -0.27443E-06   912   0.315E-03    0.121E-03
DAV:  15    -0.472749917538E+03   -0.13139E-04   -0.16218E-06   888   0.199E-03    0.645E-04
DAV:  16    -0.472749926129E+03   -0.85909E-05   -0.96741E-07   904   0.143E-03
  20 F= -.47274993E+03 E0= -.47272365E+03  d E =-.831504E+00
 trial-energy change:   -0.831504  1 .order   -0.831184   -1.082020   -0.580348
 step:   3.0221(harm=  3.0221)  dis= 0.36180  next Energy=  -473.085286 (dE=-0.117E+01)
 bond charge predicted
       N       E                     dE             d eps       ncg     rms          rms(c)
DAV:   1    -0.472549423577E+03    0.20049E+00   -0.45216E+02  1344   0.427E+01    0.346E+00
DAV:   2    -0.473113186592E+03   -0.56376E+00   -0.66133E+00  1496   0.610E+00    0.272E+00
DAV:   3    -0.473093635862E+03    0.19551E-01   -0.44680E-01  1528   0.179E+00    0.169E+00
DAV:   4    -0.473093086915E+03    0.54895E-03   -0.32479E-01  1512   0.147E+00    0.188E+00
DAV:   5    -0.473071307564E+03    0.21779E-01   -0.15728E-01  1456   0.936E-01    0.568E-01
DAV:   6    -0.473071735588E+03   -0.42802E-03   -0.20145E-02  1504   0.364E-01    0.282E-01
DAV:   7    -0.473071336070E+03    0.39952E-03   -0.40576E-03  1528   0.164E-01    0.127E-01
DAV:   8    -0.473071372267E+03   -0.36197E-04   -0.75551E-04  1512   0.738E-02    0.567E-02
DAV:   9    -0.473071487208E+03   -0.11494E-03   -0.13479E-04  1488   0.352E-02    0.215E-02
DAV:  10    -0.473071579062E+03   -0.91854E-04   -0.20590E-05  1064   0.139E-02    0.109E-02
DAV:  11    -0.473071677695E+03   -0.98633E-04   -0.81555E-06   912   0.958E-03    0.411E-03
DAV:  12    -0.473071746983E+03   -0.69288E-04   -0.61574E-06   928   0.629E-03    0.276E-03
DAV:  13    -0.473071823808E+03   -0.76825E-04   -0.75039E-06   928   0.610E-03    0.188E-03
DAV:  14    -0.473071853735E+03   -0.29927E-04   -0.34704E-06   912   0.374E-03    0.137E-03
DAV:  15    -0.473071868544E+03   -0.14810E-04   -0.19938E-06   896   0.232E-03    0.717E-04
DAV:  16    -0.473071876970E+03   -0.84254E-05   -0.10717E-06   912   0.157E-03
  21 F= -.47307188E+03 E0= -.47304481E+03  d E =-.115345E+01
 curvature:  -6.59 expect dE=-0.472E+01 dE for cont linesearch -0.644E-03
 trial: gam= 0.99502 g(F)=  0.705E+00 g(S)=  0.111E-01 ort =-0.181E-01 (trialstep = 0.145E+01)
 search vector abs. value=  0.402E+01
 bond charge predicted
       N       E                     dE             d eps       ncg     rms          rms(c)
DAV:   1    -0.473327598513E+03   -0.25573E+00   -0.40859E+02  1360   0.417E+01    0.352E+00
DAV:   2    -0.473844504964E+03   -0.51691E+00   -0.61638E+00  1520   0.592E+00    0.247E+00
DAV:   3    -0.473829839463E+03    0.14666E-01   -0.41309E-01  1496   0.174E+00    0.167E+00
DAV:   4    -0.473823476085E+03    0.63634E-02   -0.21135E-01  1488   0.126E+00    0.157E+00
DAV:   5    -0.473810280657E+03    0.13195E-01   -0.86124E-02  1456   0.746E-01    0.601E-01
DAV:   6    -0.473810473304E+03   -0.19265E-03   -0.17671E-02  1472   0.341E-01    0.264E-01
DAV:   7    -0.473810223984E+03    0.24932E-03   -0.28907E-03  1560   0.147E-01    0.129E-01
DAV:   8    -0.473810264899E+03   -0.40915E-04   -0.57924E-04  1488   0.689E-02    0.487E-02
DAV:   9    -0.473810389970E+03   -0.12507E-03   -0.12433E-04  1520   0.315E-02    0.180E-02
DAV:  10    -0.473810472538E+03   -0.82568E-04   -0.11338E-05   944   0.999E-03    0.998E-03
DAV:  11    -0.473810578290E+03   -0.10575E-03   -0.96476E-06   920   0.711E-03    0.401E-03
DAV:  12    -0.473810650095E+03   -0.71805E-04   -0.51265E-06   920   0.498E-03    0.232E-03
DAV:  13    -0.473810733169E+03   -0.83074E-04   -0.87624E-06   960   0.578E-03    0.195E-03
DAV:  14    -0.473810763658E+03   -0.30489E-04   -0.34245E-06   920   0.345E-03    0.100E-03
DAV:  15    -0.473810776001E+03   -0.12343E-04   -0.17255E-06   912   0.207E-03    0.664E-04
DAV:  16    -0.473810783258E+03   -0.72565E-05   -0.78950E-07   904   0.149E-03
  22 F= -.47381078E+03 E0= -.47378343E+03  d E =-.738906E+00
 trial-energy change:   -0.738906  1 .order   -0.740095   -1.010373   -0.469817
 step:   2.7059(harm=  2.7059)  dis= 0.34179  next Energy=  -474.016139 (dE=-0.944E+00)
 bond charge predicted
       N       E                     dE             d eps       ncg     rms          rms(c)
DAV:   1    -0.473667801129E+03    0.14297E+00   -0.30560E+02  1368   0.362E+01    0.301E+00
DAV:   2    -0.474035845320E+03   -0.36804E+00   -0.44889E+00  1528   0.504E+00    0.191E+00
DAV:   3    -0.474024915386E+03    0.10930E-01   -0.23537E-01  1520   0.135E+00    0.131E+00
DAV:   4    -0.474023618820E+03    0.12966E-02   -0.11436E-01  1488   0.986E-01    0.123E+00
DAV:   5    -0.474014880363E+03    0.87385E-02   -0.58437E-02  1472   0.652E-01    0.472E-01
DAV:   6    -0.474014674339E+03    0.20602E-03   -0.11793E-02  1472   0.300E-01    0.191E-01
DAV:   7    -0.474014616078E+03    0.58261E-04   -0.16855E-03  1520   0.116E-01    0.927E-02
DAV:   8    -0.474014682929E+03   -0.66851E-04   -0.30974E-04  1544   0.501E-02    0.408E-02
DAV:   9    -0.474014792877E+03   -0.10995E-03   -0.90770E-05  1504   0.267E-02    0.165E-02
DAV:  10    -0.474014871193E+03   -0.78316E-04   -0.92265E-06   904   0.929E-03    0.852E-03
DAV:  11    -0.474014962817E+03   -0.91624E-04   -0.77671E-06   912   0.637E-03    0.398E-03
DAV:  12    -0.474015040853E+03   -0.78037E-04   -0.59363E-06   944   0.571E-03    0.213E-03
DAV:  13    -0.474015105959E+03   -0.65106E-04   -0.70067E-06   960   0.535E-03    0.172E-03
DAV:  14    -0.474015128964E+03   -0.23004E-04   -0.23504E-06   920   0.291E-03    0.968E-04
DAV:  15    -0.474015135331E+03   -0.63669E-05   -0.83373E-07   920   0.165E-03
  23 F= -.47401514E+03 E0= -.47398757E+03  d E =-.943258E+00
 curvature:  -7.79 expect dE=-0.428E+01 dE for cont linesearch -0.240E-04
 trial: gam= 0.71553 g(F)=  0.546E+00 g(S)=  0.327E-02 ort = 0.352E-02 (trialstep = 0.170E+01)
 search vector abs. value=  0.261E+01
 bond charge predicted
       N       E                     dE             d eps       ncg     rms          rms(c)
DAV:   1    -0.474280048167E+03   -0.26492E+00   -0.33936E+02  1344   0.410E+01    0.356E+00
DAV:   2    -0.474720567632E+03   -0.44052E+00   -0.54587E+00  1512   0.569E+00    0.202E+00
DAV:   3    -0.474700624701E+03    0.19943E-01   -0.22721E-01  1552   0.141E+00    0.143E+00
DAV:   4    -0.474697945030E+03    0.26797E-02   -0.83771E-02  1504   0.911E-01    0.114E+00
DAV:   5    -0.474694364453E+03    0.35806E-02   -0.71477E-02  1464   0.713E-01    0.596E-01
DAV:   6    -0.474692182058E+03    0.21824E-02   -0.19913E-02  1464   0.432E-01    0.186E-01
DAV:   7    -0.474692258620E+03   -0.76562E-04   -0.19839E-03  1504   0.124E-01    0.902E-02
DAV:   8    -0.474692283140E+03   -0.24520E-04   -0.29006E-04  1544   0.487E-02    0.432E-02
DAV:   9    -0.474692351092E+03   -0.67952E-04   -0.11856E-04  1472   0.295E-02    0.156E-02
DAV:  10    -0.474692389539E+03   -0.38448E-04   -0.12565E-05   920   0.124E-02    0.899E-03
DAV:  11    -0.474692444440E+03   -0.54901E-04   -0.72150E-06   872   0.797E-03    0.408E-03
DAV:  12    -0.474692480570E+03   -0.36130E-04   -0.33419E-06   912   0.455E-03    0.243E-03
DAV:  13    -0.474692521036E+03   -0.40466E-04   -0.46129E-06   896   0.407E-03    0.154E-03
DAV:  14    -0.474692543701E+03   -0.22665E-04   -0.32001E-06   920   0.293E-03    0.998E-04
DAV:  15    -0.474692554230E+03   -0.10528E-04   -0.16365E-06   928   0.201E-03    0.633E-04
DAV:  16    -0.474692560531E+03   -0.63011E-05   -0.10640E-06   904   0.143E-03
  24 F= -.47469256E+03 E0= -.47466483E+03  d E =-.677425E+00
 trial-energy change:   -0.677425  1 .order   -0.677863   -0.937736   -0.417989
 step:   3.0659(harm=  3.0659)  dis= 0.27951  next Energy=  -474.861074 (dE=-0.846E+00)
 bond charge predicted
       N       E                     dE             d eps       ncg     rms          rms(c)
DAV:   1    -0.474601493996E+03    0.91060E-01   -0.21765E+02  1344   0.327E+01    0.277E+00
DAV:   2    -0.474876432639E+03   -0.27494E+00   -0.34429E+00  1520   0.451E+00    0.154E+00
DAV:   3    -0.474862734986E+03    0.13698E-01   -0.13443E-01  1552   0.110E+00    0.110E+00
DAV:   4    -0.474858715100E+03    0.40199E-02   -0.34931E-02  1568   0.573E-01    0.624E-01
DAV:   5    -0.474860085306E+03   -0.13702E-02   -0.20132E-02  1464   0.428E-01    0.442E-01
DAV:   6    -0.474858658514E+03    0.14268E-02   -0.16962E-02  1472   0.342E-01    0.178E-01
DAV:   7    -0.474858425823E+03    0.23269E-03   -0.21438E-03  1472   0.138E-01    0.670E-02
DAV:   8    -0.474858471074E+03   -0.45251E-04   -0.22680E-04  1480   0.400E-02    0.332E-02
DAV:   9    -0.474858511636E+03   -0.40563E-04   -0.53974E-05  1400   0.221E-02    0.134E-02
DAV:  10    -0.474858541302E+03   -0.29665E-04   -0.10819E-05   920   0.110E-02    0.802E-03
DAV:  11    -0.474858577010E+03   -0.35708E-04   -0.52824E-06   880   0.667E-03    0.394E-03
DAV:  12    -0.474858609455E+03   -0.32445E-04   -0.33024E-06   888   0.467E-03    0.238E-03
DAV:  13    -0.474858632926E+03   -0.23471E-04   -0.27440E-06   920   0.337E-03    0.169E-03
DAV:  14    -0.474858651655E+03   -0.18729E-04   -0.21430E-06   880   0.265E-03    0.971E-04
DAV:  15    -0.474858664941E+03   -0.13286E-04   -0.21484E-06   928   0.210E-03    0.769E-04
DAV:  16    -0.474858668973E+03   -0.40316E-05   -0.70487E-07   928   0.138E-03
  25 F= -.47485867E+03 E0= -.47483083E+03  d E =-.843534E+00
 curvature:  -7.25 expect dE=-0.378E+01 dE for cont linesearch -0.402E-04
 trial: gam= 0.96173 g(F)=  0.476E+00 g(S)=  0.450E-01 ort =-0.381E-02 (trialstep = 0.176E+01)
 search vector abs. value=  0.293E+01
 bond charge predicted
       N       E                     dE             d eps       ncg     rms          rms(c)
DAV:   1    -0.474985521926E+03   -0.12686E+00   -0.37057E+02  1344   0.450E+01    0.442E+00
DAV:   2    -0.475486843242E+03   -0.50132E+00   -0.71755E+00  1552   0.670E+00    0.287E+00
DAV:   3    -0.475447038577E+03    0.39805E-01   -0.84368E-01  1456   0.330E+00    0.240E+00
DAV:   4    -0.475403726328E+03    0.43312E-01   -0.26598E-01  1472   0.133E+00    0.130E+00
DAV:   5    -0.475398382203E+03    0.53441E-02   -0.47453E-02  1432   0.672E-01    0.676E-01
DAV:   6    -0.475397247708E+03    0.11345E-02   -0.18613E-02  1536   0.403E-01    0.151E-01
DAV:   7    -0.475397445998E+03   -0.19829E-03   -0.26186E-03  1584   0.139E-01    0.105E-01
DAV:   8    -0.475397549946E+03   -0.10395E-03   -0.35782E-04  1472   0.527E-02    0.527E-02
DAV:   9    -0.475397721171E+03   -0.17123E-03   -0.88466E-05  1448   0.281E-02    0.165E-02
DAV:  10    -0.475397856984E+03   -0.13581E-03   -0.15673E-05   928   0.144E-02    0.818E-03
DAV:  11    -0.475397978413E+03   -0.12143E-03   -0.11239E-05   936   0.104E-02    0.529E-03
DAV:  12    -0.475398126708E+03   -0.14830E-03   -0.12954E-05   976   0.109E-02    0.262E-03
DAV:  13    -0.475398197717E+03   -0.71008E-04   -0.81894E-06   936   0.692E-03    0.267E-03
DAV:  14    -0.475398230128E+03   -0.32412E-04   -0.30200E-06   880   0.379E-03    0.152E-03
DAV:  15    -0.475398254132E+03   -0.24004E-04   -0.23793E-06   888   0.255E-03    0.765E-04
DAV:  16    -0.475398263246E+03   -0.91136E-05   -0.98152E-07   912   0.161E-03
  26 F= -.47539826E+03 E0= -.47537024E+03  d E =-.539594E+00
 trial-energy change:   -0.539594  1 .order   -0.535092   -0.909471   -0.160714
 step:   2.1205(harm=  2.1362)  dis= 0.17860  next Energy=  -475.414831 (dE=-0.556E+00)
 bond charge predicted
       N       E                     dE             d eps       ncg     rms          rms(c)
DAV:   1    -0.475398697884E+03   -0.44375E-03   -0.15452E+01  1344   0.918E+00    0.827E-01
DAV:   2    -0.475418662308E+03   -0.19964E-01   -0.28402E-01  1552   0.136E+00    0.625E-01
DAV:   3    -0.475416830258E+03    0.18321E-02   -0.43205E-02  1448   0.639E-01    0.467E-01
DAV:   4    -0.475414956020E+03    0.18742E-02   -0.86962E-03  1472   0.282E-01    0.239E-01
DAV:   5    -0.475414822181E+03    0.13384E-03   -0.17127E-03  1496   0.125E-01    0.986E-02
DAV:   6    -0.475414826327E+03   -0.41463E-05   -0.45885E-04  1488   0.660E-02    0.287E-02
DAV:   7    -0.475414839340E+03   -0.13013E-04   -0.67154E-05  1280   0.233E-02    0.176E-02
DAV:   8    -0.475414848458E+03   -0.91179E-05   -0.10376E-05   856   0.945E-03
  27 F= -.47541485E+03 E0= -.47538677E+03  d E =-.556179E+00
 curvature:  -6.04 expect dE=-0.173E+01 dE for cont linesearch -0.652E-06
 trial: gam= 0.47617 g(F)=  0.280E+00 g(S)=  0.569E-02 ort =-0.562E-03 (trialstep = 0.183E+01)
 search vector abs. value=  0.949E+00
 bond charge predicted
       N       E                     dE             d eps       ncg     rms          rms(c)
DAV:   1    -0.475624648015E+03   -0.20981E+00   -0.11445E+02  1344   0.271E+01    0.264E+00
DAV:   2    -0.475778056543E+03   -0.15341E+00   -0.23275E+00  1528   0.394E+00    0.186E+00
DAV:   3    -0.475758167705E+03    0.19889E-01   -0.33931E-01  1456   0.193E+00    0.139E+00
DAV:   4    -0.475742031046E+03    0.16137E-01   -0.10107E-01  1464   0.891E-01    0.716E-01
DAV:   5    -0.475740173138E+03    0.18579E-02   -0.18837E-02  1496   0.405E-01    0.312E-01
DAV:   6    -0.475740093590E+03    0.79548E-04   -0.53940E-03  1528   0.198E-01    0.876E-02
DAV:   7    -0.475740115850E+03   -0.22260E-04   -0.72922E-04  1584   0.689E-02    0.584E-02
DAV:   8    -0.475740137100E+03   -0.21250E-04   -0.12551E-04  1432   0.313E-02    0.265E-02
DAV:   9    -0.475740173776E+03   -0.36676E-04   -0.19428E-05   944   0.141E-02    0.870E-03
DAV:  10    -0.475740204895E+03   -0.31119E-04   -0.57263E-06   872   0.812E-03    0.393E-03
DAV:  11    -0.475740238243E+03   -0.33348E-04   -0.30178E-06   904   0.540E-03    0.215E-03
DAV:  12    -0.475740266995E+03   -0.28752E-04   -0.24702E-06   864   0.421E-03    0.123E-03
DAV:  13    -0.475740290260E+03   -0.23265E-04   -0.21798E-06   920   0.311E-03    0.892E-04
DAV:  14    -0.475740303126E+03   -0.12866E-04   -0.12626E-06   872   0.207E-03    0.558E-04
DAV:  15    -0.475740310007E+03   -0.68809E-05   -0.79062E-07   896   0.137E-03
  28 F= -.47574031E+03 E0= -.47571211E+03  d E =-.325462E+00
 trial-energy change:   -0.325462  1 .order   -0.324688   -0.522934   -0.126442
 step:   2.4150(harm=  2.4150)  dis= 0.08405  next Energy=  -475.759697 (dE=-0.345E+00)
 bond charge predicted
       N       E                     dE             d eps       ncg     rms          rms(c)
DAV:   1    -0.475748519617E+03   -0.82165E-02   -0.11631E+01  1344   0.864E+00    0.816E-01
DAV:   2    -0.475763925138E+03   -0.15406E-01   -0.23342E-01  1536   0.126E+00    0.617E-01
DAV:   3    -0.475761837011E+03    0.20881E-02   -0.40740E-02  1440   0.604E-01    0.445E-01
DAV:   4    -0.475760122126E+03    0.17149E-02   -0.96982E-03  1488   0.293E-01    0.222E-01
DAV:   5    -0.475759999718E+03    0.12241E-03   -0.17795E-03  1536   0.121E-01    0.862E-02
DAV:   6    -0.475760009755E+03   -0.10037E-04   -0.41890E-04  1504   0.544E-02    0.291E-02
DAV:   7    -0.475760013362E+03   -0.36065E-05   -0.62448E-05  1208   0.204E-02
  29 F= -.47576001E+03 E0= -.47573176E+03  d E =-.345165E+00
 curvature:  -4.01 expect dE=-0.825E+00 dE for cont linesearch -0.935E-05
 trial: gam= 0.70133 g(F)=  0.193E+00 g(S)=  0.125E-01 ort =-0.149E-02 (trialstep = 0.195E+01)
 search vector abs. value=  0.670E+00
 bond charge predicted
       N       E                     dE             d eps       ncg     rms          rms(c)
DAV:   1    -0.475880461642E+03   -0.12045E+00   -0.92100E+01  1344   0.252E+01    0.207E+00
DAV:   2    -0.476006511894E+03   -0.12605E+00   -0.17217E+00  1568   0.338E+00    0.121E+00
DAV:   3    -0.475998602757E+03    0.79091E-02   -0.85578E-02  1640   0.880E-01    0.847E-01
DAV:   4    -0.475998257135E+03    0.34562E-03   -0.38227E-02  1472   0.584E-01    0.638E-01
DAV:   5    -0.475996306779E+03    0.19504E-02   -0.28675E-02  1440   0.496E-01    0.354E-01
DAV:   6    -0.475995486267E+03    0.82051E-03   -0.67281E-03  1456   0.238E-01    0.909E-02
DAV:   7    -0.475995552936E+03   -0.66669E-04   -0.84262E-04  1496   0.729E-02    0.489E-02
DAV:   8    -0.475995598901E+03   -0.45965E-04   -0.13317E-04  1456   0.252E-02    0.245E-02
DAV:   9    -0.475995653375E+03   -0.54474E-04   -0.28768E-05   936   0.153E-02    0.111E-02
DAV:  10    -0.475995695641E+03   -0.42267E-04   -0.72521E-06   872   0.823E-03    0.490E-03
DAV:  11    -0.475995740968E+03   -0.45327E-04   -0.38419E-06   912   0.554E-03    0.224E-03
DAV:  12    -0.475995786987E+03   -0.46018E-04   -0.40302E-06   888   0.471E-03    0.186E-03
DAV:  13    -0.475995817474E+03   -0.30487E-04   -0.31026E-06   904   0.334E-03    0.116E-03
DAV:  14    -0.475995830112E+03   -0.12638E-04   -0.14430E-06   888   0.205E-03    0.710E-04
DAV:  15    -0.475995841001E+03   -0.10889E-04   -0.92721E-07   888   0.148E-03    0.422E-04
DAV:  16    -0.475995845935E+03   -0.49337E-05   -0.59239E-07   888   0.112E-03
  30 F= -.47599585E+03 E0= -.47596753E+03  d E =-.235833E+00
 trial-energy change:   -0.235833  1 .order   -0.236778   -0.398202   -0.075353
 step:   2.4126(harm=  2.4025)  dis= 0.04587  next Energy=  -476.004822 (dE=-0.245E+00)
 bond charge predicted
       N       E                     dE             d eps       ncg     rms          rms(c)
DAV:   1    -0.475998374637E+03   -0.25336E-02   -0.52355E+00  1344   0.601E+00    0.475E-01
DAV:   2    -0.476005389257E+03   -0.70146E-02   -0.96083E-02  1560   0.798E-01    0.285E-01
DAV:   3    -0.476004947750E+03    0.44151E-03   -0.48709E-03  1616   0.212E-01    0.196E-01
DAV:   4    -0.476004987827E+03   -0.40077E-04   -0.26680E-03  1440   0.152E-01    0.161E-01
DAV:   5    -0.476004815327E+03    0.17250E-03   -0.17663E-03  1448   0.118E-01    0.714E-02
DAV:   6    -0.476004792609E+03    0.22718E-04   -0.28205E-04  1440   0.495E-02    0.207E-02
DAV:   7    -0.476004796695E+03   -0.40857E-05   -0.41201E-05  1056   0.164E-02
  31 F= -.47600480E+03 E0= -.47597646E+03  d E =-.244783E+00
 curvature:  -3.94 expect dE=-0.506E+00 dE for cont linesearch -0.211E-06
 trial: gam= 0.61613 g(F)=  0.129E+00 g(S)=  0.952E-04 ort =-0.189E-03 (trialstep = 0.204E+01)
 search vector abs. value=  0.383E+00
 bond charge predicted
       N       E                     dE             d eps       ncg     rms          rms(c)
DAV:   1    -0.476122077229E+03   -0.11728E+00   -0.56451E+01  1344   0.199E+01    0.149E+00
DAV:   2    -0.476196481666E+03   -0.74404E-01   -0.10043E+00  1520   0.257E+00    0.919E-01
DAV:   3    -0.476193972352E+03    0.25093E-02   -0.56774E-02  1616   0.697E-01    0.648E-01
DAV:   4    -0.476194227560E+03   -0.25521E-03   -0.30513E-02  1456   0.478E-01    0.530E-01
DAV:   5    -0.476192225338E+03    0.20022E-02   -0.15791E-02  1424   0.359E-01    0.189E-01
DAV:   6    -0.476192246118E+03   -0.20780E-04   -0.21450E-03  1464   0.125E-01    0.578E-02
DAV:   7    -0.476192253693E+03   -0.75758E-05   -0.37583E-04  1568   0.437E-02    0.319E-02
DAV:   8    -0.476192268574E+03   -0.14881E-04   -0.48738E-05   968   0.172E-02    0.177E-02
DAV:   9    -0.476192294353E+03   -0.25779E-04   -0.17074E-05   864   0.122E-02    0.627E-03
DAV:  10    -0.476192310116E+03   -0.15763E-04   -0.40265E-06   896   0.599E-03    0.310E-03
DAV:  11    -0.476192327028E+03   -0.16912E-04   -0.18528E-06   816   0.318E-03    0.139E-03
DAV:  12    -0.476192343935E+03   -0.16906E-04   -0.16069E-06   848   0.237E-03    0.970E-04
DAV:  13    -0.476192354269E+03   -0.10334E-04   -0.10576E-06   864   0.178E-03    0.746E-04
DAV:  14    -0.476192362195E+03   -0.79264E-05   -0.10447E-06   872   0.159E-03
  32 F= -.47619236E+03 E0= -.47616395E+03  d E =-.187565E+00
 trial-energy change:   -0.187565  1 .order   -0.187480   -0.262315   -0.112645
 step:   3.5768(harm=  3.5768)  dis= 0.04775  next Energy=  -476.234666 (dE=-0.230E+00)
 bond charge predicted
       N       E                     dE             d eps       ncg     rms          rms(c)
DAV:   1    -0.476194649948E+03   -0.22957E-02   -0.31953E+01  1344   0.149E+01    0.112E+00
DAV:   2    -0.476236665029E+03   -0.42015E-01   -0.56841E-01  1512   0.193E+00    0.695E-01
DAV:   3    -0.476235244085E+03    0.14209E-02   -0.32361E-02  1616   0.528E-01    0.487E-01
DAV:   4    -0.476235351055E+03   -0.10697E-03   -0.17426E-02  1456   0.361E-01    0.396E-01
DAV:   5    -0.476234270242E+03    0.10808E-02   -0.89733E-03  1424   0.262E-01    0.140E-01
DAV:   6    -0.476234286904E+03   -0.16662E-04   -0.12424E-03  1456   0.919E-02    0.443E-02
DAV:   7    -0.476234289241E+03   -0.23375E-05   -0.21880E-04  1552   0.322E-02    0.246E-02
DAV:   8    -0.476234298260E+03   -0.90192E-05   -0.29660E-05   928   0.135E-02
  33 F= -.47623430E+03 E0= -.47620577E+03  d E =-.229502E+00
 curvature:  -5.33 expect dE=-0.923E+00 dE for cont linesearch -0.191E-05
 trial: gam= 1.33753 g(F)=  0.172E+00 g(S)=  0.152E-02 ort =-0.370E-03 (trialstep = 0.105E+01)
 search vector abs. value=  0.857E+00
 bond charge predicted
       N       E                     dE             d eps       ncg     rms          rms(c)
DAV:   1    -0.476338898948E+03   -0.10461E+00   -0.33453E+01  1344   0.153E+01    0.114E+00
DAV:   2    -0.476384008797E+03   -0.45110E-01   -0.60884E-01  1576   0.199E+00    0.754E-01
DAV:   3    -0.476382221461E+03    0.17873E-02   -0.40032E-02  1488   0.597E-01    0.557E-01
DAV:   4    -0.476381275913E+03    0.94555E-03   -0.21670E-02  1464   0.389E-01    0.397E-01
DAV:   5    -0.476380436435E+03    0.83948E-03   -0.77816E-03  1424   0.242E-01    0.125E-01
DAV:   6    -0.476380539186E+03   -0.10275E-03   -0.12250E-03  1592   0.813E-02    0.495E-02
DAV:   7    -0.476380531944E+03    0.72420E-05   -0.19554E-04  1544   0.308E-02    0.284E-02
DAV:   8    -0.476380539431E+03   -0.74871E-05   -0.34177E-05   968   0.157E-02
  34 F= -.47638054E+03 E0= -.47635180E+03  d E =-.146241E+00
 trial-energy change:   -0.146241  1 .order   -0.145868   -0.181114   -0.110621
 step:   2.5755(harm=  2.6947)  dis= 0.05128  next Energy=  -476.462201 (dE=-0.228E+00)
 bond charge predicted
       N       E                     dE             d eps       ncg     rms          rms(c)
DAV:   1    -0.476377448356E+03    0.30836E-02   -0.70920E+01  1344   0.223E+01    0.169E+00
DAV:   2    -0.476472943503E+03   -0.95495E-01   -0.12933E+00  1544   0.291E+00    0.110E+00
DAV:   3    -0.476469256299E+03    0.36872E-02   -0.86505E-02  1496   0.856E-01    0.799E-01
DAV:   4    -0.476467447349E+03    0.18090E-02   -0.45805E-02  1456   0.551E-01    0.581E-01
DAV:   5    -0.476465534879E+03    0.19125E-02   -0.17081E-02  1440   0.354E-01    0.186E-01
DAV:   6    -0.476465718678E+03   -0.18380E-03   -0.26910E-03  1608   0.119E-01    0.743E-02
DAV:   7    -0.476465710666E+03    0.80126E-05   -0.47372E-04  1528   0.456E-02    0.420E-02
DAV:   8    -0.476465731519E+03   -0.20854E-04   -0.87823E-05  1168   0.236E-02    0.216E-02
DAV:   9    -0.476465770547E+03   -0.39028E-04   -0.25850E-05   968   0.136E-02    0.652E-03
DAV:  10    -0.476465791273E+03   -0.20725E-04   -0.51588E-06   904   0.686E-03    0.364E-03
DAV:  11    -0.476465818466E+03   -0.27194E-04   -0.27321E-06   832   0.474E-03    0.150E-03
DAV:  12    -0.476465845068E+03   -0.26601E-04   -0.21499E-06   888   0.336E-03    0.121E-03
DAV:  13    -0.476465860082E+03   -0.15014E-04   -0.14957E-06   880   0.223E-03    0.758E-04
DAV:  14    -0.476465868572E+03   -0.84898E-05   -0.10470E-06   880   0.159E-03
  35 F= -.47646587E+03 E0= -.47643664E+03  d E =-.231570E+00
 curvature:  -6.65 expect dE=-0.738E+00 dE for cont linesearch -0.260E-03
 trial: gam= 0.57052 g(F)=  0.108E+00 g(S)=  0.274E-02 ort = 0.579E-02 (trialstep = 0.135E+01)
 search vector abs. value=  0.397E+00
 bond charge predicted
       N       E                     dE             d eps       ncg     rms          rms(c)
DAV:   1    -0.476550593057E+03   -0.84733E-01   -0.25833E+01  1344   0.139E+01    0.104E+00
DAV:   2    -0.476588645543E+03   -0.38052E-01   -0.49960E-01  1616   0.182E+00    0.671E-01
DAV:   3    -0.476585364247E+03    0.32813E-02   -0.24131E-02  1608   0.489E-01    0.448E-01
DAV:   4    -0.476585564628E+03   -0.20038E-03   -0.16865E-02  1480   0.373E-01    0.366E-01
DAV:   5    -0.476584507810E+03    0.10568E-02   -0.98034E-03  1488   0.251E-01    0.120E-01
DAV:   6    -0.476584537675E+03   -0.29865E-04   -0.14554E-03  1496   0.892E-02    0.602E-02
DAV:   7    -0.476584522316E+03    0.15359E-04   -0.27853E-04  1584   0.315E-02    0.360E-02
DAV:   8    -0.476584526833E+03   -0.45166E-05   -0.56541E-05  1016   0.207E-02
  36 F= -.47658453E+03 E0= -.47655493E+03  d E =-.118658E+00
 trial-energy change:   -0.118658  1 .order   -0.118726   -0.154787   -0.082666
 step:   2.9063(harm=  2.9063)  dis= 0.03462  next Energy=  -476.631970 (dE=-0.166E+00)
 bond charge predicted
       N       E                     dE             d eps       ncg     rms          rms(c)
DAV:   1    -0.476586900107E+03   -0.23778E-02   -0.33960E+01  1344   0.160E+01    0.120E+00
DAV:   2    -0.476637218384E+03   -0.50318E-01   -0.65875E-01  1616   0.209E+00    0.771E-01
DAV:   3    -0.476632868096E+03    0.43503E-02   -0.32323E-02  1616   0.564E-01    0.519E-01
DAV:   4    -0.476633017690E+03   -0.14959E-03   -0.22448E-02  1472   0.424E-01    0.422E-01
DAV:   5    -0.476631648561E+03    0.13691E-02   -0.13258E-02  1488   0.284E-01    0.141E-01
DAV:   6    -0.476631696204E+03   -0.47643E-04   -0.20788E-03  1472   0.103E-01    0.716E-02
DAV:   7    -0.476631679649E+03    0.16554E-04   -0.41276E-04  1600   0.366E-02    0.422E-02
DAV:   8    -0.476631694490E+03   -0.14841E-04   -0.84285E-05  1120   0.243E-02    0.204E-02
DAV:   9    -0.476631723455E+03   -0.28965E-04   -0.22672E-05   896   0.124E-02    0.606E-03
DAV:  10    -0.476631741042E+03   -0.17587E-04   -0.37945E-06   912   0.664E-03    0.433E-03
DAV:  11    -0.476631768532E+03   -0.27490E-04   -0.29476E-06   824   0.601E-03    0.147E-03
DAV:  12    -0.476631787013E+03   -0.18481E-04   -0.20552E-06   896   0.348E-03    0.145E-03
DAV:  13    -0.476631799281E+03   -0.12268E-04   -0.10191E-06   856   0.195E-03    0.821E-04
DAV:  14    -0.476631809180E+03   -0.98996E-05   -0.11166E-06   896   0.166E-03
  37 F= -.47663181E+03 E0= -.47660172E+03  d E =-.165941E+00
 curvature:  -5.04 expect dE=-0.410E+00 dE for cont linesearch -0.646E-06
 trial: gam= 0.77272 g(F)=  0.811E-01 g(S)=  0.171E-03 ort =-0.225E-03 (trialstep = 0.166E+01)
 search vector abs. value=  0.318E+00
 bond charge predicted
       N       E                     dE             d eps       ncg     rms          rms(c)
DAV:   1    -0.476699486228E+03   -0.67687E-01   -0.29897E+01  1344   0.151E+01    0.111E+00
DAV:   2    -0.476742942643E+03   -0.43456E-01   -0.58912E-01  1648   0.196E+00    0.782E-01
DAV:   3    -0.476739361066E+03    0.35816E-02   -0.43976E-02  1504   0.593E-01    0.571E-01
DAV:   4    -0.476737873050E+03    0.14880E-02   -0.21105E-02  1448   0.390E-01    0.376E-01
DAV:   5    -0.476737388716E+03    0.48433E-03   -0.79656E-03  1424   0.232E-01    0.126E-01
DAV:   6    -0.476737512587E+03   -0.12387E-03   -0.15618E-03  1608   0.909E-02    0.569E-02
DAV:   7    -0.476737508174E+03    0.44125E-05   -0.26865E-04  1464   0.319E-02    0.325E-02
DAV:   8    -0.476737523622E+03   -0.15447E-04   -0.57038E-05  1016   0.215E-02    0.161E-02
DAV:   9    -0.476737547407E+03   -0.23785E-04   -0.16213E-05   864   0.121E-02    0.471E-03
DAV:  10    -0.476737562266E+03   -0.14860E-04   -0.33373E-06   896   0.534E-03    0.350E-03
DAV:  11    -0.476737580236E+03   -0.17969E-04   -0.20486E-06   840   0.330E-03    0.132E-03
DAV:  12    -0.476737594511E+03   -0.14275E-04   -0.14413E-06   864   0.238E-03    0.101E-03
DAV:  13    -0.476737605009E+03   -0.10498E-04   -0.10872E-06   872   0.204E-03    0.682E-04
DAV:  14    -0.476737612518E+03   -0.75088E-05   -0.95222E-07   872   0.161E-03
  38 F= -.47673761E+03 E0= -.47670784E+03  d E =-.105803E+00
 trial-energy change:   -0.105803  1 .order   -0.105728   -0.134929   -0.076526
 step:   3.8457(harm=  3.8457)  dis= 0.04264  next Energy=  -476.787673 (dE=-0.156E+00)
 bond charge predicted
       N       E                     dE             d eps       ncg     rms          rms(c)
DAV:   1    -0.476721326083E+03    0.16279E-01   -0.51284E+01  1344   0.198E+01    0.147E+00
DAV:   2    -0.476796419957E+03   -0.75094E-01   -0.10109E+00  1640   0.257E+00    0.101E+00
DAV:   3    -0.476790423699E+03    0.59963E-02   -0.70951E-02  1520   0.762E-01    0.736E-01
DAV:   4    -0.476788160899E+03    0.22628E-02   -0.33814E-02  1456   0.505E-01    0.502E-01
DAV:   5    -0.476787086515E+03    0.10744E-02   -0.13566E-02  1464   0.306E-01    0.167E-01
DAV:   6    -0.476787292900E+03   -0.20639E-03   -0.25161E-03  1592   0.123E-01    0.711E-02
DAV:   7    -0.476787292964E+03   -0.64047E-07   -0.41581E-04  1472   0.420E-02    0.395E-02
DAV:   8    -0.476787320113E+03   -0.27148E-04   -0.87828E-05  1096   0.263E-02    0.189E-02
DAV:   9    -0.476787355925E+03   -0.35812E-04   -0.23736E-05   920   0.145E-02    0.618E-03
DAV:  10    -0.476787380162E+03   -0.24237E-04   -0.49014E-06   880   0.643E-03    0.415E-03
DAV:  11    -0.476787411048E+03   -0.30886E-04   -0.34196E-06   872   0.411E-03    0.162E-03
DAV:  12    -0.476787434796E+03   -0.23748E-04   -0.23199E-06   856   0.302E-03    0.128E-03
DAV:  13    -0.476787451686E+03   -0.16890E-04   -0.18605E-06   888   0.264E-03    0.856E-04
DAV:  14    -0.476787462412E+03   -0.10725E-04   -0.15130E-06   880   0.201E-03    0.539E-04
DAV:  15    -0.476787466677E+03   -0.42653E-05   -0.68434E-07   896   0.129E-03
  39 F= -.47678747E+03 E0= -.47675812E+03  d E =-.155657E+00
 curvature:  -7.54 expect dE=-0.772E+00 dE for cont linesearch -0.291E-05
 trial: gam= 1.19980 g(F)=  0.932E-01 g(S)=  0.918E-02 ort =-0.351E-03 (trialstep = 0.119E+01)
 search vector abs. value=  0.559E+00
 bond charge predicted
       N       E                     dE             d eps       ncg     rms          rms(c)
DAV:   1    -0.476848704333E+03   -0.61242E-01   -0.27188E+01  1344   0.144E+01    0.109E+00
DAV:   2    -0.476887185881E+03   -0.38482E-01   -0.52174E-01  1592   0.184E+00    0.697E-01
DAV:   3    -0.476884104311E+03    0.30816E-02   -0.26885E-02  1528   0.519E-01    0.470E-01
DAV:   4    -0.476883915048E+03    0.18926E-03   -0.18435E-02  1432   0.384E-01    0.375E-01
DAV:   5    -0.476883023305E+03    0.89174E-03   -0.70087E-03  1440   0.230E-01    0.996E-02
DAV:   6    -0.476883141411E+03   -0.11811E-03   -0.84827E-04  1544   0.662E-02    0.484E-02
DAV:   7    -0.476883151968E+03   -0.10557E-04   -0.15460E-04  1496   0.293E-02    0.260E-02
DAV:   8    -0.476883167050E+03   -0.15082E-04   -0.30547E-05   960   0.158E-02    0.116E-02
DAV:   9    -0.476883183906E+03   -0.16856E-04   -0.92435E-06   872   0.862E-03    0.404E-03
DAV:  10    -0.476883195578E+03   -0.11671E-04   -0.25206E-06   856   0.401E-03    0.248E-03
DAV:  11    -0.476883211435E+03   -0.15858E-04   -0.19516E-06   840   0.291E-03    0.103E-03
DAV:  12    -0.476883220253E+03   -0.88174E-05   -0.10535E-06   896   0.202E-03
  40 F= -.47688322E+03 E0= -.47685458E+03  d E =-.957536E-01
 trial-energy change:   -0.095754  1 .order   -0.095773   -0.121802   -0.069745
 step:   2.7940(harm=  2.7940)  dis= 0.03899  next Energy=  -476.929961 (dE=-0.142E+00)
 bond charge predicted
       N       E                     dE             d eps       ncg     rms          rms(c)
DAV:   1    -0.476867236757E+03    0.15975E-01   -0.48819E+01  1344   0.192E+01    0.148E+00
DAV:   2    -0.476936775115E+03   -0.69538E-01   -0.94346E-01  1552   0.249E+00    0.948E-01
DAV:   3    -0.476931643024E+03    0.51321E-02   -0.53562E-02  1496   0.728E-01    0.655E-01
DAV:   4    -0.476930543550E+03    0.10995E-02   -0.32729E-02  1424   0.515E-01    0.499E-01
DAV:   5    -0.476929071598E+03    0.14720E-02   -0.10975E-02  1416   0.303E-01    0.133E-01
DAV:   6    -0.476929304061E+03   -0.23246E-03   -0.13174E-03  1600   0.911E-02    0.602E-02
DAV:   7    -0.476929321365E+03   -0.17304E-04   -0.20335E-04  1472   0.386E-02    0.320E-02
DAV:   8    -0.476929351391E+03   -0.30026E-04   -0.39057E-05  1064   0.193E-02    0.131E-02
DAV:   9    -0.476929379123E+03   -0.27733E-04   -0.98856E-06   832   0.987E-03    0.489E-03
DAV:  10    -0.476929401313E+03   -0.22189E-04   -0.32881E-06   896   0.455E-03    0.276E-03
DAV:  11    -0.476929430386E+03   -0.29073E-04   -0.31863E-06   856   0.357E-03    0.133E-03
DAV:  12    -0.476929446744E+03   -0.16358E-04   -0.18053E-06   912   0.264E-03    0.107E-03
DAV:  13    -0.476929461125E+03   -0.14381E-04   -0.16953E-06   840   0.249E-03    0.595E-04
DAV:  14    -0.476929467323E+03   -0.61983E-05   -0.95099E-07   904   0.160E-03
  41 F= -.47692947E+03 E0= -.47690148E+03  d E =-.142001E+00
 curvature:  -7.65 expect dE=-0.549E+00 dE for cont linesearch -0.134E-04
 trial: gam= 0.68870 g(F)=  0.696E-01 g(S)=  0.203E-02 ort =-0.989E-03 (trialstep = 0.151E+01)
 search vector abs. value=  0.335E+00
 bond charge predicted
       N       E                     dE             d eps       ncg     rms          rms(c)
DAV:   1    -0.476979061135E+03   -0.49600E-01   -0.27116E+01  1352   0.141E+01    0.114E+00
DAV:   2    -0.477015561793E+03   -0.36501E-01   -0.52008E-01  1568   0.186E+00    0.733E-01
DAV:   3    -0.477012803774E+03    0.27580E-02   -0.39188E-02  1496   0.620E-01    0.524E-01
DAV:   4    -0.477011322580E+03    0.14812E-02   -0.19079E-02  1448   0.402E-01    0.355E-01
DAV:   5    -0.477010904403E+03    0.41818E-03   -0.49222E-03  1448   0.212E-01    0.979E-02
DAV:   6    -0.477011065834E+03   -0.16143E-03   -0.71816E-04  1624   0.704E-02    0.425E-02
DAV:   7    -0.477011073342E+03   -0.75081E-05   -0.89325E-05  1440   0.263E-02
  42 F= -.47701107E+03 E0= -.47698327E+03  d E =-.816060E-01
 trial-energy change:   -0.081606  1 .order   -0.081742   -0.107473   -0.056012
 step:   3.1621(harm=  3.1621)  dis= 0.04117  next Energy=  -477.041693 (dE=-0.112E+00)
 bond charge predicted
       N       E                     dE             d eps       ncg     rms          rms(c)
DAV:   1    -0.477002697495E+03    0.83683E-02   -0.32128E+01  1344   0.154E+01    0.126E+00
DAV:   2    -0.477047080911E+03   -0.44383E-01   -0.62836E-01  1576   0.206E+00    0.836E-01
DAV:   3    -0.477043601225E+03    0.34797E-02   -0.52634E-02  1472   0.727E-01    0.597E-01
DAV:   4    -0.477041295616E+03    0.23056E-02   -0.22485E-02  1456   0.447E-01    0.385E-01
DAV:   5    -0.477040913058E+03    0.38256E-03   -0.55227E-03  1480   0.231E-01    0.107E-01
DAV:   6    -0.477041123248E+03   -0.21019E-03   -0.82250E-04  1568   0.784E-02    0.471E-02
DAV:   7    -0.477041143530E+03   -0.20281E-04   -0.10202E-04  1432   0.295E-02    0.248E-02
DAV:   8    -0.477041177158E+03   -0.33628E-04   -0.17893E-05   960   0.132E-02    0.831E-03
DAV:   9    -0.477041198212E+03   -0.21054E-04   -0.51463E-06   872   0.687E-03    0.363E-03
DAV:  10    -0.477041215126E+03   -0.16914E-04   -0.19015E-06   880   0.426E-03    0.182E-03
DAV:  11    -0.477041233616E+03   -0.18490E-04   -0.18524E-06   864   0.369E-03    0.997E-04
DAV:  12    -0.477041246673E+03   -0.13057E-04   -0.15710E-06   928   0.236E-03    0.827E-04
DAV:  13    -0.477041254369E+03   -0.76958E-05   -0.84795E-07   872   0.151E-03
  43 F= -.47704125E+03 E0= -.47701349E+03  d E =-.111787E+00
 curvature:  -7.47 expect dE=-0.559E+00 dE for cont linesearch -0.490E-05
 trial: gam= 1.03745 g(F)=  0.736E-01 g(S)=  0.123E-02 ort =-0.469E-03 (trialstep = 0.142E+01)
 search vector abs. value=  0.435E+00
 bond charge predicted
       N       E                     dE             d eps       ncg     rms          rms(c)
DAV:   1    -0.477082125202E+03   -0.40879E-01   -0.31629E+01  1376   0.151E+01    0.118E+00
DAV:   2    -0.477125986307E+03   -0.43861E-01   -0.59203E-01  1560   0.198E+00    0.755E-01
DAV:   3    -0.477122756728E+03    0.32296E-02   -0.32940E-02  1528   0.572E-01    0.522E-01
DAV:   4    -0.477122342017E+03    0.41471E-03   -0.20103E-02  1424   0.421E-01    0.432E-01
DAV:   5    -0.477121372042E+03    0.96997E-03   -0.66879E-03  1432   0.252E-01    0.106E-01
DAV:   6    -0.477121573972E+03   -0.20193E-03   -0.78569E-04  1608   0.760E-02    0.442E-02
DAV:   7    -0.477121587513E+03   -0.13541E-04   -0.10863E-04  1472   0.318E-02    0.214E-02
DAV:   8    -0.477121611794E+03   -0.24280E-04   -0.13263E-05   856   0.133E-02    0.708E-03
DAV:   9    -0.477121628509E+03   -0.16715E-04   -0.49849E-06   872   0.687E-03    0.341E-03
DAV:  10    -0.477121644941E+03   -0.16432E-04   -0.20207E-06   832   0.386E-03    0.171E-03
DAV:  11    -0.477121661660E+03   -0.16718E-04   -0.18737E-06   880   0.293E-03    0.936E-04
DAV:  12    -0.477121672769E+03   -0.11109E-04   -0.11868E-06   872   0.252E-03    0.802E-04
DAV:  13    -0.477121679817E+03   -0.70484E-05   -0.92526E-07   872   0.197E-03
  44 F= -.47712168E+03 E0= -.47709395E+03  d E =-.804254E-01
 trial-energy change:   -0.080425  1 .order   -0.080431   -0.105774   -0.055088
 step:   2.9673(harm=  2.9673)  dis= 0.05048  next Energy=  -477.151621 (dE=-0.110E+00)
 bond charge predicted
       N       E                     dE             d eps       ncg     rms          rms(c)
DAV:   1    -0.477104270529E+03    0.17402E-01   -0.37341E+01  1376   0.164E+01    0.129E+00
DAV:   2    -0.477156881393E+03   -0.52611E-01   -0.70619E-01  1552   0.217E+00    0.862E-01
DAV:   3    -0.477153327488E+03    0.35539E-02   -0.49658E-02  1464   0.693E-01    0.613E-01
DAV:   4    -0.477151764468E+03    0.15630E-02   -0.25322E-02  1424   0.474E-01    0.466E-01
DAV:   5    -0.477150913507E+03    0.85096E-03   -0.74470E-03  1432   0.264E-01    0.118E-01
DAV:   6    -0.477151160250E+03   -0.24674E-03   -0.98571E-04  1648   0.854E-02    0.499E-02
DAV:   7    -0.477151175445E+03   -0.15195E-04   -0.13177E-04  1472   0.350E-02    0.231E-02
DAV:   8    -0.477151204637E+03   -0.29192E-04   -0.16000E-05   872   0.144E-02    0.735E-03
DAV:   9    -0.477151224601E+03   -0.19963E-04   -0.60594E-06   880   0.746E-03    0.358E-03
DAV:  10    -0.477151244397E+03   -0.19796E-04   -0.24482E-06   840   0.428E-03    0.176E-03
DAV:  11    -0.477151263280E+03   -0.18883E-04   -0.21163E-06   888   0.311E-03    0.993E-04
DAV:  12    -0.477151277432E+03   -0.14152E-04   -0.15571E-06   872   0.283E-03    0.839E-04
DAV:  13    -0.477151284977E+03   -0.75452E-05   -0.10710E-06   888   0.209E-03
  45 F= -.47715128E+03 E0= -.47712358E+03  d E =-.110031E+00
 curvature:  -8.67 expect dE=-0.638E+00 dE for cont linesearch -0.170E-05
 trial: gam= 0.97000 g(F)=  0.727E-01 g(S)=  0.798E-03 ort =-0.292E-03 (trialstep = 0.156E+01)
 search vector abs. value=  0.482E+00
 bond charge predicted
[...]
DAV:   2    -0.482005148428E+03   -0.68427E-03   -0.80803E-03  1440   0.219E-01    0.689E-02
DAV:   3    -0.482005120051E+03    0.28378E-04   -0.31011E-04  1600   0.464E-02    0.464E-02
DAV:   4    -0.482005142752E+03   -0.22701E-04   -0.35928E-04  1208   0.366E-02    0.612E-02
DAV:   5    -0.482005117902E+03    0.24850E-04   -0.34226E-04  1080   0.305E-02    0.178E-02
DAV:   6    -0.482005120317E+03   -0.24152E-05   -0.34927E-05   952   0.125E-02
 294 F= -.48200512E+03 E0= -.48197716E+03  d E =-.272417E-02
 curvature: -18.24 expect dE=-0.284E-01 dE for cont linesearch -0.117E-04
 trial: gam= 1.05860 g(F)=  0.155E-02 g(S)=  0.502E-05 ort = 0.118E-03 (trialstep = 0.186E+01)
 search vector abs. value=  0.263E-01
 bond charge predicted
       N       E                     dE             d eps       ncg     rms          rms(c)
DAV:   1    -0.482002875769E+03    0.22421E-02   -0.42116E+00  1408   0.447E+00    0.257E-01
DAV:   2    -0.482007698697E+03   -0.48229E-02   -0.55714E-02  1392   0.569E-01    0.180E-01
DAV:   3    -0.482007493651E+03    0.20505E-03   -0.20932E-03  1608   0.116E-01    0.125E-01
DAV:   4    -0.482007661006E+03   -0.16736E-03   -0.30603E-03  1480   0.100E-01    0.174E-01
DAV:   5    -0.482007445787E+03    0.21522E-03   -0.23653E-03  1456   0.824E-02    0.377E-02
DAV:   6    -0.482007455774E+03   -0.99867E-05   -0.15526E-04  1312   0.267E-02    0.162E-02
DAV:   7    -0.482007455035E+03    0.73932E-06   -0.26942E-05   968   0.120E-02
 295 F= -.48200746E+03 E0= -.48197950E+03  d E =-.233472E-02
 trial-energy change:   -0.002335  1 .order   -0.002334   -0.003133   -0.001534
 step:   3.6488(harm=  3.6488)  dis= 0.01353  next Energy=  -482.008191 (dE=-0.307E-02)
 bond charge predicted
       N       E                     dE             d eps       ncg     rms          rms(c)
DAV:   1    -0.482004005877E+03    0.34499E-02   -0.38797E+00  1408   0.429E+00    0.247E-01
DAV:   2    -0.482008448836E+03   -0.44430E-02   -0.51370E-02  1400   0.547E-01    0.173E-01
DAV:   3    -0.482008254434E+03    0.19440E-03   -0.18765E-03  1608   0.111E-01    0.119E-01
DAV:   4    -0.482008407726E+03   -0.15329E-03   -0.26791E-03  1472   0.953E-02    0.165E-01
DAV:   5    -0.482008214803E+03    0.19292E-03   -0.22098E-03  1456   0.789E-02    0.381E-02
DAV:   6    -0.482008222400E+03   -0.75969E-05   -0.15433E-04  1304   0.258E-02    0.156E-02
DAV:   7    -0.482008221998E+03    0.40223E-06   -0.25679E-05   960   0.115E-02
 296 F= -.48200822E+03 E0= -.48198027E+03  d E =-.310168E-02
 curvature: -28.52 expect dE=-0.470E-01 dE for cont linesearch -0.230E-05
 trial: gam= 1.06700 g(F)=  0.164E-02 g(S)=  0.870E-05 ort =-0.461E-04 (trialstep = 0.185E+01)
 search vector abs. value=  0.315E-01
 bond charge predicted
       N       E                     dE             d eps       ncg     rms          rms(c)
DAV:   1    -0.482004921779E+03    0.33006E-02   -0.50225E+00  1408   0.486E+00    0.280E-01
DAV:   2    -0.482010638587E+03   -0.57168E-02   -0.66202E-02  1384   0.620E-01    0.197E-01
DAV:   3    -0.482010425161E+03    0.21343E-03   -0.29490E-03  1576   0.133E-01    0.150E-01
DAV:   4    -0.482010542663E+03   -0.11750E-03   -0.39465E-03  1472   0.109E-01    0.184E-01
DAV:   5    -0.482010324688E+03    0.21798E-03   -0.22981E-03  1440   0.849E-02    0.382E-02
DAV:   6    -0.482010342101E+03   -0.17413E-04   -0.16530E-04  1456   0.297E-02    0.183E-02
DAV:   7    -0.482010341896E+03    0.20588E-06   -0.29164E-05   984   0.127E-02
 297 F= -.48201034E+03 E0= -.48198240E+03  d E =-.211990E-02
 trial-energy change:   -0.002120  1 .order   -0.002076   -0.002964   -0.001188
 step:   2.8609(harm=  3.0925)  dis= 0.01071  next Energy=  -482.010672 (dE=-0.245E-02)
 bond charge predicted
       N       E                     dE             d eps       ncg     rms          rms(c)
DAV:   1    -0.482009142382E+03    0.11997E-02   -0.14837E+00  1408   0.264E+00    0.152E-01
DAV:   2    -0.482010837223E+03   -0.16948E-02   -0.19602E-02  1392   0.337E-01    0.107E-01
DAV:   3    -0.482010773386E+03    0.63836E-04   -0.81337E-04  1576   0.712E-02    0.792E-02
DAV:   4    -0.482010819422E+03   -0.46036E-04   -0.11445E-03  1472   0.592E-02    0.103E-01
DAV:   5    -0.482010751562E+03    0.67860E-04   -0.76167E-04  1352   0.474E-02    0.220E-02
DAV:   6    -0.482010758005E+03   -0.64423E-05   -0.55333E-05  1080   0.165E-02
 298 F= -.48201076E+03 E0= -.48198281E+03  d E =-.253601E-02
 curvature: -29.40 expect dE=-0.428E-01 dE for cont linesearch -0.150E-05
 trial: gam= 0.78733 g(F)=  0.146E-02 g(S)=  0.319E-06 ort = 0.401E-04 (trialstep = 0.205E+01)
 search vector abs. value=  0.210E-01
 bond charge predicted
       N       E                     dE             d eps       ncg     rms          rms(c)
DAV:   1    -0.482008414185E+03    0.23374E-02   -0.41295E+00  1408   0.436E+00    0.260E-01
DAV:   2    -0.482013195361E+03   -0.47812E-02   -0.55706E-02  1400   0.568E-01    0.203E-01
DAV:   3    -0.482013153683E+03    0.41678E-04   -0.59013E-03  1496   0.160E-01    0.202E-01
DAV:   4    -0.482012913273E+03    0.24041E-03   -0.37436E-03  1464   0.102E-01    0.122E-01
DAV:   5    -0.482012873512E+03    0.39761E-04   -0.93487E-04  1440   0.628E-02    0.374E-02
DAV:   6    -0.482012890161E+03   -0.16649E-04   -0.12602E-04  1424   0.270E-02    0.152E-02
DAV:   7    -0.482012891721E+03   -0.15604E-05   -0.17490E-05   928   0.105E-02
 299 F= -.48201289E+03 E0= -.48198494E+03  d E =-.213372E-02
 trial-energy change:   -0.002134  1 .order   -0.002011   -0.003059   -0.000962
 step:   2.6999(harm=  2.9979)  dis= 0.00753  next Energy=  -482.013047 (dE=-0.229E-02)
 bond charge predicted
       N       E                     dE             d eps       ncg     rms          rms(c)
DAV:   1    -0.482012656621E+03    0.23354E-03   -0.40688E-01  1408   0.137E+00    0.819E-02
DAV:   2    -0.482013130097E+03   -0.47348E-03   -0.55119E-03  1416   0.179E-01    0.628E-02
DAV:   3    -0.482013127912E+03    0.21851E-05   -0.54350E-04  1480   0.494E-02    0.619E-02
DAV:   4    -0.482013107244E+03    0.20668E-04   -0.35715E-04  1120   0.318E-02    0.389E-02
DAV:   5    -0.482013106707E+03    0.53677E-06   -0.98527E-05  1056   0.205E-02
 300 F= -.48201311E+03 E0= -.48198515E+03  d E =-.234870E-02
 curvature: -19.08 expect dE=-0.222E-01 dE for cont linesearch -0.188E-04
 trial: gam= 0.74943 g(F)=  0.116E-02 g(S)=  0.843E-06 ort = 0.144E-03 (trialstep = 0.218E+01)
 search vector abs. value=  0.132E-01
 bond charge predicted
       N       E                     dE             d eps       ncg     rms          rms(c)
DAV:   1    -0.482011788156E+03    0.13191E-02   -0.29421E+00  1408   0.366E+00    0.215E-01
DAV:   2    -0.482015181137E+03   -0.33930E-02   -0.39794E-02  1472   0.475E-01    0.188E-01
DAV:   3    -0.482015145680E+03    0.35457E-04   -0.51571E-03  1480   0.143E-01    0.175E-01
DAV:   4    -0.482014941874E+03    0.20381E-03   -0.26053E-03  1472   0.846E-02    0.986E-02
DAV:   5    -0.482014925678E+03    0.16197E-04   -0.64598E-04  1448   0.534E-02    0.307E-02
DAV:   6    -0.482014935610E+03   -0.99322E-05   -0.90810E-05  1368   0.228E-02
 301 F= -.48201494E+03 E0= -.48198698E+03  d E =-.182890E-02
 trial-energy change:   -0.001829  1 .order   -0.001806   -0.002776   -0.000837
 step:   3.1267(harm=  3.1267)  dis= 0.00591  next Energy=  -482.015094 (dE=-0.199E-02)
 bond charge predicted
       N       E                     dE             d eps       ncg     rms          rms(c)
DAV:   1    -0.482014521809E+03    0.40387E-03   -0.54841E-01  1408   0.158E+00    0.950E-02
DAV:   2    -0.482015177390E+03   -0.65558E-03   -0.76452E-03  1480   0.207E-01    0.890E-02
DAV:   3    -0.482015166356E+03    0.11034E-04   -0.11733E-03  1488   0.660E-02    0.778E-02
DAV:   4    -0.482015125470E+03    0.40885E-04   -0.47124E-04  1160   0.363E-02    0.409E-02
DAV:   5    -0.482015128414E+03   -0.29436E-05   -0.11703E-04  1296   0.237E-02    0.134E-02
DAV:   6    -0.482015130946E+03   -0.25317E-05   -0.17131E-05   912   0.102E-02
 302 F= -.48201513E+03 E0= -.48198718E+03  d E =-.202424E-02
 curvature: -16.24 expect dE=-0.161E-01 dE for cont linesearch -0.573E-08
 trial: gam= 0.96897 g(F)=  0.954E-03 g(S)=  0.365E-04 ort = 0.216E-05 (trialstep = 0.234E+01)
 search vector abs. value=  0.134E-01
 bond charge predicted
       N       E                     dE             d eps       ncg     rms          rms(c)
DAV:   1    -0.482012734998E+03    0.23934E-02   -0.34274E+00  1392   0.391E+00    0.234E-01
DAV:   2    -0.482016651301E+03   -0.39163E-02   -0.46006E-02  1416   0.509E-01    0.179E-01
DAV:   3    -0.482016588107E+03    0.63194E-04   -0.40721E-03  1512   0.133E-01    0.166E-01
DAV:   4    -0.482016459456E+03    0.12865E-03   -0.29106E-03  1448   0.905E-02    0.120E-01
DAV:   5    -0.482016404385E+03    0.55071E-04   -0.97614E-04  1416   0.607E-02    0.366E-02
DAV:   6    -0.482016415305E+03   -0.10920E-04   -0.13462E-04  1352   0.286E-02    0.173E-02
DAV:   7    -0.482016415789E+03   -0.48370E-06   -0.20198E-05   912   0.118E-02
 303 F= -.48201642E+03 E0= -.48198844E+03  d E =-.128484E-02
 trial-energy change:   -0.001285  1 .order   -0.001312   -0.002322   -0.000303
 step:   2.6904(harm=  2.6904)  dis= 0.00501  next Energy=  -482.016466 (dE=-0.134E-02)
 bond charge predicted
       N       E                     dE             d eps       ncg     rms          rms(c)
DAV:   1    -0.482016362673E+03    0.52632E-04   -0.77324E-02  1392   0.589E-01    0.357E-02
DAV:   2    -0.482016453420E+03   -0.90748E-04   -0.10514E-03  1464   0.771E-02    0.256E-02
DAV:   3    -0.482016452153E+03    0.12679E-05   -0.66190E-05  1168   0.181E-02
 304 F= -.48201645E+03 E0= -.48198847E+03  d E =-.132121E-02
 curvature: -18.15 expect dE=-0.146E-01 dE for cont linesearch -0.366E-05
 trial: gam= 0.70051 g(F)=  0.802E-03 g(S)=  0.469E-05 ort = 0.520E-04 (trialstep = 0.241E+01)
 search vector abs. value=  0.745E-02
 bond charge predicted
       N       E                     dE             d eps       ncg     rms          rms(c)
DAV:   1    -0.482015576713E+03    0.87671E-03   -0.20209E+00  1408   0.298E+00    0.187E-01
DAV:   2    -0.482017864821E+03   -0.22881E-02   -0.27243E-02  1464   0.391E-01    0.166E-01
DAV:   3    -0.482017816028E+03    0.48793E-04   -0.36437E-03  1456   0.115E-01    0.146E-01
DAV:   4    -0.482017685308E+03    0.13072E-03   -0.19945E-03  1464   0.758E-02    0.912E-02
DAV:   5    -0.482017665532E+03    0.19775E-04   -0.54247E-04  1432   0.464E-02    0.239E-02
DAV:   6    -0.482017670162E+03   -0.46302E-05   -0.68162E-05  1240   0.211E-02
 305 F= -.48201767E+03 E0= -.48198971E+03  d E =-.121801E-02
 trial-energy change:   -0.001218  1 .order   -0.001231   -0.002032   -0.000430
 step:   3.0567(harm=  3.0567)  dis= 0.00393  next Energy=  -482.017741 (dE=-0.129E-02)
 bond charge predicted
       N       E                     dE             d eps       ncg     rms          rms(c)
DAV:   1    -0.482017583297E+03    0.82235E-04   -0.14582E-01  1408   0.802E-01    0.521E-02
DAV:   2    -0.482017768842E+03   -0.18554E-03   -0.21592E-03  1480   0.108E-01    0.570E-02
DAV:   3    -0.482017756758E+03    0.12083E-04   -0.42152E-04  1240   0.369E-02    0.395E-02
DAV:   4    -0.482017747012E+03    0.97462E-05   -0.12692E-04  1056   0.199E-02    0.217E-02
DAV:   5    -0.482017748107E+03   -0.10951E-05   -0.33906E-05  1008   0.127E-02
 306 F= -.48201775E+03 E0= -.48198979E+03  d E =-.129595E-02
 curvature: -13.50 expect dE=-0.125E-01 dE for cont linesearch -0.213E-05
 trial: gam= 1.13678 g(F)=  0.869E-03 g(S)=  0.546E-04 ort = 0.343E-04 (trialstep = 0.178E+01)
 search vector abs. value=  0.106E-01
 bond charge predicted
       N       E                     dE             d eps       ncg     rms          rms(c)
DAV:   1    -0.482017406303E+03    0.34071E-03   -0.15921E+00  1408   0.263E+00    0.149E-01
DAV:   2    -0.482019186322E+03   -0.17800E-02   -0.20436E-02  1400   0.336E-01    0.111E-01
DAV:   3    -0.482019159978E+03    0.26344E-04   -0.14626E-03  1568   0.802E-02    0.104E-01
DAV:   4    -0.482019120741E+03    0.39237E-04   -0.11833E-03  1440   0.563E-02    0.785E-02
DAV:   5    -0.482019096955E+03    0.23786E-04   -0.40533E-04  1352   0.407E-02    0.189E-02
DAV:   6    -0.482019101052E+03   -0.40976E-05   -0.39087E-05  1208   0.160E-02
 307 F= -.48201910E+03 E0= -.48199114E+03  d E =-.135294E-02
 trial-energy change:   -0.001353  1 .order   -0.001337   -0.001713   -0.000960
 step:   4.0481(harm=  4.0481)  dis= 0.00630  next Energy=  -482.019697 (dE=-0.195E-02)
 bond charge predicted
       N       E                     dE             d eps       ncg     rms          rms(c)
DAV:   1    -0.482016991791E+03    0.21052E-02   -0.25884E+00  1408   0.335E+00    0.189E-01
DAV:   2    -0.482019908372E+03   -0.29166E-02   -0.33292E-02  1400   0.429E-01    0.141E-01
DAV:   3    -0.482019858278E+03    0.50094E-04   -0.23282E-03  1560   0.101E-01    0.131E-01
DAV:   4    -0.482019796620E+03    0.61658E-04   -0.19197E-03  1464   0.714E-02    0.101E-01
DAV:   5    -0.482019755347E+03    0.41274E-04   -0.66111E-04  1392   0.520E-02    0.238E-02
DAV:   6    -0.482019761876E+03   -0.65299E-05   -0.62580E-05  1296   0.202E-02
 308 F= -.48201976E+03 E0= -.48199179E+03  d E =-.201377E-02
 curvature: -22.35 expect dE=-0.283E-01 dE for cont linesearch -0.110E-08
 trial: gam= 1.44260 g(F)=  0.126E-02 g(S)=  0.139E-05 ort =-0.724E-06 (trialstep = 0.102E+01)
 search vector abs. value=  0.234E-01
 bond charge predicted
       N       E                     dE             d eps       ncg     rms          rms(c)
DAV:   1    -0.482019627168E+03    0.12818E-03   -0.11547E+00  1408   0.223E+00    0.124E-01
DAV:   2    -0.482020944766E+03   -0.13176E-02   -0.15160E-02  1400   0.287E-01    0.115E-01
DAV:   3    -0.482020925564E+03    0.19203E-04   -0.18781E-03  1496   0.819E-02    0.103E-01
DAV:   4    -0.482020853837E+03    0.71727E-04   -0.86847E-04  1328   0.488E-02    0.579E-02
DAV:   5    -0.482020848734E+03    0.51029E-05   -0.23846E-04  1352   0.333E-02    0.163E-02
DAV:   6    -0.482020851241E+03   -0.25073E-05   -0.31486E-05  1048   0.140E-02
 309 F= -.48202085E+03 E0= -.48199287E+03  d E =-.108936E-02
 trial-energy change:   -0.001089  1 .order   -0.001072   -0.001282   -0.000862
 step:   3.1011(harm=  3.1011)  dis= 0.00788  next Energy=  -482.021720 (dE=-0.196E-02)
 bond charge predicted
       N       E                     dE             d eps       ncg     rms          rms(c)
DAV:   1    -0.482016615805E+03    0.42329E-02   -0.48764E+00  1408   0.457E+00    0.253E-01
DAV:   2    -0.482022101433E+03   -0.54856E-02   -0.63133E-02  1400   0.587E-01    0.222E-01
DAV:   3    -0.482022026354E+03    0.75079E-04   -0.70646E-03  1496   0.161E-01    0.208E-01
DAV:   4    -0.482021742540E+03    0.28381E-03   -0.37922E-03  1448   0.100E-01    0.122E-01
DAV:   5    -0.482021694383E+03    0.48157E-04   -0.10434E-03  1440   0.686E-02    0.329E-02
DAV:   6    -0.482021703642E+03   -0.92588E-05   -0.12943E-04  1432   0.283E-02    0.153E-02
DAV:   7    -0.482021704666E+03   -0.10246E-05   -0.18256E-05   912   0.112E-02
 310 F= -.48202170E+03 E0= -.48199372E+03  d E =-.194279E-02
 curvature: -28.70 expect dE=-0.384E-01 dE for cont linesearch -0.261E-05
 trial: gam= 1.09245 g(F)=  0.132E-02 g(S)=  0.204E-04 ort =-0.461E-04 (trialstep = 0.115E+01)
 search vector abs. value=  0.291E-01
 bond charge predicted
       N       E                     dE             d eps       ncg     rms          rms(c)
DAV:   1    -0.482020924669E+03    0.77897E-03   -0.18723E+00  1408   0.281E+00    0.153E-01
DAV:   2    -0.482023005400E+03   -0.20807E-02   -0.23684E-02  1392   0.360E-01    0.124E-01
DAV:   3    -0.482022968953E+03    0.36447E-04   -0.19353E-03  1496   0.899E-02    0.116E-01
DAV:   4    -0.482022898143E+03    0.70810E-04   -0.14181E-03  1432   0.607E-02    0.838E-02
DAV:   5    -0.482022867148E+03    0.30995E-04   -0.45136E-04  1328   0.425E-02    0.197E-02
DAV:   6    -0.482022872530E+03   -0.53823E-05   -0.46893E-05  1240   0.165E-02
 311 F= -.48202287E+03 E0= -.48199488E+03  d E =-.116786E-02
 trial-energy change:   -0.001168  1 .order   -0.001137   -0.001478   -0.000797
 step:   2.4923(harm=  2.4923)  dis= 0.00684  next Energy=  -482.023308 (dE=-0.160E-02)
 bond charge predicted
       N       E                     dE             d eps       ncg     rms          rms(c)
DAV:   1    -0.482020837853E+03    0.20293E-02   -0.25570E+00  1408   0.328E+00    0.180E-01
DAV:   2    -0.482023702695E+03   -0.28648E-02   -0.32574E-02  1384   0.421E-01    0.153E-01
DAV:   3    -0.482023664356E+03    0.38339E-04   -0.32130E-03  1496   0.112E-01    0.146E-01
DAV:   4    -0.482023531938E+03    0.13242E-03   -0.19803E-03  1448   0.714E-02    0.918E-02
DAV:   5    -0.482023499431E+03    0.32507E-04   -0.56126E-04  1384   0.486E-02    0.239E-02
DAV:   6    -0.482023505725E+03   -0.62936E-05   -0.66946E-05  1280   0.193E-02
 312 F= -.48202351E+03 E0= -.48199551E+03  d E =-.180106E-02
 curvature: -28.23 expect dE=-0.297E-01 dE for cont linesearch -0.155E-04
 trial: gam= 0.49914 g(F)=  0.104E-02 g(S)=  0.958E-05 ort = 0.127E-03 (trialstep = 0.142E+01)
 search vector abs. value=  0.844E-02
 bond charge predicted
       N       E                     dE             d eps       ncg     rms          rms(c)
DAV:   1    -0.482023901741E+03   -0.40231E-03   -0.81717E-01  1408   0.188E+00    0.109E-01
DAV:   2    -0.482024810918E+03   -0.90918E-03   -0.10552E-02  1488   0.243E-01    0.780E-02
DAV:   3    -0.482024771842E+03    0.39076E-04   -0.46404E-04  1576   0.512E-02    0.577E-02
DAV:   4    -0.482024796546E+03   -0.24703E-04   -0.64685E-04  1208   0.428E-02    0.784E-02
DAV:   5    -0.482024754626E+03    0.41919E-04   -0.46575E-04  1224   0.360E-02    0.173E-02
DAV:   6    -0.482024756422E+03   -0.17953E-05   -0.36550E-05   976   0.142E-02
 313 F= -.48202476E+03 E0= -.48199676E+03  d E =-.125070E-02
 trial-energy change:   -0.001251  1 .order   -0.001230   -0.001582   -0.000877
 step:   3.1829(harm=  3.1829)  dis= 0.00494  next Energy=  -482.025282 (dE=-0.178E-02)
 bond charge predicted
       N       E                     dE             d eps       ncg     rms          rms(c)
DAV:   1    -0.482023965077E+03    0.78955E-03   -0.12661E+00  1408   0.234E+00    0.136E-01
DAV:   2    -0.482025374102E+03   -0.14090E-02   -0.16425E-02  1488   0.303E-01    0.104E-01
DAV:   3    -0.482025335859E+03    0.38244E-04   -0.12644E-03  1528   0.739E-02    0.954E-02
DAV:   4    -0.482025299663E+03    0.36195E-04   -0.10458E-03  1416   0.533E-02    0.751E-02
DAV:   5    -0.482025267870E+03    0.31793E-04   -0.40756E-04  1352   0.391E-02    0.198E-02
DAV:   6    -0.482025269693E+03   -0.18224E-05   -0.44349E-05  1136   0.171E-02
 314 F= -.48202527E+03 E0= -.48199726E+03  d E =-.176397E-02
 curvature: -12.04 expect dE=-0.112E-01 dE for cont linesearch -0.258E-05
 trial: gam= 1.02879 g(F)=  0.914E-03 g(S)=  0.143E-04 ort =-0.425E-04 (trialstep = 0.153E+01)
 search vector abs. value=  0.977E-02
 bond charge predicted
       N       E                     dE             d eps       ncg     rms          rms(c)
DAV:   1    -0.482025072009E+03    0.19586E-03   -0.10936E+00  1408   0.215E+00    0.125E-01
DAV:   2    -0.482026297983E+03   -0.12260E-02   -0.14158E-02  1480   0.279E-01    0.102E-01
DAV:   3    -0.482026285375E+03    0.12609E-04   -0.15094E-03  1488   0.774E-02    0.103E-01
DAV:   4    -0.482026218199E+03    0.67175E-04   -0.94026E-04  1368   0.492E-02    0.610E-02
DAV:   5    -0.482026205952E+03    0.12247E-04   -0.24447E-04  1320   0.317E-02    0.183E-02
DAV:   6    -0.482026209077E+03   -0.31249E-05   -0.32905E-05  1072   0.138E-02
 315 F= -.48202621E+03 E0= -.48199821E+03  d E =-.939385E-03
 trial-energy change:   -0.000939  1 .order   -0.000929   -0.001352   -0.000506
 step:   2.4434(harm=  2.4434)  dis= 0.00382  next Energy=  -482.026350 (dE=-0.108E-02)
 reached required accuracy - stopping structural energy minimisation
