slab_Cel1-OPT                           
           1
    14.265900    0.000000    0.000000
     0.000000   12.356997    0.000000
     0.000000    0.000000   15.000000
   C    N    Au   Pd
    24    32     1     1
Direct configuration=     1
   0.06537593  0.40364000  0.13333000
   0.98097748  0.23494000  0.13333000
   0.22593437  0.39820000  0.13333000
   0.81543575  0.57710000  0.13333000
   0.14973747  0.23490000  0.13333000
   0.90517930  0.39797000  0.13333000
   0.56537593  0.40364000  0.13333000
   0.48097748  0.23494000  0.13333000
   0.72593437  0.39820000  0.13333000
   0.31543575  0.57710000  0.13333000
   0.64973747  0.23490000  0.13333000
   0.40517930  0.39797000  0.13333000
   0.81551954  0.90364000  0.13333000
   0.73112108  0.73494000  0.13333000
   0.97607797  0.89820000  0.13333000
   0.06529214  0.07710000  0.13333000
   0.89988107  0.73490000  0.13333000
   0.65532291  0.89797000  0.13333000
   0.31551954  0.90364000  0.13333000
   0.23112108  0.73494000  0.13333000
   0.47607797  0.89820000  0.13333000
   0.56529214  0.07710000  0.13333000
   0.39988107  0.73490000  0.13333000
   0.15532291  0.89797000  0.13333000
   0.98400093  0.45588000  0.13333000
   0.90111835  0.29021000  0.13333000
   0.14710595  0.45595000  0.13333000
   0.14840652  0.12714000  0.13333000
   0.98256150  0.12707000  0.13333000
   0.22992331  0.29008000  0.13333000
   0.06536362  0.29116000  0.13333000
   0.81553147  0.45774000  0.13333000
   0.48400093  0.45588000  0.13333000
   0.40111835  0.29021000  0.13333000
   0.64710595  0.45595000  0.13333000
   0.64840652  0.12714000  0.13333000
   0.48256150  0.12707000  0.13333000
   0.72992331  0.29008000  0.13333000
   0.56536362  0.29116000  0.13333000
   0.31553147  0.45774000  0.13333000
   0.73414454  0.95588000  0.13333000
   0.65126196  0.79021000  0.13333000
   0.89724956  0.95595000  0.13333000
   0.89855012  0.62714000  0.13333000
   0.73270510  0.62707000  0.13333000
   0.98006692  0.79008000  0.13333000
   0.81550723  0.79116000  0.13333000
   0.56567507  0.95774000  0.13333000
   0.23414454  0.95588000  0.13333000
   0.15126196  0.79021000  0.13333000
   0.39724956  0.95595000  0.13333000
   0.39855012  0.62714000  0.13333000
   0.23270510  0.62707000  0.13333000
   0.48006692  0.79008000  0.13333000
   0.31550723  0.79116000  0.13333000
   0.06567507  0.95774000  0.13333000
   0.51318019  0.65760505  0.14333042
   0.63498818  0.58816656  0.13951958
slab_Cel1-OPT                           
           1
    14.534808    0.000000    0.000000
     0.000000   12.497114    0.000000
     0.000000    0.000000   15.000000
   C    N    Au   Pd
    24    32     1     1
Direct configuration=     2
   0.06552996  0.40385771  0.13333229
   0.98092260  0.23460713  0.13332862
   0.22590259  0.39800979  0.13333089
   0.81778922  0.57555496  0.13328153
   0.14990975  0.23471155  0.13333059
   0.90537664  0.39782273  0.13333566
   0.56417810  0.40208222  0.13321772
   0.48040149  0.23418305  0.13333604
   0.72812505  0.39672865  0.13331150
   0.31434542  0.57503288  0.13334855
   0.65012827  0.23403668  0.13333337
   0.40367268  0.39763167  0.13334722
   0.81587262  0.90441868  0.13333804
   0.73271004  0.73784980  0.13317828
   0.97650095  0.89824383  0.13332909
   0.06542192  0.07698249  0.13333061
   0.90050216  0.73498951  0.13332857
   0.65471868  0.89954308  0.13334912
   0.31513425  0.90463347  0.13335198
   0.23020618  0.73478264  0.13334622
   0.47697065  0.90011262  0.13337587
   0.56543710  0.07679258  0.13332743
   0.39340295  0.73934860  0.13283052
   0.15487869  0.89826652  0.13332810
   0.98392423  0.45604519  0.13332919
   0.90095823  0.29024747  0.13333029
   0.14696903  0.45605405  0.13332989
   0.14841194  0.12723037  0.13333015
   0.98241784  0.12727570  0.13332884
   0.22994451  0.29011963  0.13333177
   0.06537853  0.29115464  0.13333035
   0.81490967  0.45810060  0.13333021
   0.48494017  0.45580195  0.13325657
   0.40138607  0.29027746  0.13333161
   0.64806820  0.44673926  0.13291114
   0.64856479  0.12767931  0.13333158
   0.48232497  0.12770568  0.13333113
   0.72956189  0.29061585  0.13333268
   0.56572511  0.29184848  0.13332502
   0.31591520  0.45789408  0.13333275
   0.73418600  0.95564627  0.13332881
   0.65162996  0.78946298  0.13326523
   0.89662486  0.95582978  0.13332809
   0.89796674  0.62730117  0.13332245
   0.74999395  0.63431003  0.13229343
   0.97980571  0.78982562  0.13333287
   0.81535683  0.79058781  0.13332563
   0.56571817  0.95738457  0.13333028
   0.23476079  0.95577905  0.13331054
   0.15161184  0.78971635  0.13331484
   0.39722252  0.95540517  0.13332245
   0.38891440  0.62577626  0.13230423
   0.23316920  0.62743366  0.13332828
   0.47645714  0.79958620  0.13231916
   0.31603938  0.79079927  0.13341165
   0.06560042  0.95765412  0.13333807
   0.52081967  0.65313365  0.14615033
   0.62490683  0.58304708  0.14096265
slab_Cel1-OPT                           
           1
    14.443278    0.000000    0.000000
     0.000000   12.449422    0.000000
     0.000000    0.000000   15.000000
   C    N    Au   Pd
    24    32     1     1
Direct configuration=     3
   0.06547850  0.40378444  0.13333151
   0.98094093  0.23471916  0.13332909
   0.22591320  0.39807380  0.13333059
   0.81700297  0.57607496  0.13329803
   0.14985219  0.23477498  0.13333039
   0.90531071  0.39787229  0.13333373
   0.56457827  0.40260650  0.13325594
   0.48059392  0.23443781  0.13333398
   0.72739319  0.39722385  0.13331780
   0.31470967  0.57572859  0.13334224
   0.64999771  0.23432724  0.13333222
   0.40417601  0.39774554  0.13334136
   0.81575466  0.90415661  0.13333531
   0.73217921  0.73687048  0.13322992
   0.97635964  0.89822908  0.13332940
   0.06537856  0.07702204  0.13333040
   0.90029467  0.73495938  0.13332906
   0.65492054  0.89901364  0.13334261
   0.31526297  0.90429911  0.13334450
   0.23051183  0.73483560  0.13334070
   0.47667242  0.89946891  0.13336025
   0.56538867  0.07689604  0.13332830
   0.39556715  0.73785138  0.13300053
   0.15502709  0.89816672  0.13332875
   0.98394985  0.45598959  0.13332946
   0.90101172  0.29023486  0.13333019
   0.14701477  0.45601903  0.13332993
   0.14841013  0.12719995  0.13333010
   0.98246583  0.12720647  0.13332924
   0.22993743  0.29010629  0.13333117
   0.06537355  0.29115644  0.13333023
   0.81511740  0.45797924  0.13333014
   0.48462639  0.45582822  0.13328156
   0.40129663  0.29025475  0.13333106
   0.64774673  0.44983922  0.13305371
   0.64851191  0.12749780  0.13333104
   0.48240399  0.12749174  0.13333075
   0.72968263  0.29043550  0.13333177
   0.56560435  0.29161676  0.13332671
   0.31578701  0.45784222  0.13333181
   0.73417215  0.95572493  0.13332922
   0.65150702  0.78971440  0.13328728
   0.89683356  0.95587024  0.13332874
   0.89816163  0.62724693  0.13332502
   0.74421812  0.63187333  0.13264625
   0.97989297  0.78991123  0.13333189
   0.81540707  0.79078039  0.13332712
   0.56570378  0.95750420  0.13333019
   0.23455492  0.95581303  0.13331716
   0.15149495  0.78988249  0.13332000
   0.39723156  0.95558854  0.13332502
   0.39213349  0.62623524  0.13265338
   0.23301416  0.62731126  0.13332887
   0.47766309  0.79638680  0.13266322
   0.31586160  0.79092068  0.13338386
   0.06562536  0.95768303  0.13333532
   0.51826749  0.65463854  0.14519050
   0.62827479  0.58477008  0.14047147
slab_Cel1-OPT                           
           1
    14.611143    0.000000    0.000000
     0.000000   12.528446    0.000000
     0.000000    0.000000   15.000000
   C    N    Au   Pd
    24    32     1     1
Direct configuration=     4
   0.06556610  0.40401496  0.13333440
   0.98090063  0.23457741  0.13332961
   0.22560980  0.39783752  0.13333091
   0.82092124  0.57414434  0.13325837
   0.14995511  0.23471039  0.13333041
   0.90573686  0.39766695  0.13333697
   0.56371338  0.40015694  0.13310754
   0.48022748  0.23379634  0.13334636
   0.72944662  0.39533309  0.13328471
   0.31227079  0.57350744  0.13338754
   0.65038516  0.23381339  0.13333731
   0.40314817  0.39739126  0.13336047
   0.81602754  0.90479468  0.13334615
   0.73397586  0.73945098  0.13306967
   0.97636265  0.89829242  0.13332802
   0.06545182  0.07725189  0.13333141
   0.90077528  0.73472316  0.13333155
   0.65453669  0.90026770  0.13336893
   0.31511776  0.90525503  0.13337185
   0.22978590  0.73455460  0.13336617
   0.47707889  0.90289036  0.13341519
   0.56548265  0.07694563  0.13332622
   0.39178489  0.74045090  0.13253335
   0.15490470  0.89834039  0.13332824
   0.98390163  0.45579067  0.13332953
   0.90118627  0.29033851  0.13333115
   0.14694089  0.45578963  0.13332977
   0.14807681  0.12731801  0.13333004
   0.98271999  0.12738060  0.13332738
   0.22967447  0.29022334  0.13333371
   0.06540348  0.29111332  0.13333073
   0.81485744  0.45812125  0.13333066
   0.48540433  0.45565691  0.13319262
   0.40171071  0.29060885  0.13333621
   0.64836476  0.44292021  0.13265278
   0.64829860  0.12793084  0.13333308
   0.48256482  0.12803271  0.13332505
   0.72934876  0.29053846  0.13334383
   0.56560505  0.29183215  0.13331740
   0.31587691  0.45768570  0.13333982
   0.73414319  0.95519283  0.13332374
   0.65214541  0.78868011  0.13320433
   0.89648496  0.95549024  0.13332217
   0.89847124  0.62755503  0.13333078
   0.74819105  0.63521580  0.13215611
   0.97942760  0.78979208  0.13333131
   0.81565463  0.79136642  0.13334201
   0.56585401  0.95759177  0.13333671
   0.23486258  0.95543128  0.13329814
   0.15196651  0.78974966  0.13329944
   0.39706559  0.95525614  0.13332259
   0.38854808  0.62830299  0.13189872
   0.23326508  0.62758630  0.13333327
   0.47421598  0.79871610  0.13195421
   0.31513497  0.79139758  0.13344661
   0.06559268  0.95759449  0.13334457
   0.51337194  0.65816614  0.14771882
   0.63472635  0.57915770  0.14102136
slab_Cel1-OPT                           
           1
    14.672392    0.000000    0.000000
     0.000000   12.557280    0.000000
     0.000000    0.000000   15.000000
   C    N    Au   Pd
    24    32     1     1
Direct configuration=     5
   0.06559769  0.40409854  0.13333545
   0.98088609  0.23452602  0.13332979
   0.22550037  0.39775185  0.13333103
   0.82233449  0.57344435  0.13324390
   0.14999223  0.23468697  0.13333042
   0.90589056  0.39759250  0.13333816
   0.56340143  0.39926880  0.13305339
   0.48009531  0.23356376  0.13335088
   0.73018726  0.39464755  0.13327264
   0.31139113  0.57270211  0.13340408
   0.65052491  0.23362708  0.13333916
   0.40277745  0.39726281  0.13336745
   0.81612596  0.90502602  0.13335010
   0.73462388  0.74038661  0.13301120
   0.97636374  0.89831539  0.13332751
   0.06547824  0.07733523  0.13333178
   0.90094863  0.73463751  0.13333246
   0.65439824  0.90072238  0.13337853
   0.31506539  0.90560163  0.13338184
   0.22952407  0.73445272  0.13337546
   0.47722549  0.90413089  0.13343523
   0.56551655  0.07696360  0.13332546
   0.39042069  0.74139342  0.13236288
   0.15486055  0.89840335  0.13332806
   0.98388424  0.45571854  0.13332956
   0.90124922  0.29037609  0.13333150
   0.14691424  0.45570645  0.13332971
   0.14795659  0.12736082  0.13333002
   0.98281166  0.12744373  0.13332671
   0.22957962  0.29026578  0.13333464
   0.06541428  0.29109769  0.13333090
   0.81476368  0.45817275  0.13333085
   0.48568492  0.45559480  0.13316017
   0.40186006  0.29073723  0.13333809
   0.64858767  0.44041157  0.13250649
   0.64822166  0.12808785  0.13333382
   0.48262283  0.12822886  0.13332298
   0.72922833  0.29057580  0.13334822
   0.56560530  0.29191024  0.13331400
   0.31590933  0.45762895  0.13334275
   0.73413274  0.95499990  0.13332174
   0.65237567  0.78830511  0.13317406
   0.89635922  0.95535246  0.13331977
   0.89858291  0.62766674  0.13333288
   0.74962402  0.63642769  0.13197727
   0.97925975  0.78974888  0.13333110
   0.81574392  0.79157890  0.13334744
   0.56590820  0.95762352  0.13333909
   0.23497355  0.95529286  0.13329120
   0.15213659  0.78970149  0.13329194
   0.39700573  0.95513562  0.13332170
   0.38725489  0.62905270  0.13162337
   0.23335558  0.62768602  0.13333488
   0.47297266  0.79956064  0.13169550
   0.31487288  0.79157049  0.13346951
   0.06558090  0.95756239  0.13334794
   0.51160620  0.65944516  0.14864134
   0.63705332  0.57712280  0.14122200
slab_Cel1-OPT                           
           1
    14.646340    0.000000    0.000000
     0.000000   12.548374    0.000000
     0.000000    0.000000   15.000000
   C    N    Au   Pd
    24    32     1     1
Direct configuration=     6
   0.06559699  0.40410145  0.13333649
   0.98100937  0.23449890  0.13333241
   0.22487675  0.39728851  0.13333710
   0.82379857  0.57378388  0.13318398
   0.14985762  0.23465407  0.13333078
   0.90659023  0.39710979  0.13333171
   0.56315246  0.39740616  0.13290001
   0.47999131  0.23352690  0.13335869
   0.73097538  0.39299909  0.13322910
   0.30963208  0.57224976  0.13345615
   0.65079545  0.23367975  0.13333474
   0.40300086  0.39699666  0.13336648
   0.81630752  0.90538727  0.13335376
   0.73591667  0.74174012  0.13286964
   0.97599834  0.89832002  0.13332183
   0.06546348  0.07773079  0.13333187
   0.90131615  0.73464799  0.13333123
   0.65481993  0.90074109  0.13339125
   0.31479216  0.90648951  0.13341537
   0.22885288  0.73435517  0.13341285
   0.47667898  0.90628735  0.13347073
   0.56556693  0.07766447  0.13332386
   0.38878597  0.74236602  0.13180631
   0.15510050  0.89836373  0.13332644
   0.98394002  0.45515463  0.13333244
   0.90180082  0.29060141  0.13333248
   0.14687283  0.45516756  0.13333231
   0.14735673  0.12765633  0.13333123
   0.98341917  0.12771653  0.13332483
   0.22901645  0.29048990  0.13333684
   0.06543564  0.29119629  0.13333085
   0.81550592  0.45781580  0.13331399
   0.48577741  0.45515604  0.13309304
   0.40227453  0.29109386  0.13336407
   0.64860743  0.43665446  0.13214010
   0.64759438  0.12825333  0.13334301
   0.48326461  0.12825747  0.13332397
   0.72930848  0.28920980  0.13338150
   0.56508782  0.29069940  0.13328175
   0.31544100  0.45714498  0.13336062
   0.73382602  0.95444117  0.13332746
   0.65308521  0.78833159  0.13309265
   0.89636223  0.95488239  0.13331748
   0.90003383  0.62793928  0.13336952
   0.74992235  0.63636694  0.13164027
   0.97864676  0.78985558  0.13332878
   0.81653800  0.79306195  0.13338403
   0.56601068  0.95836221  0.13335371
   0.23497236  0.95480039  0.13327483
   0.15262151  0.78992311  0.13326597
   0.39688773  0.95550594  0.13331987
   0.38552983  0.63132908  0.13078170
   0.23316026  0.62750023  0.13333764
   0.47017125  0.80021792  0.13094053
   0.31279074  0.79301231  0.13360071
   0.06555626  0.95756443  0.13335764
   0.51336229  0.65814010  0.15095509
   0.63916560  0.57780081  0.14190631
slab_Cel1-OPT                           
           1
    14.614495    0.000000    0.000000
     0.000000   12.537487    0.000000
     0.000000    0.000000   15.000000
   C    N    Au   Pd
    24    32     1     1
Direct configuration=     7
   0.06559612  0.40410502  0.13333776
   0.98116034  0.23446573  0.13333561
   0.22411311  0.39672173  0.13334452
   0.82559138  0.57419920  0.13311073
   0.14969279  0.23461382  0.13333122
   0.90744699  0.39651932  0.13332383
   0.56284758  0.39512773  0.13271251
   0.47986395  0.23348181  0.13336824
   0.73194046  0.39098263  0.13317588
   0.30747806  0.57169644  0.13351980
   0.65112673  0.23374417  0.13332933
   0.40327443  0.39667109  0.13336530
   0.81652984  0.90582916  0.13335824
   0.73749974  0.74339578  0.13269660
   0.97555089  0.89832567  0.13331489
   0.06544540  0.07821465  0.13333199
   0.90176619  0.73466080  0.13332971
   0.65533631  0.90076398  0.13340679
   0.31445757  0.90757559  0.13345636
   0.22803099  0.73423583  0.13345855
   0.47600976  0.90892519  0.13351413
   0.56562862  0.07852179  0.13332191
   0.38678421  0.74355574  0.13112599
   0.15539432  0.89831527  0.13332445
   0.98400834  0.45446483  0.13333595
   0.90247627  0.29087703  0.13333366
   0.14682212  0.45450837  0.13333548
   0.14662218  0.12801781  0.13333270
   0.98416309  0.12805022  0.13332253
   0.22832683  0.29076405  0.13333953
   0.06546179  0.29131691  0.13333078
   0.81641483  0.45737917  0.13329338
   0.48589066  0.45461933  0.13301098
   0.40278206  0.29153010  0.13339583
   0.64863163  0.43205866  0.13169225
   0.64682625  0.12845575  0.13335425
   0.48405049  0.12829246  0.13332520
   0.72940662  0.28753887  0.13342217
   0.56445415  0.28921827  0.13324234
   0.31486751  0.45655297  0.13338246
   0.73345042  0.95375771  0.13333446
   0.65395405  0.78836398  0.13299314
   0.89636592  0.95430738  0.13331468
   0.90181054  0.62827266  0.13341431
   0.75028768  0.63629263  0.13122834
   0.97789614  0.78998610  0.13332595
   0.81751038  0.79487606  0.13342876
   0.56613618  0.95926580  0.13337158
   0.23497090  0.95419799  0.13325482
   0.15321531  0.79019420  0.13323424
   0.39674323  0.95595893  0.13331762
   0.38341744  0.63411361  0.12975288
   0.23292107  0.62727297  0.13334102
   0.46674083  0.80102191  0.13001767
   0.31024108  0.79477599  0.13376109
   0.06552608  0.95756691  0.13336950
   0.51551269  0.65654370  0.15378332
   0.64175218  0.57863016  0.14274278
slab_Cel1-OPT                           
           1
    14.589852    0.000000    0.000000
     0.000000   12.514156    0.000000
     0.000000    0.000000   15.000000
   C    N    Au   Pd
    24    32     1     1
Direct configuration=     8
   0.06558240  0.40377374  0.13334077
   0.98161508  0.23452453  0.13333968
   0.22363790  0.39621841  0.13336010
   0.82628523  0.57505430  0.13299323
   0.14922825  0.23465625  0.13333021
   0.90796442  0.39618990  0.13330194
   0.56279667  0.39367449  0.13248061
   0.47989634  0.23308651  0.13337446
   0.73263236  0.38938411  0.13309640
   0.30712034  0.57212174  0.13348429
   0.65098040  0.23298173  0.13332091
   0.40377208  0.39702777  0.13335616
   0.81670700  0.90656755  0.13337132
   0.73879818  0.74363477  0.13244083
   0.97546285  0.89820979  0.13330485
   0.06543524  0.07817055  0.13333402
   0.90229785  0.73520379  0.13333379
   0.65553726  0.90021967  0.13340928
   0.31406511  0.90840592  0.13351265
   0.22738640  0.73424631  0.13351557
   0.47532036  0.90923847  0.13348776
   0.56588649  0.07921432  0.13332327
   0.38509948  0.74458802  0.13028522
   0.15550979  0.89829653  0.13332025
   0.98448644  0.45410124  0.13334124
   0.90306888  0.29056742  0.13333490
   0.14654354  0.45420152  0.13334106
   0.14641828  0.12841817  0.13333488
   0.98437651  0.12842382  0.13332035
   0.22779073  0.29047251  0.13334196
   0.06544198  0.29144985  0.13332998
   0.81785586  0.45653793  0.13323864
   0.48603124  0.45386191  0.13289638
   0.40292351  0.29133239  0.13344774
   0.64835680  0.43231846  0.13128822
   0.64661286  0.12851548  0.13337077
   0.48409381  0.12827859  0.13333551
   0.73058052  0.28454945  0.13351680
   0.56365590  0.28692390  0.13319049
   0.31403579  0.45600595  0.13342158
   0.73345526  0.95374231  0.13336117
   0.65485037  0.78885674  0.13285591
   0.89655250  0.95467409  0.13330742
   0.90396854  0.62836023  0.13350365
   0.75218160  0.63707408  0.13052517
   0.97802011  0.79067801  0.13331643
   0.81850480  0.79577213  0.13348476
   0.56602797  0.96020464  0.13340120
   0.23418757  0.95495047  0.13322820
   0.15243335  0.79063427  0.13319806
   0.39562969  0.95810994  0.13336206
   0.38338425  0.63635331  0.12877838
   0.23083379  0.62739511  0.13340466
   0.46480909  0.79996760  0.12914538
   0.30817790  0.79609456  0.13394807
   0.06547817  0.95758595  0.13338171
   0.51547978  0.65647551  0.15693204
   0.64295790  0.57611490  0.14372770
slab_Cel1-OPT                           
           1
    14.563172    0.000000    0.000000
     0.000000   12.488897    0.000000
     0.000000    0.000000   15.000000
   C    N    Au   Pd
    24    32     1     1
Direct configuration=     9
   0.06556751  0.40341440  0.13334403
   0.98210825  0.23458831  0.13334409
   0.22312253  0.39567247  0.13337696
   0.82703770  0.57598182  0.13286602
   0.14872447  0.23470228  0.13332913
   0.90852558  0.39583258  0.13327823
   0.56274147  0.39209817  0.13222954
   0.47993147  0.23265773  0.13338119
   0.73338273  0.38765021  0.13301036
   0.30673239  0.57258306  0.13344584
   0.65082171  0.23215473  0.13331179
   0.40431177  0.39741467  0.13334627
   0.81689913  0.90736846  0.13338548
   0.74020633  0.74389401  0.13216391
   0.97536736  0.89808410  0.13329397
   0.06542423  0.07812271  0.13333621
   0.90287443  0.73579276  0.13333820
   0.65575520  0.89962926  0.13341197
   0.31363948  0.90930656  0.13357359
   0.22668734  0.73425767  0.13357731
   0.47457271  0.90957828  0.13345922
   0.56616615  0.07996549  0.13332475
   0.38327240  0.74570773  0.12937494
   0.15563502  0.89827621  0.13331569
   0.98500494  0.45370686  0.13334696
   0.90371156  0.29023159  0.13333623
   0.14624141  0.45386868  0.13334711
   0.14619716  0.12885243  0.13333724
   0.98460796  0.12882906  0.13331799
   0.22720934  0.29015628  0.13334459
   0.06542049  0.29159405  0.13332911
   0.81941865  0.45562546  0.13317936
   0.48618369  0.45304035  0.13277229
   0.40307691  0.29111794  0.13350394
   0.64805875  0.43260027  0.13085079
   0.64638143  0.12858028  0.13338865
   0.48414078  0.12826355  0.13334668
   0.73185362  0.28130688  0.13361924
   0.56279019  0.28443524  0.13313435
   0.31313379  0.45541259  0.13346393
   0.73346050  0.95372561  0.13339008
   0.65582242  0.78939122  0.13270734
   0.89675484  0.95507186  0.13329956
   0.90630888  0.62845522  0.13360037
   0.75423556  0.63792171  0.12976386
   0.97815455  0.79142852  0.13330613
   0.81958324  0.79674408  0.13354539
   0.56591062  0.96122299  0.13343327
   0.23333804  0.95576668  0.13319937
   0.15158531  0.79111161  0.13315889
   0.39442205  0.96044311  0.13341017
   0.38334825  0.63878269  0.12772332
   0.22857014  0.62752758  0.13347357
   0.46271412  0.79882400  0.12820098
   0.30594040  0.79752480  0.13415052
   0.06542620  0.95760660  0.13339492
   0.51544409  0.65640153  0.16034105
   0.64426551  0.57338664  0.14479404
slab_Cel1-OPT                           
           1
    14.561684    0.000000    0.000000
     0.000000   12.501462    0.000000
     0.000000    0.000000   15.000000
   C    N    Au   Pd
    24    32     1     1
Direct configuration=    10
   0.06567991  0.40287901  0.13334795
   0.98278948  0.23485385  0.13335327
   0.22293459  0.39543118  0.13341113
   0.82913067  0.57628386  0.13267568
   0.14805594  0.23492605  0.13332670
   0.90878750  0.39579955  0.13323690
   0.56298391  0.39098122  0.13182300
   0.47937615  0.23181765  0.13340594
   0.73364945  0.38571131  0.13284047
   0.30682308  0.57465485  0.13318286
   0.65065142  0.23109880  0.13330152
   0.40445570  0.39724881  0.13330662
   0.81705533  0.90829660  0.13343162
   0.74098860  0.74358822  0.13174585
   0.97575400  0.89879967  0.13328124
   0.06543230  0.07758668  0.13334000
   0.90365543  0.73626991  0.13337242
   0.65576712  0.89940133  0.13339507
   0.31236914  0.91072755  0.13365552
   0.22516990  0.73493296  0.13366387
   0.47320166  0.90843875  0.13326221
   0.56610199  0.07973613  0.13334040
   0.38137626  0.74685258  0.12819428
   0.15508079  0.89857291  0.13330072
   0.98556207  0.45390076  0.13335079
   0.90400356  0.28949699  0.13333033
   0.14604199  0.45398275  0.13335670
   0.14638518  0.12867745  0.13334096
   0.98439031  0.12858058  0.13331752
   0.22710529  0.28929422  0.13334627
   0.06541141  0.29145546  0.13333054
   0.82066367  0.45473472  0.13308439
   0.48615216  0.45215145  0.13256740
   0.40255210  0.29080306  0.13360308
   0.64867225  0.43098034  0.13022368
   0.64692434  0.12705997  0.13343831
   0.48332795  0.12731716  0.13337820
   0.73328639  0.27919632  0.13374745
   0.56334076  0.28393400  0.13297336
   0.31281933  0.45589677  0.13350654
   0.73384109  0.95464095  0.13343890
   0.65680830  0.78943175  0.13243396
   0.89738204  0.95679923  0.13327931
   0.90840084  0.62849727  0.13375950
   0.75539041  0.63882232  0.12848512
   0.97954066  0.79246307  0.13328303
   0.82071397  0.79686240  0.13370445
   0.56525423  0.96102009  0.13344905
   0.23200903  0.95802260  0.13318426
   0.14941514  0.79147296  0.13311888
   0.39335024  0.96292041  0.13352348
   0.38282512  0.63834255  0.12637932
   0.22645403  0.62711895  0.13366107
   0.46271557  0.79915355  0.12722526
   0.30492030  0.79810989  0.13434378
   0.06525448  0.95794872  0.13340254
   0.51513456  0.65673835  0.16494159
   0.64490366  0.57297514  0.14662573
slab_Cel1-OPT                           
           1
    14.559896    0.000000    0.000000
     0.000000   12.516559    0.000000
     0.000000    0.000000   15.000000
   C    N    Au   Pd
    24    32     1     1
Direct configuration=    11
   0.06581497  0.40223641  0.13335266
   0.98360805  0.23517257  0.13336429
   0.22270877  0.39514156  0.13345218
   0.83164555  0.57664639  0.13244699
   0.14725264  0.23519463  0.13332379
   0.90910223  0.39575991  0.13318725
   0.56327523  0.38964058  0.13133455
   0.47870887  0.23080933  0.13343568
   0.73396994  0.38338413  0.13263635
   0.30693205  0.57714154  0.13286691
   0.65044680  0.22983142  0.13328918
   0.40462865  0.39704974  0.13325898
   0.81724301  0.90941061  0.13348705
   0.74192857  0.74322120  0.13124357
   0.97621859  0.89965854  0.13326594
   0.06544201  0.07694329  0.13334455
   0.90459387  0.73684261  0.13341352
   0.65578144  0.89912776  0.13337477
   0.31084271  0.91243310  0.13375395
   0.22334656  0.73574348  0.13376787
   0.47155423  0.90707103  0.13302550
   0.56602489  0.07946083  0.13335921
   0.37909787  0.74822669  0.12677576
   0.15441484  0.89892903  0.13328274
   0.98623151  0.45413350  0.13335539
   0.90435443  0.28861529  0.13332325
   0.14580237  0.45411966  0.13336823
   0.14661109  0.12846742  0.13334542
   0.98412878  0.12828234  0.13331694
   0.22698026  0.28825953  0.13334829
   0.06540050  0.29128913  0.13333227
   0.82215966  0.45366561  0.13297027
   0.48611427  0.45108454  0.13232123
   0.40192149  0.29042512  0.13372220
   0.64940942  0.42903600  0.12947023
   0.64757669  0.12523520  0.13349797
   0.48235127  0.12618125  0.13341607
   0.73500799  0.27666310  0.13390148
   0.56400231  0.28333238  0.13277993
   0.31244148  0.45647791  0.13355774
   0.73429841  0.95573959  0.13349756
   0.65799292  0.78948038  0.13210550
   0.89813567  0.95887252  0.13325497
   0.91091450  0.62854774  0.13395068
   0.75677807  0.63990328  0.12694877
   0.98120619  0.79370480  0.13325529
   0.82207264  0.79700441  0.13389555
   0.56446551  0.96077655  0.13346801
   0.23041209  0.96073028  0.13316610
   0.14680750  0.79190668  0.13307080
   0.39206238  0.96589380  0.13365962
   0.38219654  0.63781426  0.12476455
   0.22391134  0.62662849  0.13388633
   0.46271731  0.79954909  0.12605297
   0.30369456  0.79881215  0.13457599
   0.06504815  0.95835934  0.13341169
   0.51476262  0.65714263  0.17046899
   0.64567045  0.57248123  0.14882645
slab_Cel1-OPT                           
           1
    14.529406    0.000000    0.000000
     0.000000   12.502017    0.000000
     0.000000    0.000000   15.000000
   C    N    Au   Pd
    24    32     1     1
Direct configuration=    12
   0.06595326  0.40212030  0.13335676
   0.98378609  0.23478574  0.13337186
   0.22285432  0.39505953  0.13348873
   0.83302893  0.57703789  0.13216850
   0.14708570  0.23481460  0.13332474
   0.90936596  0.39543891  0.13314670
   0.56363198  0.38931724  0.13091624
   0.47820230  0.23010919  0.13347363
   0.73421677  0.38170603  0.13243598
   0.30605558  0.57847831  0.13254099
   0.65094891  0.22858931  0.13329072
   0.40435999  0.39651265  0.13321265
   0.81793681  0.91004601  0.13356366
   0.74263562  0.74355926  0.13082185
   0.97659618  0.90087726  0.13325441
   0.06538975  0.07679444  0.13334791
   0.90596597  0.73755449  0.13347527
   0.65604027  0.89923358  0.13333982
   0.30961002  0.91421800  0.13386541
   0.22144545  0.73598314  0.13388275
   0.47015708  0.90697502  0.13278148
   0.56549287  0.07827858  0.13338997
   0.37958462  0.74771921  0.12563226
   0.15327386  0.89972402  0.13325690
   0.98642569  0.45413091  0.13335132
   0.90459393  0.28855251  0.13330989
   0.14589270  0.45392857  0.13337684
   0.14658518  0.12834822  0.13334853
   0.98413813  0.12810275  0.13331848
   0.22701523  0.28809071  0.13335231
   0.06547918  0.29117716  0.13333870
   0.82287413  0.45319150  0.13286160
   0.48634431  0.45032086  0.13204282
   0.40145709  0.29017302  0.13383243
   0.65018593  0.42800893  0.12892240
   0.64790454  0.12407639  0.13356167
   0.48183552  0.12554755  0.13345165
   0.73554051  0.27560625  0.13400645
   0.56445383  0.28290132  0.13259489
   0.31255811  0.45721965  0.13358383
   0.73438784  0.95636366  0.13354198
   0.65861443  0.78947131  0.13177624
   0.89839157  0.96012378  0.13323232
   0.91240327  0.62893347  0.13413171
   0.75758502  0.63883715  0.12559134
   0.98197920  0.79424926  0.13323590
   0.82281112  0.79717382  0.13409760
   0.56382882  0.95985125  0.13346438
   0.22937833  0.96203258  0.13317081
   0.14546456  0.79230540  0.13305177
   0.39133499  0.96653375  0.13379058
   0.38184519  0.63786967  0.12337266
   0.22299291  0.62701296  0.13412197
   0.46259359  0.79976131  0.12512311
   0.30249832  0.79960063  0.13474308
   0.06494852  0.95881839  0.13340786
   0.51401692  0.65766826  0.17514466
   0.64624587  0.57277595  0.15073903
slab_Cel1-OPT                           
           1
    14.451167    0.000000    0.000000
     0.000000   12.464701    0.000000
     0.000000    0.000000   15.000000
   C    N    Au   Pd
    24    32     1     1
Direct configuration=    13
   0.06630887  0.40182200  0.13336730
   0.98424393  0.23379194  0.13339126
   0.22322861  0.39484876  0.13358252
   0.83658629  0.57804369  0.13145384
   0.14665643  0.23383829  0.13332716
   0.91004412  0.39461422  0.13304267
   0.56454937  0.38848653  0.12984282
   0.47689964  0.22831048  0.13357103
   0.73485148  0.37739484  0.13192182
   0.30380173  0.58191258  0.13170466