  59  59   0   0
  0.3948347E+02  0.1375970E-08  0.1128670E-08  0.1500000E-08  0.1000000E-15
  1.000000000000000E-004
  CAR 
 slab_Cel1-OPT                           
      4.32093268    -27.81324811  301     -2.08473588      1.00000000
    -27.813  0.0000E+00  0.0000E+00
    -27.706  0.0000E+00  0.0000E+00
    -27.599  0.0000E+00  0.0000E+00
    -27.492  0.0000E+00  0.0000E+00
    -27.385  0.0000E+00  0.0000E+00
    -27.278  0.0000E+00  0.0000E+00
    -27.171  0.0000E+00  0.0000E+00
    -27.063  0.0000E+00  0.0000E+00
    -26.956  0.0000E+00  0.0000E+00
    -26.849  0.5604E-14  0.6003E-15
    -26.742  0.9988E-10  0.1070E-10
    -26.635  0.2003E-06  0.2147E-07
    -26.528  0.4877E-04  0.5245E-05
    -26.421  0.1653E-02  0.1823E-03
    -26.314  0.1003E-01  0.1257E-02
    -26.207  0.1763E-01  0.3145E-02
    -26.099  0.2029E-01  0.5319E-02
    -25.992  0.1889E-01  0.7342E-02
    -25.885  0.5762E-02  0.7960E-02
    -25.778  0.3727E-03  0.8000E-02
    -25.671  0.3956E-05  0.8000E-02
    -25.564  0.1068E-07  0.8000E-02
    -25.457  0.3576E-05  0.8000E-02
    -25.350  0.3159E-03  0.8034E-02
    -25.243  0.4162E-02  0.8480E-02
    -25.135  0.1202E-01  0.9768E-02
    -25.028  0.1512E-01  0.1139E-01
    -24.921  0.1148E-01  0.1262E-01
    -24.814  0.9557E-02  0.1364E-01
    -24.707  0.9457E-02  0.1465E-01
    -24.600  0.6700E-02  0.1537E-01
    -24.493  0.1159E-02  0.1550E-01
    -24.386  0.4598E-04  0.1550E-01
    -24.278  0.4615E-03  0.1555E-01
    -24.171  0.2628E-02  0.1583E-01
    -24.064  0.7702E-02  0.1666E-01
    -23.957  0.2133E-01  0.1894E-01
    -23.850  0.2790E-01  0.2193E-01
    -23.743  0.1858E-01  0.2392E-01
    -23.636  0.4993E-02  0.2446E-01
    -23.529  0.4178E-03  0.2450E-01
    -23.422  0.3712E-03  0.2454E-01
    -23.314  0.4371E-02  0.2501E-01
    -23.207  0.1023E-01  0.2610E-01
    -23.100  0.7988E-02  0.2696E-01
    -22.993  0.8414E-02  0.2786E-01
    -22.886  0.1295E-01  0.2925E-01
    -22.779  0.1280E-01  0.3062E-01
    -22.672  0.9556E-02  0.3164E-01
    -22.565  0.3080E-02  0.3197E-01
    -22.458  0.2524E-03  0.3200E-01
    -22.350  0.5187E-05  0.3200E-01
    -22.243  0.1975E-03  0.3202E-01
    -22.136  0.3263E-02  0.3237E-01
    -22.029  0.1535E-01  0.3401E-01
    -21.922  0.3399E-01  0.3766E-01
    -21.815  0.3410E-01  0.4131E-01
    -21.708  0.2740E-01  0.4424E-01
    -21.601  0.2492E-01  0.4691E-01
    -21.494  0.9407E-02  0.4792E-01
    -21.386  0.8372E-03  0.4801E-01
    -21.279  0.1574E-02  0.4818E-01
    -21.172  0.6123E-02  0.4883E-01
    -21.065  0.1494E-01  0.5043E-01
    -20.958  0.2117E-01  0.5270E-01
    -20.851  0.1909E-01  0.5475E-01
    -20.744  0.9689E-02  0.5578E-01
    -20.637  0.3409E-02  0.5615E-01
    -20.530  0.1316E-01  0.5756E-01
    -20.422  0.2045E-01  0.5975E-01
    -20.315  0.1689E-01  0.6156E-01
    -20.208  0.1686E-01  0.6337E-01
    -20.101  0.5523E-02  0.6396E-01
    -19.994  0.3960E-03  0.6400E-01
    -19.887  0.4751E-05  0.6400E-01
    -19.780  0.7668E-08  0.6400E-01
    -19.673  0.1460E-11  0.6400E-01
    -19.565  0.3058E-16  0.6400E-01
    -19.458  0.0000E+00  0.6400E-01
    -19.351  0.0000E+00  0.6400E-01
    -19.244  0.0000E+00  0.6400E-01
    -19.137  0.0000E+00  0.6400E-01
    -19.030  0.0000E+00  0.6400E-01
    -18.923  0.0000E+00  0.6400E-01
    -18.816  0.0000E+00  0.6400E-01
    -18.709  0.0000E+00  0.6400E-01
    -18.601  0.0000E+00  0.6400E-01
    -18.494  0.0000E+00  0.6400E-01
    -18.387  0.0000E+00  0.6400E-01
    -18.280  0.0000E+00  0.6400E-01
    -18.173  0.7774E-18  0.6400E-01
    -18.066  0.7811E-13  0.6400E-01
    -17.959  0.8414E-09  0.6400E-01
    -17.852  0.1016E-05  0.6400E-01
    -17.745  0.1468E-03  0.6402E-01
    -17.637  0.2896E-02  0.6433E-01
    -17.530  0.1032E-01  0.6543E-01
    -17.423  0.1277E-01  0.6680E-01
    -17.316  0.1271E-01  0.6816E-01
    -17.209  0.1374E-01  0.6963E-01
    -17.102  0.1942E-01  0.7171E-01
    -16.995  0.2141E-01  0.7401E-01
    -16.888  0.1819E-01  0.7596E-01
    -16.781  0.1109E-01  0.7714E-01
    -16.673  0.1118E-01  0.7834E-01
    -16.566  0.9076E-02  0.7931E-01
    -16.459  0.1700E-02  0.7950E-01
    -16.352  0.1535E-03  0.7951E-01
    -16.245  0.1365E-02  0.7966E-01
    -16.138  0.2493E-02  0.7992E-01
    -16.031  0.6773E-03  0.8000E-01
    -15.924  0.2712E-04  0.8000E-01
    -15.816  0.2385E-03  0.8003E-01
    -15.709  0.4542E-02  0.8051E-01
    -15.602  0.1981E-01  0.8263E-01
    -15.495  0.2877E-01  0.8572E-01
    -15.388  0.1497E-01  0.8732E-01
    -15.281  0.3736E-02  0.8772E-01
    -15.174  0.2689E-02  0.8801E-01
    -15.067  0.2701E-02  0.8830E-01
    -14.960  0.2353E-02  0.8855E-01
    -14.852  0.2647E-02  0.8883E-01
    -14.745  0.1465E-02  0.8899E-01
    -14.638  0.1296E-02  0.8913E-01
    -14.531  0.8895E-02  0.9008E-01
    -14.424  0.1399E-01  0.9158E-01
    -14.317  0.1089E-01  0.9275E-01
    -14.210  0.1282E-01  0.9412E-01
    -14.103  0.1356E-01  0.9557E-01
    -13.996  0.2008E-01  0.9772E-01
    -13.888  0.2631E-01  0.1005E+00
    -13.781  0.2284E-01  0.1030E+00
    -13.674  0.2772E-01  0.1060E+00
    -13.567  0.2904E-01  0.1091E+00
    -13.460  0.2092E-01  0.1113E+00
    -13.353  0.1783E-01  0.1132E+00
    -13.246  0.1096E-01  0.1144E+00
    -13.139  0.5615E-02  0.1150E+00
    -13.032  0.6497E-02  0.1157E+00
    -12.924  0.8429E-02  0.1166E+00
    -12.817  0.8269E-02  0.1175E+00
    -12.710  0.6489E-02  0.1182E+00
    -12.603  0.4643E-02  0.1187E+00
    -12.496  0.8190E-02  0.1195E+00
    -12.389  0.7384E-02  0.1203E+00
    -12.282  0.5114E-02  0.1209E+00
    -12.175  0.6391E-02  0.1216E+00
    -12.067  0.1136E-01  0.1228E+00
    -11.960  0.1607E-01  0.1245E+00
    -11.853  0.1699E-01  0.1263E+00
    -11.746  0.2293E-01  0.1288E+00
    -11.639  0.2316E-01  0.1313E+00
    -11.532  0.1810E-01  0.1332E+00
    -11.425  0.1813E-01  0.1351E+00
    -11.318  0.1959E-01  0.1372E+00
    -11.211  0.1508E-01  0.1389E+00
    -11.103  0.1027E-01  0.1400E+00
    -10.996  0.7517E-02  0.1408E+00
    -10.889  0.4231E-02  0.1412E+00
    -10.782  0.8288E-02  0.1421E+00
    -10.675  0.1613E-01  0.1438E+00
    -10.568  0.1883E-01  0.1459E+00
    -10.461  0.1710E-01  0.1477E+00
    -10.354  0.1828E-01  0.1496E+00
    -10.247  0.1426E-01  0.1512E+00
    -10.139  0.6713E-02  0.1519E+00
    -10.032  0.1912E-02  0.1521E+00
     -9.925  0.3352E-02  0.1525E+00
     -9.818  0.6624E-02  0.1532E+00
     -9.711  0.9977E-02  0.1542E+00
     -9.604  0.1301E-01  0.1556E+00
     -9.497  0.2183E-01  0.1580E+00
     -9.390  0.2004E-01  0.1601E+00
     -9.283  0.2052E-01  0.1623E+00
     -9.175  0.2679E-01  0.1652E+00
     -9.068  0.2969E-01  0.1684E+00
     -8.961  0.1372E-01  0.1698E+00
     -8.854  0.2190E-02  0.1701E+00
     -8.747  0.6130E-02  0.1707E+00
     -8.640  0.1039E-01  0.1718E+00
     -8.533  0.8794E-02  0.1728E+00
     -8.426  0.1201E-01  0.1741E+00
     -8.319  0.9677E-02  0.1751E+00
     -8.211  0.1646E-01  0.1769E+00
     -8.104  0.1470E-01  0.1784E+00
     -7.997  0.1573E-01  0.1801E+00
     -7.890  0.1393E-01  0.1816E+00
     -7.783  0.3474E-02  0.1820E+00
     -7.676  0.9032E-03  0.1821E+00
     -7.569  0.9960E-02  0.1831E+00
     -7.462  0.3149E-01  0.1865E+00
     -7.354  0.3604E-01  0.1904E+00
     -7.247  0.3201E-01  0.1938E+00
     -7.140  0.3359E-01  0.1974E+00
     -7.033  0.3202E-01  0.2008E+00
     -6.926  0.2309E-01  0.2033E+00
     -6.819  0.1438E-01  0.2048E+00
     -6.712  0.1039E-01  0.2060E+00
     -6.605  0.1411E-01  0.2075E+00
     -6.498  0.2329E-01  0.2100E+00
     -6.390  0.2234E-01  0.2124E+00
     -6.283  0.1704E-01  0.2142E+00
     -6.176  0.1451E-01  0.2157E+00
     -6.069  0.1515E-01  0.2174E+00
     -5.962  0.1546E-01  0.2190E+00
     -5.855  0.1756E-01  0.2209E+00
     -5.748  0.1108E-01  0.2221E+00
     -5.641  0.1429E-01  0.2236E+00
     -5.534  0.2216E-01  0.2260E+00
     -5.426  0.3076E-01  0.2293E+00
     -5.319  0.3158E-01  0.2327E+00
     -5.212  0.2891E-01  0.2358E+00
     -5.105  0.3717E-01  0.2397E+00
     -4.998  0.3858E-01  0.2439E+00
     -4.891  0.3314E-01  0.2474E+00
     -4.784  0.3151E-01  0.2508E+00
     -4.677  0.3202E-01  0.2542E+00
     -4.570  0.2230E-01  0.2566E+00
     -4.462  0.1361E-01  0.2581E+00
     -4.355  0.2070E-01  0.2603E+00
     -4.248  0.3486E-01  0.2640E+00
     -4.141  0.3132E-01  0.2674E+00
     -4.034  0.1898E-01  0.2694E+00
     -3.927  0.5085E-02  0.2700E+00
     -3.820  0.2066E-02  0.2702E+00
     -3.713  0.9098E-02  0.2712E+00
     -3.605  0.8859E-02  0.2721E+00
     -3.498  0.1010E-01  0.2732E+00
     -3.391  0.1075E-01  0.2743E+00
     -3.284  0.2007E-01  0.2765E+00
     -3.177  0.2511E-01  0.2792E+00
     -3.070  0.1024E-01  0.2803E+00
     -2.963  0.1558E-01  0.2819E+00
     -2.856  0.1776E-01  0.2839E+00
     -2.749  0.1263E-01  0.2852E+00
     -2.641  0.6738E-02  0.2859E+00
     -2.534  0.6791E-03  0.2860E+00
     -2.427  0.8943E-05  0.2860E+00
     -2.320  0.9749E-05  0.2860E+00
     -2.213  0.6746E-03  0.2861E+00
     -2.106  0.6446E-02  0.2868E+00
     -1.999  0.1088E-01  0.2879E+00
     -1.892  0.1126E-01  0.2891E+00
     -1.785  0.1301E-01  0.2905E+00
     -1.677  0.1256E-01  0.2919E+00
     -1.570  0.1213E-01  0.2932E+00
     -1.463  0.1037E-01  0.2943E+00
     -1.356  0.1062E-01  0.2954E+00
     -1.249  0.1526E-01  0.2971E+00
     -1.142  0.2297E-01  0.2995E+00
     -1.035  0.2406E-01  0.3021E+00
     -0.928  0.1448E-01  0.3036E+00
     -0.821  0.5964E-02  0.3043E+00
     -0.713  0.6394E-02  0.3050E+00
     -0.606  0.1339E-01  0.3064E+00
     -0.499  0.2211E-01  0.3088E+00
     -0.392  0.2064E-01  0.3110E+00
     -0.285  0.8510E-02  0.3119E+00
     -0.178  0.9764E-03  0.3120E+00
     -0.071  0.2232E-04  0.3120E+00
      0.036  0.2313E-03  0.3120E+00
      0.143  0.3350E-02  0.3124E+00
      0.251  0.8992E-02  0.3133E+00
      0.358  0.5432E-02  0.3139E+00
      0.465  0.1229E-02  0.3141E+00
      0.572  0.5800E-02  0.3147E+00
      0.679  0.9569E-02  0.3157E+00
      0.786  0.3211E-02  0.3161E+00
      0.893  0.3831E-02  0.3165E+00
      1.000  0.1097E-01  0.3176E+00
      1.108  0.1838E-01  0.3196E+00
      1.215  0.1792E-01  0.3215E+00
      1.322  0.1983E-01  0.3236E+00
      1.429  0.2212E-01  0.3260E+00
      1.536  0.1985E-01  0.3281E+00
      1.643  0.2319E-01  0.3306E+00
      1.750  0.2239E-01  0.3330E+00
      1.857  0.2018E-01  0.3352E+00
      1.964  0.2330E-01  0.3377E+00
      2.072  0.2328E-01  0.3402E+00
      2.179  0.1231E-01  0.3415E+00
      2.286  0.8688E-02  0.3424E+00
      2.393  0.1145E-01  0.3437E+00
      2.500  0.1686E-01  0.3455E+00
      2.607  0.1874E-01  0.3475E+00
      2.714  0.1748E-01  0.3493E+00
      2.821  0.1562E-01  0.3510E+00
      2.928  0.7973E-02  0.3519E+00
      3.036  0.1219E-02  0.3520E+00
      3.143  0.3688E-04  0.3520E+00
      3.250  0.1624E-06  0.3520E+00
      3.357  0.8653E-10  0.3520E+00
      3.464  0.5102E-14  0.3520E+00
      3.571  0.0000E+00  0.3520E+00
      3.678  0.0000E+00  0.3520E+00
      3.785  0.0000E+00  0.3520E+00
      3.892  0.0000E+00  0.3520E+00
      4.000  0.0000E+00  0.3520E+00
      4.107  0.0000E+00  0.3520E+00
      4.214  0.0000E+00  0.3520E+00
      4.321  0.0000E+00  0.3520E+00
