       N       E                     dE             d eps       ncg     rms          rms(c)
DAV:   1     0.251368572308E+04    0.25137E+04   -0.10363E+05  1592   0.104E+03
DAV:   2    -0.553621191782E+02   -0.25690E+04   -0.24608E+04  2016   0.290E+02
DAV:   3    -0.500049978342E+03   -0.44469E+03   -0.43998E+03  1696   0.132E+02
DAV:   4    -0.514226926329E+03   -0.14177E+02   -0.13761E+02  1600   0.270E+01
DAV:   5    -0.514814156320E+03   -0.58723E+00   -0.57926E+00  1904   0.443E+00    0.454E+01
DAV:   6    -0.488367183939E+03    0.26447E+02   -0.10223E+02  1600   0.282E+01    0.334E+01
DAV:   7    -0.483278877135E+03    0.50883E+01   -0.25947E+01  1584   0.244E+01    0.170E+01
DAV:   8    -0.482730460401E+03    0.54842E+00   -0.15416E+01  1560   0.118E+01    0.119E+01
DAV:   9    -0.481289160193E+03    0.14413E+01   -0.53544E+00  1616   0.108E+01    0.433E+00
DAV:  10    -0.481205575204E+03    0.83585E-01   -0.53602E-01  1608   0.209E+00    0.258E+00
DAV:  11    -0.481173250250E+03    0.32325E-01   -0.19067E-01  1560   0.163E+00    0.161E+00
DAV:  12    -0.481159651988E+03    0.13598E-01   -0.84498E-02  1568   0.112E+00    0.703E-01
DAV:  13    -0.481159472267E+03    0.17972E-03   -0.17917E-02  1576   0.560E-01    0.353E-01
DAV:  14    -0.481163393064E+03   -0.39208E-02   -0.72322E-03  1528   0.313E-01    0.175E-01
DAV:  15    -0.481167745781E+03   -0.43527E-02   -0.22720E-03  1568   0.153E-01    0.104E-01
DAV:  16    -0.481174165239E+03   -0.64195E-02   -0.19425E-03  1608   0.104E-01    0.856E-02
DAV:  17    -0.481178012752E+03   -0.38475E-02   -0.56800E-04  1688   0.528E-02    0.517E-02
DAV:  18    -0.481183314323E+03   -0.53016E-02   -0.71069E-04  1568   0.421E-02    0.294E-02
DAV:  19    -0.481185289124E+03   -0.19748E-02   -0.26525E-04  1424   0.285E-02    0.187E-02
DAV:  20    -0.481186434151E+03   -0.11450E-02   -0.17353E-04  1504   0.493E-02    0.244E-02
DAV:  21    -0.481186679340E+03   -0.24519E-03   -0.43596E-05  1344   0.155E-02    0.204E-02
DAV:  22    -0.481186899958E+03   -0.22062E-03   -0.11298E-05  1024   0.169E-02    0.121E-02
DAV:  23    -0.481187454644E+03   -0.55469E-03   -0.10487E-04  1424   0.420E-02    0.161E-02
DAV:  24    -0.481187568746E+03   -0.11410E-03   -0.23766E-05  1152   0.202E-02    0.711E-03
DAV:  25    -0.481187758474E+03   -0.18973E-03   -0.19440E-05  1064   0.895E-03    0.545E-03
DAV:  26    -0.481187810601E+03   -0.52127E-04   -0.29465E-06   976   0.489E-03    0.482E-03
DAV:  27    -0.481187851102E+03   -0.40500E-04   -0.21828E-06   952   0.279E-03    0.418E-03
DAV:  28    -0.481187889870E+03   -0.38768E-04   -0.24725E-06   976   0.418E-03    0.168E-03
DAV:  29    -0.481187905810E+03   -0.15940E-04   -0.11062E-06   976   0.189E-03    0.147E-03
DAV:  30    -0.481187916067E+03   -0.10257E-04   -0.80693E-07   936   0.177E-03    0.465E-04
DAV:  31    -0.481187919827E+03   -0.37599E-05   -0.46108E-07   952   0.130E-03
   1 F= -.48118792E+03 E0= -.48115734E+03  d E =-.481188E+03
       N       E                     dE             d eps       ncg     rms          rms(c)
DAV:   1    -0.481611948361E+03   -0.42403E+00   -0.30189E+01  1408   0.975E+00    0.180E+00
DAV:   2    -0.481639312709E+03   -0.27364E-01   -0.41370E-01  1560   0.169E+00    0.192E+00
DAV:   3    -0.481633805175E+03    0.55075E-02   -0.36166E-02  1560   0.641E-01    0.130E+00
DAV:   4    -0.481638913550E+03   -0.51084E-02   -0.34168E-02  1552   0.642E-01    0.869E-01
DAV:   5    -0.481631957344E+03    0.69562E-02   -0.24524E-02  1528   0.605E-01    0.353E-01
DAV:   6    -0.481631173583E+03    0.78376E-03   -0.42607E-03  1536   0.257E-01    0.170E-01
DAV:   7    -0.481630992418E+03    0.18117E-03   -0.96255E-04  1536   0.122E-01    0.911E-02
DAV:   8    -0.481630917421E+03    0.74997E-04   -0.34700E-04  1536   0.499E-02    0.335E-02
DAV:   9    -0.481630927923E+03   -0.10502E-04   -0.43222E-05  1320   0.172E-02    0.108E-02
DAV:  10    -0.481630936966E+03   -0.90435E-05   -0.51454E-06   952   0.727E-03
   2 F= -.48163094E+03 E0= -.48160076E+03  d E =-.443017E+00
       N       E                     dE             d eps       ncg     rms          rms(c)
DAV:   1    -0.481891237450E+03   -0.26031E+00   -0.16133E+02  1408   0.224E+01    0.346E+00
DAV:   2    -0.482211362804E+03   -0.32013E+00   -0.26152E+00  1576   0.485E+00    0.552E+00
DAV:   3    -0.481993942815E+03    0.21742E+00   -0.73561E-01  1560   0.248E+00    0.316E+00
DAV:   4    -0.481997817535E+03   -0.38747E-02   -0.60374E-02  1536   0.876E-01    0.251E+00
DAV:   5    -0.482000945328E+03   -0.31278E-02   -0.14073E-01  1560   0.128E+00    0.173E+00
DAV:   6    -0.481978228720E+03    0.22717E-01   -0.11558E-01  1592   0.117E+00    0.705E-01
DAV:   7    -0.481974240345E+03    0.39884E-02   -0.14725E-02  1544   0.398E-01    0.312E-01
DAV:   8    -0.481973396403E+03    0.84394E-03   -0.24207E-03  1584   0.141E-01    0.171E-01
DAV:   9    -0.481973315430E+03    0.80973E-04   -0.67933E-04  1536   0.689E-02    0.705E-02
DAV:  10    -0.481973349266E+03   -0.33836E-04   -0.12954E-04  1616   0.296E-02    0.297E-02
DAV:  11    -0.481973394326E+03   -0.45060E-04   -0.21920E-05  1080   0.133E-02    0.136E-02
DAV:  12    -0.481973442358E+03   -0.48032E-04   -0.61758E-06   984   0.638E-03    0.601E-03
DAV:  13    -0.481973481024E+03   -0.38665E-04   -0.35408E-06   992   0.418E-03    0.242E-03
DAV:  14    -0.481973508473E+03   -0.27449E-04   -0.21987E-06   944   0.277E-03    0.144E-03
DAV:  15    -0.481973528512E+03   -0.20039E-04   -0.19133E-06   976   0.217E-03    0.916E-04
DAV:  16    -0.481973539900E+03   -0.11389E-04   -0.10817E-06   936   0.168E-03    0.806E-04
DAV:  17    -0.481973543178E+03   -0.32779E-05   -0.53423E-07   944   0.120E-03
   3 F= -.48197354E+03 E0= -.48194290E+03  d E =-.785623E+00
       N       E                     dE             d eps       ncg     rms          rms(c)
DAV:   1    -0.482150087627E+03   -0.17655E+00   -0.26304E+01  1408   0.108E+01    0.139E+00
DAV:   2    -0.482179790782E+03   -0.29703E-01   -0.45432E-01  1592   0.175E+00    0.835E-01
DAV:   3    -0.482176302013E+03    0.34888E-02   -0.30759E-02  1624   0.537E-01    0.557E-01
DAV:   4    -0.482178421419E+03   -0.21194E-02   -0.22021E-02  1592   0.503E-01    0.643E-01
DAV:   5    -0.482174989351E+03    0.34321E-02   -0.10331E-02  1552   0.371E-01    0.288E-01
DAV:   6    -0.482174789233E+03    0.20012E-03   -0.19884E-03  1544   0.166E-01    0.141E-01
DAV:   7    -0.482174679144E+03    0.11009E-03   -0.12067E-03  1568   0.121E-01    0.989E-02
DAV:   8    -0.482174579133E+03    0.10001E-03   -0.34298E-04  1504   0.643E-02    0.404E-02
DAV:   9    -0.482174598289E+03   -0.19156E-04   -0.64483E-05  1200   0.220E-02    0.125E-02
DAV:  10    -0.482174621264E+03   -0.22975E-04   -0.90782E-06   976   0.904E-03    0.680E-03
DAV:  11    -0.482174648322E+03   -0.27059E-04   -0.45714E-06   968   0.553E-03    0.274E-03
DAV:  12    -0.482174670032E+03   -0.21710E-04   -0.18675E-06   952   0.289E-03    0.178E-03
DAV:  13    -0.482174691082E+03   -0.21049E-04   -0.22077E-06  1016   0.244E-03    0.110E-03
DAV:  14    -0.482174704788E+03   -0.13706E-04   -0.12006E-06   960   0.173E-03    0.817E-04
DAV:  15    -0.482174713064E+03   -0.82765E-05   -0.96911E-07   952   0.131E-03
   4 F= -.48217471E+03 E0= -.48214363E+03  d E =-.201170E+00
       N       E                     dE             d eps       ncg     rms          rms(c)
DAV:   1    -0.482208944303E+03   -0.34240E-01   -0.17669E+01  1408   0.881E+00    0.111E+00
DAV:   2    -0.482228903324E+03   -0.19959E-01   -0.30340E-01  1584   0.143E+00    0.660E-01
DAV:   3    -0.482227294093E+03    0.16092E-02   -0.22368E-02  1632   0.464E-01    0.559E-01
DAV:   4    -0.482227845696E+03   -0.55160E-03   -0.13921E-02  1592   0.405E-01    0.507E-01
DAV:   5    -0.482225541524E+03    0.23042E-02   -0.47320E-03  1544   0.267E-01    0.221E-01
DAV:   6    -0.482225463997E+03    0.77527E-04   -0.14478E-03  1544   0.133E-01    0.105E-01
DAV:   7    -0.482225431744E+03    0.32253E-04   -0.90022E-04  1584   0.955E-02    0.847E-02
DAV:   8    -0.482225357150E+03    0.74594E-04   -0.29684E-04  1272   0.549E-02    0.344E-02
DAV:   9    -0.482225369908E+03   -0.12758E-04   -0.53536E-05  1168   0.194E-02    0.104E-02
DAV:  10    -0.482225385315E+03   -0.15408E-04   -0.69060E-06   968   0.787E-03    0.595E-03
DAV:  11    -0.482225404098E+03   -0.18783E-04   -0.37579E-06   960   0.495E-03    0.240E-03
DAV:  12    -0.482225418830E+03   -0.14732E-04   -0.13863E-06   952   0.271E-03    0.140E-03
DAV:  13    -0.482225432941E+03   -0.14110E-04   -0.13151E-06   936   0.204E-03    0.945E-04
DAV:  14    -0.482225442690E+03   -0.97494E-05   -0.10172E-06   960   0.146E-03
   5 F= -.48222544E+03 E0= -.48219395E+03  d E =-.251900E+00
       N       E                     dE             d eps       ncg     rms          rms(c)
DAV:   1    -0.482365068168E+03   -0.13964E+00   -0.29760E+01  1416   0.103E+01    0.120E+00
DAV:   2    -0.482395528884E+03   -0.30461E-01   -0.42501E-01  1584   0.157E+00    0.873E-01
DAV:   3    -0.482395499373E+03    0.29511E-04   -0.25832E-02  1616   0.512E-01    0.663E-01
DAV:   4    -0.482395434139E+03    0.65235E-04   -0.19798E-02  1584   0.524E-01    0.782E-01
DAV:   5    -0.482391027010E+03    0.44071E-02   -0.95160E-03  1560   0.327E-01    0.225E-01
DAV:   6    -0.482391042179E+03   -0.15169E-04   -0.20481E-03  1608   0.137E-01    0.129E-01
DAV:   7    -0.482391060329E+03   -0.18150E-04   -0.12609E-03  1568   0.103E-01    0.114E-01
DAV:   8    -0.482390931629E+03    0.12870E-03   -0.56248E-04  1568   0.706E-02    0.350E-02
DAV:   9    -0.482390957398E+03   -0.25769E-04   -0.74286E-05  1192   0.216E-02    0.124E-02
DAV:  10    -0.482390977529E+03   -0.20132E-04   -0.98006E-06  1000   0.918E-03    0.593E-03
DAV:  11    -0.482390997234E+03   -0.19705E-04   -0.30368E-06   936   0.463E-03    0.244E-03
DAV:  12    -0.482391015294E+03   -0.18059E-04   -0.19316E-06   960   0.272E-03    0.138E-03
DAV:  13    -0.482391032014E+03   -0.16721E-04   -0.17856E-06   976   0.207E-03    0.842E-04
DAV:  14    -0.482391041884E+03   -0.98697E-05   -0.12812E-06   944   0.157E-03
   6 F= -.48239104E+03 E0= -.48235986E+03  d E =-.165599E+00
       N       E                     dE             d eps       ncg     rms          rms(c)
DAV:   1    -0.482426029069E+03   -0.34997E-01   -0.81615E+01  1416   0.171E+01    0.190E+00
DAV:   2    -0.482509337231E+03   -0.83308E-01   -0.11717E+00  1576   0.259E+00    0.124E+00
DAV:   3    -0.482503103287E+03    0.62339E-02   -0.57493E-02  1624   0.673E-01    0.734E-01
DAV:   4    -0.482513143436E+03   -0.10040E-01   -0.38069E-02  1592   0.705E-01    0.134E+00
DAV:   5    -0.482498518737E+03    0.14625E-01   -0.25798E-02  1560   0.533E-01    0.283E-01
DAV:   6    -0.482498621254E+03   -0.10252E-03   -0.42917E-03  1536   0.195E-01    0.161E-01
DAV:   7    -0.482498580772E+03    0.40482E-04   -0.17215E-03  1552   0.122E-01    0.127E-01
DAV:   8    -0.482498488410E+03    0.92361E-04   -0.98955E-04  1536   0.886E-02    0.672E-02
DAV:   9    -0.482498524841E+03   -0.36430E-04   -0.20208E-04  1320   0.385E-02    0.209E-02
DAV:  10    -0.482498573772E+03   -0.48931E-04   -0.27155E-05  1200   0.153E-02    0.996E-03
DAV:  11    -0.482498618594E+03   -0.44821E-04   -0.72596E-06   976   0.734E-03    0.431E-03
DAV:  12    -0.482498664982E+03   -0.46388E-04   -0.47151E-06  1000   0.457E-03    0.220E-03
DAV:  13    -0.482498705932E+03   -0.40950E-04   -0.40314E-06  1008   0.350E-03    0.164E-03
DAV:  14    -0.482498730387E+03   -0.24455E-04   -0.26387E-06   976   0.249E-03    0.955E-04
DAV:  15    -0.482498744249E+03   -0.13861E-04   -0.16887E-06   976   0.178E-03    0.548E-04
DAV:  16    -0.482498752196E+03   -0.79470E-05   -0.94789E-07   944   0.129E-03
   7 F= -.48249875E+03 E0= -.48246810E+03  d E =-.273310E+00
       N       E                     dE             d eps       ncg     rms          rms(c)
DAV:   1    -0.482613619047E+03   -0.11487E+00   -0.31661E+01  1432   0.103E+01    0.999E-01
DAV:   2    -0.482663899732E+03   -0.50281E-01   -0.43953E-01  1576   0.169E+00    0.168E+00
DAV:   3    -0.482645267931E+03    0.18632E-01   -0.57455E-02  1552   0.743E-01    0.657E-01
DAV:   4    -0.482644432048E+03    0.83588E-03   -0.10075E-02  1544   0.307E-01    0.614E-01
DAV:   5    -0.482644102077E+03    0.32997E-03   -0.13449E-02  1600   0.319E-01    0.435E-01
DAV:   6    -0.482642939464E+03    0.11626E-02   -0.10482E-02  1592   0.265E-01    0.195E-01
DAV:   7    -0.482642711594E+03    0.22787E-03   -0.15896E-03  1552   0.114E-01    0.663E-02
DAV:   8    -0.482642664687E+03    0.46907E-04   -0.23025E-04  1568   0.435E-02    0.341E-02
DAV:   9    -0.482642671407E+03   -0.67196E-05   -0.60043E-05  1216   0.200E-02
   8 F= -.48264267E+03 E0= -.48261238E+03  d E =-.143919E+00
       N       E                     dE             d eps       ncg     rms          rms(c)
DAV:   1    -0.482624488762E+03    0.18176E-01   -0.16573E+02  1432   0.235E+01    0.218E+00
DAV:   2    -0.482858878158E+03   -0.23439E+00   -0.23411E+00  1576   0.372E+00    0.300E+00
DAV:   3    -0.482806739298E+03    0.52139E-01   -0.26216E-01  1528   0.152E+00    0.141E+00
DAV:   4    -0.482796130822E+03    0.10608E-01   -0.45668E-02  1504   0.703E-01    0.121E+00
DAV:   5    -0.482792529536E+03    0.36013E-02   -0.42699E-02  1576   0.559E-01    0.680E-01
DAV:   6    -0.482791135695E+03    0.13938E-02   -0.39743E-02  1592   0.491E-01    0.468E-01
DAV:   7    -0.482789483004E+03    0.16527E-02   -0.96982E-03  1536   0.258E-01    0.130E-01
DAV:   8    -0.482789315219E+03    0.16778E-03   -0.10969E-03  1576   0.900E-02    0.630E-02
DAV:   9    -0.482789358459E+03   -0.43239E-04   -0.21298E-04  1600   0.396E-02    0.249E-02
DAV:  10    -0.482789414083E+03   -0.55624E-04   -0.37306E-05  1208   0.181E-02    0.130E-02
DAV:  11    -0.482789472009E+03   -0.57926E-04   -0.96169E-06  1008   0.947E-03    0.532E-03
DAV:  12    -0.482789520420E+03   -0.48411E-04   -0.48358E-06  1016   0.475E-03    0.246E-03
DAV:  13    -0.482789572553E+03   -0.52133E-04   -0.48500E-06   992   0.366E-03    0.161E-03
DAV:  14    -0.482789610087E+03   -0.37534E-04   -0.43892E-06  1008   0.293E-03    0.106E-03
DAV:  15    -0.482789627102E+03   -0.17016E-04   -0.21431E-06   976   0.213E-03    0.603E-04
DAV:  16    -0.482789634554E+03   -0.74511E-05   -0.10103E-06   968   0.145E-03
   9 F= -.48278963E+03 E0= -.48276023E+03  d E =-.290882E+00
       N       E                     dE             d eps       ncg     rms          rms(c)
DAV:   1    -0.482866518369E+03   -0.76891E-01   -0.43357E+01  1408   0.119E+01    0.110E+00
DAV:   2    -0.482914986637E+03   -0.48468E-01   -0.57452E-01  1592   0.178E+00    0.777E-01
DAV:   3    -0.482915467721E+03   -0.48108E-03   -0.51531E-02  1608   0.664E-01    0.921E-01
DAV:   4    -0.482909285460E+03    0.61823E-02   -0.19689E-02  1544   0.421E-01    0.376E-01
DAV:   5    -0.482908657714E+03    0.62775E-03   -0.55164E-03  1536   0.200E-01    0.233E-01
DAV:   6    -0.482908876301E+03   -0.21859E-03   -0.39834E-03  1600   0.181E-01    0.227E-01
DAV:   7    -0.482908348165E+03    0.52814E-03   -0.23230E-03  1560   0.125E-01    0.461E-02
DAV:   8    -0.482908333212E+03    0.14953E-04   -0.17817E-04  1400   0.316E-02    0.255E-02
DAV:   9    -0.482908345661E+03   -0.12450E-04   -0.38727E-05  1160   0.152E-02    0.963E-03
DAV:  10    -0.482908359571E+03   -0.13910E-04   -0.54302E-06   928   0.772E-03    0.424E-03
DAV:  11    -0.482908370830E+03   -0.11259E-04   -0.18040E-06   912   0.362E-03    0.217E-03
DAV:  12    -0.482908383946E+03   -0.13116E-04   -0.10789E-06   920   0.203E-03    0.110E-03
DAV:  13    -0.482908396571E+03   -0.12625E-04   -0.10596E-06   928   0.155E-03    0.714E-04
DAV:  14    -0.482908405781E+03   -0.92092E-05   -0.88771E-07   928   0.124E-03
  10 F= -.48290841E+03 E0= -.48287911E+03  d E =-.118771E+00
       N       E                     dE             d eps       ncg     rms          rms(c)
DAV:   1    -0.482908955083E+03   -0.55851E-03   -0.39318E+01  1416   0.113E+01    0.103E+00
DAV:   2    -0.482953005459E+03   -0.44050E-01   -0.51570E-01  1592   0.169E+00    0.748E-01
DAV:   3    -0.482953275578E+03   -0.27012E-03   -0.44650E-02  1600   0.644E-01    0.886E-01
DAV:   4    -0.482947005069E+03    0.62705E-02   -0.15922E-02  1528   0.391E-01    0.341E-01
DAV:   5    -0.482946404208E+03    0.60086E-03   -0.51366E-03  1552   0.178E-01    0.176E-01
DAV:   6    -0.482946377257E+03    0.26951E-04   -0.11432E-03  1600   0.108E-01    0.110E-01
DAV:   7    -0.482946294988E+03    0.82269E-04   -0.86393E-04  1560   0.763E-02    0.546E-02
DAV:   8    -0.482946274103E+03    0.20886E-04   -0.16161E-04  1184   0.310E-02    0.206E-02
DAV:   9    -0.482946290644E+03   -0.16541E-04   -0.35977E-05  1152   0.132E-02    0.747E-03
DAV:  10    -0.482946302295E+03   -0.11651E-04   -0.49746E-06   952   0.626E-03    0.318E-03
DAV:  11    -0.482946316558E+03   -0.14262E-04   -0.14291E-06   928   0.275E-03    0.159E-03
DAV:  12    -0.482946329745E+03   -0.13187E-04   -0.10225E-06   920   0.178E-03    0.859E-04
DAV:  13    -0.482946340960E+03   -0.11215E-04   -0.94053E-07   920   0.144E-03    0.588E-04
DAV:  14    -0.482946347323E+03   -0.63625E-05   -0.65766E-07   912   0.111E-03
  11 F= -.48294635E+03 E0= -.48291716E+03  d E =-.156713E+00
       N       E                     dE             d eps       ncg     rms          rms(c)
DAV:   1    -0.483004795689E+03   -0.58455E-01   -0.48195E+01  1408   0.119E+01    0.108E+00
DAV:   2    -0.483060004163E+03   -0.55208E-01   -0.59615E-01  1560   0.177E+00    0.119E+00
DAV:   3    -0.483049375441E+03    0.10629E-01   -0.67799E-02  1536   0.806E-01    0.730E-01
DAV:   4    -0.483043970355E+03    0.54051E-02   -0.15751E-02  1520   0.361E-01    0.326E-01
DAV:   5    -0.483043436036E+03    0.53432E-03   -0.60641E-03  1608   0.188E-01    0.154E-01
DAV:   6    -0.483043322825E+03    0.11321E-03   -0.93881E-04  1568   0.978E-02    0.607E-02
DAV:   7    -0.483043335938E+03   -0.13114E-04   -0.23605E-04  1528   0.444E-02    0.518E-02
DAV:   8    -0.483043315965E+03    0.19973E-04   -0.16348E-04  1192   0.320E-02    0.223E-02
DAV:   9    -0.483043326255E+03   -0.10290E-04   -0.29429E-05  1056   0.140E-02    0.659E-03
DAV:  10    -0.483043335499E+03   -0.92443E-05   -0.38343E-06   944   0.576E-03
  12 F= -.48304334E+03 E0= -.48301456E+03  d E =-.969882E-01
       N       E                     dE             d eps       ncg     rms          rms(c)
DAV:   1    -0.482985167857E+03    0.58158E-01   -0.15883E+02  1408   0.214E+01    0.195E+00
DAV:   2    -0.483164598591E+03   -0.17943E+00   -0.19758E+00  1560   0.318E+00    0.185E+00
DAV:   3    -0.483135057767E+03    0.29541E-01   -0.18076E-01  1544   0.139E+00    0.123E+00
DAV:   4    -0.483119916979E+03    0.15141E-01   -0.46359E-02  1544   0.638E-01    0.590E-01
DAV:   5    -0.483118153497E+03    0.17635E-02   -0.20142E-02  1616   0.358E-01    0.323E-01
DAV:   6    -0.483118459488E+03   -0.30599E-03   -0.11524E-02  1568   0.280E-01    0.295E-01
DAV:   7    -0.483117558606E+03    0.90088E-03   -0.44988E-03  1584   0.172E-01    0.874E-02
DAV:   8    -0.483117537996E+03    0.20610E-04   -0.33693E-04  1504   0.448E-02    0.304E-02
DAV:   9    -0.483117575803E+03   -0.37808E-04   -0.56234E-05  1240   0.159E-02    0.113E-02
DAV:  10    -0.483117605715E+03   -0.29912E-04   -0.67449E-06   936   0.850E-03    0.561E-03
DAV:  11    -0.483117630969E+03   -0.25253E-04   -0.32986E-06   952   0.452E-03    0.305E-03
DAV:  12    -0.483117655379E+03   -0.24411E-04   -0.20303E-06   920   0.274E-03    0.161E-03
DAV:  13    -0.483117681086E+03   -0.25707E-04   -0.30169E-06  1000   0.238E-03    0.109E-03
DAV:  14    -0.483117697463E+03   -0.16376E-04   -0.15683E-06   944   0.181E-03    0.653E-04
DAV:  15    -0.483117706808E+03   -0.93453E-05   -0.12950E-06   944   0.141E-03
  13 F= -.48311771E+03 E0= -.48308956E+03  d E =-.171359E+00
       N       E                     dE             d eps       ncg     rms          rms(c)
DAV:   1    -0.483185842860E+03   -0.68145E-01   -0.44079E+01  1440   0.110E+01    0.911E-01
DAV:   2    -0.483233106556E+03   -0.47264E-01   -0.50784E-01  1560   0.158E+00    0.968E-01
DAV:   3    -0.483225322985E+03    0.77836E-02   -0.46027E-02  1536   0.662E-01    0.577E-01
DAV:   4    -0.483221605521E+03    0.37175E-02   -0.10120E-02  1520   0.275E-01    0.293E-01
DAV:   5    -0.483221028569E+03    0.57695E-03   -0.48357E-03  1592   0.158E-01    0.109E-01
DAV:   6    -0.483221027100E+03    0.14688E-05   -0.60473E-04  1560   0.782E-02    0.557E-02
DAV:   7    -0.483221037738E+03   -0.10638E-04   -0.26505E-04  1352   0.449E-02    0.500E-02
DAV:   8    -0.483221023795E+03    0.13943E-04   -0.12201E-04  1160   0.282E-02    0.144E-02
DAV:   9    -0.483221039405E+03   -0.15609E-04   -0.16329E-05  1032   0.947E-03    0.505E-03
DAV:  10    -0.483221048445E+03   -0.90398E-05   -0.24845E-06   960   0.417E-03
  14 F= -.48322105E+03 E0= -.48319296E+03  d E =-.103342E+00
       N       E                     dE             d eps       ncg     rms          rms(c)
DAV:   1    -0.482980209648E+03    0.24083E+00   -0.42404E+02  1440   0.337E+01    0.289E+00
DAV:   2    -0.483449584537E+03   -0.46937E+00   -0.52183E+00  1560   0.491E+00    0.226E+00
DAV:   3    -0.483410239383E+03    0.39345E-01   -0.33887E-01  1528   0.187E+00    0.186E+00
DAV:   4    -0.483381026821E+03    0.29213E-01   -0.90720E-02  1528   0.881E-01    0.992E-01
DAV:   5    -0.483373551750E+03    0.74751E-02   -0.38880E-02  1592   0.507E-01    0.457E-01
DAV:   6    -0.483373160000E+03    0.39175E-03   -0.10507E-02  1544   0.291E-01    0.163E-01
DAV:   7    -0.483373269219E+03   -0.10922E-03   -0.32751E-03  1560   0.156E-01    0.148E-01
DAV:   8    -0.483373122188E+03    0.14703E-03   -0.10115E-03  1528   0.855E-02    0.509E-02
DAV:   9    -0.483373225535E+03   -0.10335E-03   -0.14220E-04  1328   0.294E-02    0.191E-02
DAV:  10    -0.483373288208E+03   -0.62674E-04   -0.21841E-05  1168   0.130E-02    0.788E-03
DAV:  11    -0.483373349988E+03   -0.61780E-04   -0.58838E-06   936   0.622E-03    0.405E-03
DAV:  12    -0.483373405931E+03   -0.55943E-04   -0.47561E-06   960   0.401E-03    0.222E-03
DAV:  13    -0.483373457322E+03   -0.51391E-04   -0.49704E-06  1008   0.332E-03    0.138E-03
DAV:  14    -0.483373487570E+03   -0.30248E-04   -0.33372E-06   960   0.252E-03    0.900E-04
DAV:  15    -0.483373501979E+03   -0.14409E-04   -0.23483E-06   976   0.197E-03    0.473E-04
DAV:  16    -0.483373507393E+03   -0.54134E-05   -0.11161E-06   968   0.141E-03
  15 F= -.48337351E+03 E0= -.48334549E+03  d E =-.255801E+00
       N       E                     dE             d eps       ncg     rms          rms(c)
DAV:   1    -0.483435149693E+03   -0.61648E-01   -0.80953E+01  1448   0.149E+01    0.103E+00
DAV:   2    -0.483517673358E+03   -0.82524E-01   -0.91901E-01  1600   0.209E+00    0.772E-01
DAV:   3    -0.483513282764E+03    0.43906E-02   -0.47905E-02  1608   0.610E-01    0.681E-01
DAV:   4    -0.483509586472E+03    0.36963E-02   -0.15079E-02  1584   0.368E-01    0.418E-01
DAV:   5    -0.483507943768E+03    0.16427E-02   -0.73424E-03  1536   0.229E-01    0.183E-01
DAV:   6    -0.483508165946E+03   -0.22218E-03   -0.33525E-03  1568   0.172E-01    0.169E-01
DAV:   7    -0.483507840563E+03    0.32538E-03   -0.13573E-03  1528   0.104E-01    0.479E-02
DAV:   8    -0.483507835454E+03    0.51090E-05   -0.11952E-04  1320   0.263E-02    0.226E-02
DAV:   9    -0.483507847127E+03   -0.11673E-04   -0.31417E-05  1080   0.138E-02    0.853E-03
DAV:  10    -0.483507857739E+03   -0.10612E-04   -0.44589E-06   936   0.634E-03    0.405E-03
DAV:  11    -0.483507867535E+03   -0.97961E-05   -0.14278E-06   936   0.331E-03
  16 F= -.48350787E+03 E0= -.48347972E+03  d E =-.134360E+00
       N       E                     dE             d eps       ncg     rms          rms(c)
DAV:   1    -0.483456513630E+03    0.51344E-01   -0.11631E+02  1448   0.178E+01    0.123E+00
DAV:   2    -0.483576706061E+03   -0.12019E+00   -0.13339E+00  1600   0.250E+00    0.905E-01
DAV:   3    -0.483570577987E+03    0.61281E-02   -0.63420E-02  1616   0.708E-01    0.807E-01
DAV:   4    -0.483565733779E+03    0.48442E-02   -0.19740E-02  1568   0.434E-01    0.508E-01
DAV:   5    -0.483563215052E+03    0.25187E-02   -0.10100E-02  1544   0.274E-01    0.223E-01
DAV:   6    -0.483563499691E+03   -0.28464E-03   -0.50444E-03  1568   0.206E-01    0.197E-01
DAV:   7    -0.483563068349E+03    0.43134E-03   -0.19176E-03  1528   0.124E-01    0.569E-02
DAV:   8    -0.483563064043E+03    0.43067E-05   -0.16643E-04  1536   0.317E-02    0.271E-02
DAV:   9    -0.483563084229E+03   -0.20187E-04   -0.41035E-05  1112   0.157E-02    0.962E-03
DAV:  10    -0.483563101669E+03   -0.17440E-04   -0.57079E-06   952   0.702E-03    0.459E-03
DAV:  11    -0.483563117931E+03   -0.16262E-04   -0.19876E-06   928   0.389E-03    0.215E-03
DAV:  12    -0.483563135028E+03   -0.17097E-04   -0.14940E-06   936   0.275E-03    0.114E-03
DAV:  13    -0.483563149382E+03   -0.14353E-04   -0.13013E-06   960   0.199E-03    0.851E-04
DAV:  14    -0.483563161656E+03   -0.12275E-04   -0.13168E-06   944   0.160E-03    0.449E-04
DAV:  15    -0.483563167496E+03   -0.58397E-05   -0.80074E-07   944   0.123E-03
  17 F= -.48356317E+03 E0= -.48353490E+03  d E =-.189660E+00
       N       E                     dE             d eps       ncg     rms          rms(c)
DAV:   1    -0.483600677009E+03   -0.37515E-01   -0.90847E+01  1432   0.156E+01    0.101E+00
DAV:   2    -0.483695050246E+03   -0.94373E-01   -0.10386E+00  1592   0.217E+00    0.825E-01
DAV:   3    -0.483690005928E+03    0.50443E-02   -0.47208E-02  1608   0.553E-01    0.606E-01
DAV:   4    -0.483687273701E+03    0.27322E-02   -0.18082E-02  1560   0.376E-01    0.492E-01
DAV:   5    -0.483684997571E+03    0.22761E-02   -0.99847E-03  1560   0.258E-01    0.162E-01
DAV:   6    -0.483685241844E+03   -0.24427E-03   -0.23256E-03  1576   0.161E-01    0.192E-01
DAV:   7    -0.483684930927E+03    0.31092E-03   -0.95949E-04  1544   0.103E-01    0.614E-02
DAV:   8    -0.483684912350E+03    0.18577E-04   -0.15907E-04  1512   0.325E-02    0.249E-02
DAV:   9    -0.483684923280E+03   -0.10930E-04   -0.43679E-05  1112   0.149E-02    0.879E-03
DAV:  10    -0.483684935109E+03   -0.11829E-04   -0.47570E-06   944   0.637E-03    0.407E-03
DAV:  11    -0.483684946335E+03   -0.11226E-04   -0.17618E-06   920   0.305E-03    0.188E-03
DAV:  12    -0.483684956188E+03   -0.98531E-05   -0.97933E-07   952   0.199E-03
  18 F= -.48368496E+03 E0= -.48365671E+03  d E =-.121789E+00
       N       E                     dE             d eps       ncg     rms          rms(c)
DAV:   1    -0.483585070807E+03    0.99876E-01   -0.15467E+02  1432   0.203E+01    0.132E+00
DAV:   2    -0.483748469496E+03   -0.16340E+00   -0.17911E+00  1592   0.284E+00    0.107E+00
DAV:   3    -0.483740394187E+03    0.80753E-02   -0.75366E-02  1616   0.703E-01    0.773E-01
DAV:   4    -0.483736478942E+03    0.39152E-02   -0.27272E-02  1560   0.479E-01    0.664E-01
DAV:   5    -0.483732488599E+03    0.39903E-02   -0.15797E-02  1544   0.345E-01    0.254E-01
DAV:   6    -0.483732681755E+03   -0.19316E-03   -0.51894E-03  1560   0.237E-01    0.255E-01
DAV:   7    -0.483732171800E+03    0.50996E-03   -0.18702E-03  1528   0.141E-01    0.821E-02
DAV:   8    -0.483732138857E+03    0.32943E-04   -0.28316E-04  1536   0.450E-02    0.345E-02
DAV:   9    -0.483732163832E+03   -0.24975E-04   -0.77493E-05  1264   0.200E-02    0.126E-02
DAV:  10    -0.483732183484E+03   -0.19652E-04   -0.77993E-06   992   0.799E-03    0.632E-03
DAV:  11    -0.483732205081E+03   -0.21597E-04   -0.26567E-06   936   0.385E-03    0.270E-03
DAV:  12    -0.483732223800E+03   -0.18720E-04   -0.16882E-06   952   0.254E-03    0.130E-03
DAV:  13    -0.483732239630E+03   -0.15830E-04   -0.12543E-06   952   0.194E-03    0.847E-04
DAV:  14    -0.483732254396E+03   -0.14766E-04   -0.17520E-06   944   0.182E-03    0.524E-04
DAV:  15    -0.483732259543E+03   -0.51469E-05   -0.79750E-07   968   0.125E-03
  19 F= -.48373226E+03 E0= -.48370403E+03  d E =-.169092E+00
       N       E                     dE             d eps       ncg     rms          rms(c)
DAV:   1    -0.483752960721E+03   -0.20706E-01   -0.98848E+01  1440   0.167E+01    0.111E+00
DAV:   2    -0.483857063998E+03   -0.10410E+00   -0.11641E+00  1592   0.231E+00    0.864E-01
DAV:   3    -0.483851627310E+03    0.54367E-02   -0.56454E-02  1608   0.629E-01    0.635E-01
DAV:   4    -0.483848489117E+03    0.31382E-02   -0.21424E-02  1576   0.428E-01    0.481E-01
DAV:   5    -0.483846197744E+03    0.22914E-02   -0.12043E-02  1560   0.283E-01    0.123E-01
DAV:   6    -0.483846334400E+03   -0.13666E-03   -0.14960E-03  1584   0.107E-01    0.897E-02
DAV:   7    -0.483846340918E+03   -0.65183E-05   -0.37398E-04  1568   0.642E-02    0.783E-02
DAV:   8    -0.483846290859E+03    0.50059E-04   -0.12835E-04  1192   0.372E-02    0.261E-02
DAV:   9    -0.483846306825E+03   -0.15965E-04   -0.54715E-05  1136   0.176E-02    0.107E-02
DAV:  10    -0.483846319243E+03   -0.12418E-04   -0.71873E-06   992   0.827E-03    0.455E-03
DAV:  11    -0.483846334624E+03   -0.15382E-04   -0.19677E-06   928   0.376E-03    0.163E-03
DAV:  12    -0.483846346215E+03   -0.11591E-04   -0.11001E-06   960   0.206E-03    0.103E-03
DAV:  13    -0.483846356970E+03   -0.10755E-04   -0.82326E-07   952   0.151E-03    0.707E-04
DAV:  14    -0.483846366362E+03   -0.93917E-05   -0.94571E-07   976   0.128E-03
  20 F= -.48384637E+03 E0= -.48381798E+03  d E =-.114107E+00
       N       E                     dE             d eps       ncg     rms          rms(c)
DAV:   1    -0.483830574278E+03    0.15783E-01   -0.39793E+01  1440   0.106E+01    0.703E-01
DAV:   2    -0.483872238110E+03   -0.41664E-01   -0.46733E-01  1584   0.146E+00    0.547E-01
DAV:   3    -0.483870013606E+03    0.22245E-02   -0.21932E-02  1600   0.390E-01    0.396E-01
DAV:   4    -0.483868829617E+03    0.11840E-02   -0.84932E-03  1576   0.269E-01    0.307E-01
DAV:   5    -0.483867899447E+03    0.93017E-03   -0.48513E-03  1544   0.181E-01    0.742E-02
DAV:   6    -0.483867947904E+03   -0.48457E-04   -0.51724E-04  1584   0.626E-02    0.472E-02
DAV:   7    -0.483867957422E+03   -0.95180E-05   -0.11239E-04  1416   0.351E-02    0.479E-02
DAV:   8    -0.483867939940E+03    0.17482E-04   -0.53966E-05  1184   0.247E-02    0.175E-02
DAV:   9    -0.483867945728E+03   -0.57881E-05   -0.20970E-05  1056   0.106E-02
  21 F= -.48386795E+03 E0= -.48383944E+03  d E =-.135686E+00
       N       E                     dE             d eps       ncg     rms          rms(c)
DAV:   1    -0.483916309652E+03   -0.48370E-01   -0.39151E+01  1432   0.116E+01    0.879E-01
DAV:   2    -0.483960411028E+03   -0.44101E-01   -0.52116E-01  1584   0.167E+00    0.684E-01
DAV:   3    -0.483958584513E+03    0.18265E-02   -0.29502E-02  1576   0.525E-01    0.596E-01
DAV:   4    -0.483955438252E+03    0.31463E-02   -0.89076E-03  1560   0.314E-01    0.349E-01
DAV:   5    -0.483954497515E+03    0.94074E-03   -0.46740E-03  1544   0.187E-01    0.122E-01
DAV:   6    -0.483954635244E+03   -0.13773E-03   -0.17722E-03  1616   0.128E-01    0.111E-01
DAV:   7    -0.483954520947E+03    0.11430E-03   -0.67942E-04  1536   0.782E-02    0.402E-02
DAV:   8    -0.483954524488E+03   -0.35407E-05   -0.69940E-05  1216   0.221E-02
  22 F= -.48395452E+03 E0= -.48392595E+03  d E =-.865788E-01
       N       E                     dE             d eps       ncg     rms          rms(c)
DAV:   1    -0.483955717823E+03   -0.11969E-02   -0.11044E+01  1432   0.621E+00    0.462E-01
DAV:   2    -0.483968106105E+03   -0.12388E-01   -0.14669E-01  1592   0.887E-01    0.357E-01
DAV:   3    -0.483967615324E+03    0.49078E-03   -0.80274E-03  1592   0.272E-01    0.312E-01
DAV:   4    -0.483966768857E+03    0.84647E-03   -0.24704E-03  1568   0.167E-01    0.189E-01
DAV:   5    -0.483966505690E+03    0.26317E-03   -0.13575E-03  1520   0.101E-01    0.674E-02
DAV:   6    -0.483966556138E+03   -0.50448E-04   -0.57294E-04  1608   0.734E-02    0.636E-02
DAV:   7    -0.483966523147E+03    0.32991E-04   -0.20757E-04  1200   0.441E-02    0.215E-02
DAV:   8    -0.483966533406E+03   -0.10259E-04   -0.22033E-05  1056   0.125E-02    0.985E-03
DAV:   9    -0.483966549909E+03   -0.16503E-04   -0.78607E-06   960   0.703E-03    0.356E-03
DAV:  10    -0.483966559512E+03   -0.96026E-05   -0.16701E-06   952   0.351E-03
  23 F= -.48396656E+03 E0= -.48393794E+03  d E =-.986138E-01
       N       E                     dE             d eps       ncg     rms          rms(c)
DAV:   1    -0.484014989740E+03   -0.48440E-01   -0.43722E+01  1408   0.123E+01    0.105E+00
DAV:   2    -0.484075992608E+03   -0.61003E-01   -0.61312E-01  1576   0.183E+00    0.139E+00
DAV:   3    -0.484058896240E+03    0.17096E-01   -0.60204E-02  1528   0.809E-01    0.568E-01
DAV:   4    -0.484055892652E+03    0.30036E-02   -0.10137E-02  1512   0.300E-01    0.377E-01
DAV:   5    -0.484055330219E+03    0.56243E-03   -0.79883E-03  1568   0.256E-01    0.204E-01
DAV:   6    -0.484055102448E+03    0.22777E-03   -0.34622E-03  1544   0.183E-01    0.103E-01
DAV:   7    -0.484055022046E+03    0.80402E-04   -0.47281E-04  1544   0.723E-02    0.491E-02
DAV:   8    -0.484055022208E+03   -0.16172E-06   -0.10035E-04  1568   0.263E-02    0.192E-02
DAV:   9    -0.484055040384E+03   -0.18177E-04   -0.18941E-05  1032   0.107E-02    0.816E-03
DAV:  10    -0.484055053778E+03   -0.13393E-04   -0.32250E-06   952   0.592E-03    0.334E-03
DAV:  11    -0.484055066906E+03   -0.13129E-04   -0.14916E-06   952   0.345E-03    0.171E-03
DAV:  12    -0.484055078341E+03   -0.11435E-04   -0.98374E-07   944   0.224E-03    0.924E-04
DAV:  13    -0.484055088038E+03   -0.96963E-05   -0.81245E-07   944   0.153E-03
  24 F= -.48405509E+03 E0= -.48402624E+03  d E =-.885285E-01
       N       E                     dE             d eps       ncg     rms          rms(c)
DAV:   1    -0.484029203066E+03    0.25875E-01   -0.73140E+01  1408   0.160E+01    0.136E+00
DAV:   2    -0.484132586904E+03   -0.10338E+00   -0.10237E+00  1576   0.238E+00    0.182E+00
DAV:   3    -0.484102540572E+03    0.30046E-01   -0.10165E-01  1536   0.106E+00    0.731E-01
DAV:   4    -0.484097548003E+03    0.49926E-02   -0.16914E-02  1496   0.389E-01    0.492E-01
DAV:   5    -0.484096531088E+03    0.10169E-02   -0.13229E-02  1576   0.346E-01    0.273E-01
DAV:   6    -0.484096118661E+03    0.41243E-03   -0.55199E-03  1552   0.239E-01    0.130E-01
DAV:   7    -0.484095988625E+03    0.13004E-03   -0.76681E-04  1544   0.975E-02    0.655E-02
DAV:   8    -0.484095986088E+03    0.25364E-05   -0.17517E-04  1560   0.363E-02    0.273E-02
DAV:   9    -0.484096013877E+03   -0.27789E-04   -0.37229E-05  1088   0.149E-02    0.118E-02
DAV:  10    -0.484096035797E+03   -0.21919E-04   -0.67116E-06   984   0.845E-03    0.474E-03
DAV:  11    -0.484096054687E+03   -0.18890E-04   -0.22912E-06   952   0.460E-03    0.255E-03
DAV:  12    -0.484096074000E+03   -0.19314E-04   -0.16467E-06   928   0.311E-03    0.121E-03
DAV:  13    -0.484096090007E+03   -0.16007E-04   -0.12614E-06   960   0.208E-03    0.889E-04
DAV:  14    -0.484096102915E+03   -0.12909E-04   -0.11348E-06   944   0.160E-03    0.537E-04
DAV:  15    -0.484096110580E+03   -0.76647E-05   -0.85185E-07   960   0.132E-03
  25 F= -.48409611E+03 E0= -.48406691E+03  d E =-.129551E+00
       N       E                     dE             d eps       ncg     rms          rms(c)
DAV:   1    -0.484101755812E+03   -0.56529E-02   -0.58949E+01  1408   0.151E+01    0.120E+00
DAV:   2    -0.484179276949E+03   -0.77521E-01   -0.82643E-01  1584   0.219E+00    0.139E+00
DAV:   3    -0.484166708389E+03    0.12569E-01   -0.67574E-02  1544   0.859E-01    0.744E-01
DAV:   4    -0.484161560070E+03    0.51483E-02   -0.13869E-02  1552   0.390E-01    0.487E-01
DAV:   5    -0.484160101075E+03    0.14590E-02   -0.99541E-03  1536   0.285E-01    0.181E-01
DAV:   6    -0.484160166746E+03   -0.65671E-04   -0.28365E-03  1552   0.178E-01    0.122E-01
DAV:   7    -0.484160065628E+03    0.10112E-03   -0.76177E-04  1560   0.940E-02    0.640E-02
DAV:   8    -0.484160050437E+03    0.15191E-04   -0.11761E-04  1480   0.300E-02    0.289E-02
DAV:   9    -0.484160070384E+03   -0.19947E-04   -0.47903E-05  1112   0.160E-02    0.875E-03
DAV:  10    -0.484160083369E+03   -0.12985E-04   -0.54519E-06   976   0.741E-03    0.391E-03
DAV:  11    -0.484160095180E+03   -0.11810E-04   -0.18053E-06   944   0.348E-03    0.191E-03
DAV:  12    -0.484160105744E+03   -0.10565E-04   -0.98532E-07   952   0.213E-03    0.102E-03
DAV:  13    -0.484160113752E+03   -0.80078E-05   -0.76250E-07   952   0.154E-03
  26 F= -.48416011E+03 E0= -.48413056E+03  d E =-.640032E-01
       N       E                     dE             d eps       ncg     rms          rms(c)
DAV:   1    -0.484160079290E+03    0.26454E-04   -0.42791E-01  1408   0.129E+00    0.977E-02
DAV:   2    -0.484160618532E+03   -0.53924E-03   -0.58908E-03  1600   0.185E-01    0.115E-01
DAV:   3    -0.484160547370E+03    0.71162E-04   -0.45037E-04  1544   0.687E-02    0.641E-02
DAV:   4    -0.484160510161E+03    0.37209E-04   -0.97224E-05  1240   0.332E-02    0.415E-02
DAV:   5    -0.484160505219E+03    0.49416E-05   -0.84397E-05  1288   0.247E-02
  27 F= -.48416051E+03 E0= -.48413091E+03  d E =-.643946E-01
       N       E                     dE             d eps       ncg     rms          rms(c)
DAV:   1    -0.484175634849E+03   -0.15125E-01   -0.29069E+01  1424   0.112E+01    0.826E-01
DAV:   2    -0.484207486700E+03   -0.31852E-01   -0.40631E-01  1608   0.156E+00    0.615E-01
DAV:   3    -0.484206559920E+03    0.92678E-03   -0.24274E-02  1608   0.492E-01    0.557E-01
DAV:   4    -0.484204546341E+03    0.20136E-02   -0.84834E-03  1584   0.330E-01    0.397E-01
DAV:   5    -0.484203471628E+03    0.10747E-02   -0.36366E-03  1544   0.188E-01    0.134E-01
DAV:   6    -0.484203595507E+03   -0.12388E-03   -0.17912E-03  1576   0.136E-01    0.107E-01
DAV:   7    -0.484203469265E+03    0.12624E-03   -0.59257E-04  1552   0.838E-02    0.367E-02
DAV:   8    -0.484203469475E+03   -0.20923E-06   -0.63550E-05  1168   0.216E-02
  28 F= -.48420347E+03 E0= -.48417335E+03  d E =-.429643E-01
       N       E                     dE             d eps       ncg     rms          rms(c)
DAV:   1    -0.484203724737E+03   -0.25547E-03   -0.10081E+00  1424   0.209E+00    0.152E-01
DAV:   2    -0.484204830054E+03   -0.11053E-02   -0.14159E-02  1616   0.290E-01    0.113E-01
DAV:   3    -0.484204797695E+03    0.32359E-04   -0.82805E-04  1624   0.903E-02    0.997E-02
DAV:   4    -0.484204741565E+03    0.56129E-04   -0.29170E-04  1600   0.617E-02    0.764E-02
DAV:   5    -0.484204714324E+03    0.27242E-04   -0.13676E-04  1448   0.369E-02    0.270E-02
DAV:   6    -0.484204721560E+03   -0.72361E-05   -0.70825E-05  1176   0.275E-02
  29 F= -.48420472E+03 E0= -.48417450E+03  d E =-.442163E-01
       N       E                     dE             d eps       ncg     rms          rms(c)
DAV:   1    -0.484220953091E+03   -0.16239E-01   -0.28916E+01  1440   0.113E+01    0.862E-01
DAV:   2    -0.484260762620E+03   -0.39810E-01   -0.42228E-01  1568   0.162E+00    0.111E+00
DAV:   3    -0.484253196458E+03    0.75662E-02   -0.40114E-02  1536   0.668E-01    0.530E-01
DAV:   4    -0.484250794460E+03    0.24020E-02   -0.66283E-03  1504   0.273E-01    0.337E-01
DAV:   5    -0.484250291147E+03    0.50331E-03   -0.47660E-03  1600   0.194E-01    0.113E-01
DAV:   6    -0.484250310874E+03   -0.19727E-04   -0.77892E-04  1584   0.925E-02    0.557E-02
DAV:   7    -0.484250317964E+03   -0.70897E-05   -0.13839E-04  1624   0.354E-02    0.329E-02
DAV:   8    -0.484250324817E+03   -0.68537E-05   -0.48605E-05  1168   0.230E-02
  30 F= -.48425032E+03 E0= -.48421996E+03  d E =-.456033E-01
       N       E                     dE             d eps       ncg     rms          rms(c)
DAV:   1    -0.484247563414E+03    0.27545E-02   -0.97231E+00  1424   0.657E+00    0.494E-01
DAV:   2    -0.484260741023E+03   -0.13178E-01   -0.14190E-01  1584   0.939E-01    0.642E-01
DAV:   3    -0.484258389026E+03    0.23520E-02   -0.13196E-02  1552   0.381E-01    0.311E-01
DAV:   4    -0.484257588421E+03    0.80061E-03   -0.22308E-03  1536   0.159E-01    0.198E-01
DAV:   5    -0.484257437181E+03    0.15124E-03   -0.16460E-03  1600   0.109E-01    0.605E-02
DAV:   6    -0.484257466928E+03   -0.29747E-04   -0.28127E-04  1544   0.551E-02    0.381E-02
DAV:   7    -0.484257469319E+03   -0.23917E-05   -0.77575E-05  1208   0.303E-02
  31 F= -.48425747E+03 E0= -.48422704E+03  d E =-.527478E-01
       N       E                     dE             d eps       ncg     rms          rms(c)
DAV:   1    -0.484267911729E+03   -0.10445E-01   -0.24284E+01  1432   0.105E+01    0.792E-01
DAV:   2    -0.484303015574E+03   -0.35104E-01   -0.36101E-01  1584   0.148E+00    0.105E+00
DAV:   3    -0.484296433022E+03    0.65826E-02   -0.31703E-02  1536   0.585E-01    0.471E-01
DAV:   4    -0.484294831193E+03    0.16018E-02   -0.54707E-03  1536   0.247E-01    0.323E-01
DAV:   5    -0.484294550002E+03    0.28119E-03   -0.41531E-03  1576   0.187E-01    0.991E-02
DAV:   6    -0.484294588303E+03   -0.38301E-04   -0.90422E-04  1560   0.105E-01    0.666E-02
DAV:   7    -0.484294566627E+03    0.21676E-04   -0.23601E-04  1600   0.540E-02    0.387E-02
DAV:   8    -0.484294564299E+03    0.23279E-05   -0.40272E-05  1184   0.199E-02
  32 F= -.48429456E+03 E0= -.48426382E+03  d E =-.370950E-01
       N       E                     dE             d eps       ncg     rms          rms(c)
DAV:   1    -0.484293036208E+03    0.15304E-02   -0.72298E+00  1440   0.573E+00    0.430E-01
DAV:   2    -0.484303437506E+03   -0.10401E-01   -0.10762E-01  1584   0.807E-01    0.577E-01
DAV:   3    -0.484301497923E+03    0.19396E-02   -0.93866E-03  1528   0.317E-01    0.260E-01
DAV:   4    -0.484301031239E+03    0.46668E-03   -0.16299E-03  1552   0.135E-01    0.181E-01
DAV:   5    -0.484300947815E+03    0.83423E-04   -0.12851E-03  1576   0.100E-01    0.488E-02
DAV:   6    -0.484300969123E+03   -0.21307E-04   -0.25125E-04  1568   0.544E-02    0.368E-02
DAV:   7    -0.484300963550E+03    0.55727E-05   -0.65966E-05  1224   0.288E-02
  33 F= -.48430096E+03 E0= -.48427005E+03  d E =-.434942E-01
       N       E                     dE             d eps       ncg     rms          rms(c)
DAV:   1    -0.484311770567E+03   -0.10801E-01   -0.98306E+00  1448   0.692E+00    0.544E-01
DAV:   2    -0.484323436265E+03   -0.11666E-01   -0.15378E-01  1584   0.966E-01    0.346E-01
DAV:   3    -0.484322854544E+03    0.58172E-03   -0.72168E-03  1632   0.236E-01    0.220E-01
DAV:   4    -0.484322995392E+03   -0.14085E-03   -0.19519E-03  1600   0.160E-01    0.234E-01
DAV:   5    -0.484322682200E+03    0.31319E-03   -0.12748E-03  1528   0.132E-01    0.994E-02
DAV:   6    -0.484322644303E+03    0.37897E-04   -0.26366E-04  1560   0.557E-02    0.288E-02
DAV:   7    -0.484322646409E+03   -0.21058E-05   -0.51685E-05  1336   0.231E-02
  34 F= -.48432265E+03 E0= -.48429175E+03  d E =-.216829E-01
       N       E                     dE             d eps       ncg     rms          rms(c)
DAV:   1    -0.484322889676E+03   -0.24537E-03   -0.12298E+00  1432   0.245E+00    0.195E-01
DAV:   2    -0.484324376277E+03   -0.14866E-02   -0.19480E-02  1600   0.343E-01    0.123E-01
DAV:   3    -0.484324311007E+03    0.65270E-04   -0.92962E-04  1632   0.875E-02    0.796E-02
DAV:   4    -0.484324320453E+03   -0.94455E-05   -0.31151E-04  1560   0.643E-02    0.727E-02
DAV:   5    -0.484324301950E+03    0.18503E-04   -0.18541E-04  1464   0.507E-02    0.402E-02
DAV:   6    -0.484324301699E+03    0.25123E-06   -0.54262E-05  1160   0.269E-02
  35 F= -.48432430E+03 E0= -.48429347E+03  d E =-.233381E-01
       N       E                     dE             d eps       ncg     rms          rms(c)
DAV:   1    -0.484332033393E+03   -0.77314E-02   -0.87212E+00  1424   0.647E+00    0.507E-01
DAV:   2    -0.484342561827E+03   -0.10528E-01   -0.13344E-01  1600   0.875E-01    0.348E-01
DAV:   3    -0.484342387563E+03    0.17426E-03   -0.72211E-03  1600   0.285E-01    0.335E-01
DAV:   4    -0.484341754140E+03    0.63342E-03   -0.26444E-03  1520   0.192E-01    0.195E-01
DAV:   5    -0.484341613246E+03    0.14089E-03   -0.10486E-03  1568   0.103E-01    0.743E-02
DAV:   6    -0.484341643247E+03   -0.30001E-04   -0.48067E-04  1576   0.744E-02    0.537E-02
DAV:   7    -0.484341613821E+03    0.29425E-04   -0.12772E-04  1200   0.408E-02    0.189E-02
DAV:   8    -0.484341617050E+03   -0.32289E-05   -0.18012E-05  1064   0.122E-02
  36 F= -.48434162E+03 E0= -.48431093E+03  d E =-.173154E-01
       N       E                     dE             d eps       ncg     rms          rms(c)
DAV:   1    -0.484341371607E+03    0.24221E-03   -0.25362E+00  1416   0.349E+00    0.273E-01
DAV:   2    -0.484344448689E+03   -0.30771E-02   -0.39031E-02  1608   0.473E-01    0.188E-01
DAV:   3    -0.484344393378E+03    0.55311E-04   -0.21033E-03  1608   0.153E-01    0.182E-01
DAV:   4    -0.484344204108E+03    0.18927E-03   -0.76759E-04  1552   0.103E-01    0.104E-01
DAV:   5    -0.484344160729E+03    0.43379E-04   -0.30352E-04  1568   0.544E-02    0.354E-02
DAV:   6    -0.484344172895E+03   -0.12166E-04   -0.10232E-04  1368   0.338E-02    0.250E-02
DAV:   7    -0.484344167784E+03    0.51109E-05   -0.30676E-05  1128   0.200E-02
  37 F= -.48434417E+03 E0= -.48431357E+03  d E =-.198661E-01
       N       E                     dE             d eps       ncg     rms          rms(c)
DAV:   1    -0.484349539416E+03   -0.53665E-02   -0.83255E+00  1408   0.633E+00    0.453E-01
DAV:   2    -0.484360261136E+03   -0.10722E-01   -0.12728E-01  1592   0.849E-01    0.324E-01
DAV:   3    -0.484360010189E+03    0.25095E-03   -0.64409E-03  1584   0.244E-01    0.278E-01
DAV:   4    -0.484359608984E+03    0.40120E-03   -0.18051E-03  1576   0.158E-01    0.194E-01
DAV:   5    -0.484359513784E+03    0.95200E-04   -0.13020E-03  1520   0.123E-01    0.114E-01
DAV:   6    -0.484359455292E+03    0.58491E-04   -0.75124E-04  1552   0.959E-02    0.467E-02
DAV:   7    -0.484359440198E+03    0.15095E-04   -0.11139E-04  1280   0.388E-02    0.191E-02
DAV:   8    -0.484359440848E+03   -0.65059E-06   -0.20158E-05   992   0.129E-02
  38 F= -.48435944E+03 E0= -.48432887E+03  d E =-.152731E-01
       N       E                     dE             d eps       ncg     rms          rms(c)
DAV:   1    -0.484358938553E+03    0.50164E-03   -0.20179E+00  1408   0.312E+00    0.223E-01
DAV:   2    -0.484361541968E+03   -0.26034E-02   -0.30908E-02  1600   0.418E-01    0.160E-01
DAV:   3    -0.484361483450E+03    0.58518E-04   -0.15373E-03  1592   0.119E-01    0.137E-01
DAV:   4    -0.484361384748E+03    0.98701E-04   -0.43622E-04  1576   0.775E-02    0.964E-02
DAV:   5    -0.484361361421E+03    0.23327E-04   -0.31176E-04  1528   0.593E-02    0.525E-02
DAV:   6    -0.484361353418E+03    0.80030E-05   -0.17457E-04  1352   0.462E-02    0.238E-02
DAV:   7    -0.484361350434E+03    0.29834E-05   -0.28612E-05  1128   0.200E-02
  39 F= -.48436135E+03 E0= -.48433079E+03  d E =-.171826E-01
       N       E                     dE             d eps       ncg     rms          rms(c)
DAV:   1    -0.484364191036E+03   -0.28376E-02   -0.91388E+00  1408   0.655E+00    0.461E-01
DAV:   2    -0.484375492517E+03   -0.11301E-01   -0.13799E-01  1584   0.879E-01    0.310E-01
DAV:   3    -0.484374972677E+03    0.51984E-03   -0.60589E-03  1608   0.224E-01    0.209E-01
DAV:   4    -0.484374897380E+03    0.75297E-04   -0.19529E-03  1576   0.151E-01    0.157E-01
DAV:   5    -0.484374756601E+03    0.14078E-03   -0.11174E-03  1528   0.114E-01    0.783E-02
DAV:   6    -0.484374778333E+03   -0.21733E-04   -0.34217E-04  1560   0.624E-02    0.710E-02
DAV:   7    -0.484374736911E+03    0.41422E-04   -0.12531E-04  1224   0.423E-02    0.229E-02
DAV:   8    -0.484374736380E+03    0.53072E-06   -0.18421E-05  1032   0.127E-02
  40 F= -.48437474E+03 E0= -.48434477E+03  d E =-.133859E-01
       N       E                     dE             d eps       ncg     rms          rms(c)
DAV:   1    -0.484374235019E+03    0.50189E-03   -0.15266E+00  1408   0.268E+00    0.188E-01
DAV:   2    -0.484376127495E+03   -0.18925E-02   -0.23089E-02  1600   0.360E-01    0.127E-01
DAV:   3    -0.484376037609E+03    0.89886E-04   -0.99629E-04  1608   0.893E-02    0.862E-02
DAV:   4    -0.484376034997E+03    0.26118E-05   -0.30698E-04  1584   0.599E-02    0.723E-02
DAV:   5    -0.484376011131E+03    0.23866E-04   -0.17871E-04  1384   0.472E-02    0.435E-02
DAV:   6    -0.484376008830E+03    0.23018E-05   -0.81140E-05  1184   0.319E-02
  41 F= -.48437601E+03 E0= -.48434629E+03  d E =-.146584E-01
       N       E                     dE             d eps       ncg     rms          rms(c)
DAV:   1    -0.484377848795E+03   -0.18377E-02   -0.90822E+00  1408   0.647E+00    0.453E-01
DAV:   2    -0.484389858548E+03   -0.12010E-01   -0.14057E-01  1592   0.881E-01    0.353E-01
DAV:   3    -0.484389597605E+03    0.26094E-03   -0.72722E-03  1576   0.268E-01    0.294E-01
DAV:   4    -0.484389077460E+03    0.52014E-03   -0.20853E-03  1552   0.163E-01    0.206E-01
DAV:   5    -0.484388866780E+03    0.21068E-03   -0.12013E-03  1528   0.106E-01    0.724E-02
DAV:   6    -0.484388909541E+03   -0.42761E-04   -0.49484E-04  1592   0.750E-02    0.529E-02
DAV:   7    -0.484388885625E+03    0.23916E-04   -0.15113E-04  1360   0.436E-02    0.231E-02
DAV:   8    -0.484388883565E+03    0.20609E-05   -0.18026E-05  1056   0.128E-02
  42 F= -.48438888E+03 E0= -.48435930E+03  d E =-.128747E-01
       N       E                     dE             d eps       ncg     rms          rms(c)
DAV:   1    -0.484387329473E+03    0.15562E-02   -0.28619E+00  1408   0.363E+00    0.253E-01
DAV:   2    -0.484391143273E+03   -0.38138E-02   -0.44453E-02  1592   0.496E-01    0.203E-01
DAV:   3    -0.484391042940E+03    0.10033E-03   -0.23794E-03  1584   0.154E-01    0.169E-01
DAV:   4    -0.484390861724E+03    0.18122E-03   -0.65108E-04  1560   0.905E-02    0.114E-01
DAV:   5    -0.484390805179E+03    0.56545E-04   -0.39919E-04  1528   0.597E-02    0.404E-02
DAV:   6    -0.484390820487E+03   -0.15308E-04   -0.15662E-04  1408   0.423E-02    0.296E-02
DAV:   7    -0.484390813672E+03    0.68156E-05   -0.47447E-05  1144   0.246E-02
  43 F= -.48439081E+03 E0= -.48436131E+03  d E =-.148048E-01
       N       E                     dE             d eps       ncg     rms          rms(c)
DAV:   1    -0.484389922387E+03    0.89810E-03   -0.97862E+00  1408   0.673E+00    0.493E-01
DAV:   2    -0.484402466966E+03   -0.12545E-01   -0.15049E-01  1576   0.908E-01    0.368E-01
DAV:   3    -0.484402147229E+03    0.31974E-03   -0.85395E-03  1600   0.290E-01    0.314E-01
DAV:   4    -0.484401512430E+03    0.63480E-03   -0.22874E-03  1560   0.178E-01    0.198E-01
DAV:   5    -0.484401380811E+03    0.13162E-03   -0.13535E-03  1552   0.110E-01    0.871E-02
DAV:   6    -0.484401392117E+03   -0.11307E-04   -0.63542E-04  1568   0.822E-02    0.550E-02
DAV:   7    -0.484401362419E+03    0.29698E-04   -0.15085E-04  1256   0.435E-02    0.206E-02
DAV:   8    -0.484401362685E+03   -0.26635E-06   -0.22225E-05  1072   0.131E-02
  44 F= -.48440136E+03 E0= -.48437226E+03  d E =-.105490E-01
       N       E                     dE             d eps       ncg     rms          rms(c)
DAV:   1    -0.484401124517E+03    0.23790E-03   -0.66202E-01  1408   0.175E+00    0.127E-01
DAV:   2    -0.484401971681E+03   -0.84716E-03   -0.10210E-02  1600   0.237E-01    0.953E-02
DAV:   3    -0.484401949274E+03    0.22407E-04   -0.57054E-04  1608   0.747E-02    0.794E-02
DAV:   4    -0.484401912049E+03    0.37225E-04   -0.15381E-04  1392   0.462E-02    0.526E-02
DAV:   5    -0.484401908630E+03    0.34194E-05   -0.97659E-05  1344   0.304E-02
  45 F= -.48440191E+03 E0= -.48437290E+03  d E =-.110950E-01
       N       E                     dE             d eps       ncg     rms          rms(c)
DAV:   1    -0.484403554884E+03   -0.16428E-02   -0.72096E+00  1416   0.579E+00    0.448E-01
DAV:   2    -0.484413071933E+03   -0.95170E-02   -0.11319E-01  1592   0.795E-01    0.388E-01
DAV:   3    -0.484412585133E+03    0.48680E-03   -0.82594E-03  1544   0.295E-01    0.298E-01
DAV:   4    -0.484411874006E+03    0.71113E-03   -0.18866E-03  1512   0.155E-01    0.160E-01
DAV:   5    -0.484411811917E+03    0.62089E-04   -0.10646E-03  1584   0.853E-02    0.517E-02
DAV:   6    -0.484411834046E+03   -0.22129E-04   -0.22304E-04  1552   0.487E-02    0.351E-02
DAV:   7    -0.484411826689E+03    0.73567E-05   -0.71587E-05  1168   0.291E-02
  46 F= -.48441183E+03 E0= -.48438304E+03  d E =-.991806E-02
       N       E                     dE             d eps       ncg     rms          rms(c)
DAV:   1    -0.484410295095E+03    0.15390E-02   -0.28206E+00  1408   0.362E+00    0.280E-01
DAV:   2    -0.484414075064E+03   -0.37800E-02   -0.44711E-02  1584   0.499E-01    0.242E-01
DAV:   3    -0.484413891034E+03    0.18403E-03   -0.32265E-03  1544   0.183E-01    0.185E-01
DAV:   4    -0.484413614809E+03    0.27623E-03   -0.73157E-04  1536   0.962E-02    0.100E-01
DAV:   5    -0.484413592321E+03    0.22488E-04   -0.42248E-04  1560   0.527E-02    0.295E-02
DAV:   6    -0.484413601122E+03   -0.88012E-05   -0.56118E-05  1328   0.232E-02
  47 F= -.48441360E+03 E0= -.48438495E+03  d E =-.116925E-01
       N       E                     dE             d eps       ncg     rms          rms(c)
DAV:   1    -0.484415146920E+03   -0.15546E-02   -0.52579E+00  1408   0.499E+00    0.358E-01
DAV:   2    -0.484422160223E+03   -0.70133E-02   -0.81801E-02  1600   0.663E-01    0.261E-01
DAV:   3    -0.484421972319E+03    0.18790E-03   -0.40841E-03  1584   0.196E-01    0.220E-01
DAV:   4    -0.484421702152E+03    0.27017E-03   -0.12167E-03  1552   0.127E-01    0.149E-01
DAV:   5    -0.484421614958E+03    0.87194E-04   -0.64737E-04  1512   0.761E-02    0.417E-02
DAV:   6    -0.484421637845E+03   -0.22887E-04   -0.13904E-04  1568   0.350E-02    0.240E-02
DAV:   7    -0.484421637046E+03    0.79912E-06   -0.36474E-05  1128   0.203E-02
  48 F= -.48442164E+03 E0= -.48439307E+03  d E =-.803592E-02
       N       E                     dE             d eps       ncg     rms          rms(c)
DAV:   1    -0.484419823596E+03    0.18142E-02   -0.33307E+00  1408   0.397E+00    0.286E-01
DAV:   2    -0.484424278579E+03   -0.44550E-02   -0.51991E-02  1592   0.529E-01    0.207E-01
DAV:   3    -0.484424157735E+03    0.12084E-03   -0.25987E-03  1576   0.157E-01    0.173E-01
DAV:   4    -0.484423998470E+03    0.15927E-03   -0.77955E-04  1544   0.102E-01    0.120E-01
DAV:   5    -0.484423946457E+03    0.52012E-04   -0.41116E-04  1512   0.617E-02    0.379E-02
DAV:   6    -0.484423963704E+03   -0.17247E-04   -0.14495E-04  1376   0.391E-02    0.294E-02
DAV:   7    -0.484423955993E+03    0.77112E-05   -0.44098E-05  1136   0.230E-02
  49 F= -.48442396E+03 E0= -.48439545E+03  d E =-.103549E-01
       N       E                     dE             d eps       ncg     rms          rms(c)
DAV:   1    -0.484426662076E+03   -0.26984E-02   -0.26909E+00  1408   0.373E+00    0.269E-01
DAV:   2    -0.484430272087E+03   -0.36100E-02   -0.43551E-02  1592   0.503E-01    0.206E-01
DAV:   3    -0.484430142284E+03    0.12980E-03   -0.24920E-03  1584   0.157E-01    0.166E-01
DAV:   4    -0.484429974752E+03    0.16753E-03   -0.70865E-04  1536   0.958E-02    0.111E-01
DAV:   5    -0.484429933232E+03    0.41520E-04   -0.38939E-04  1592   0.645E-02    0.464E-02
DAV:   6    -0.484429940557E+03   -0.73256E-05   -0.19617E-04  1432   0.488E-02    0.317E-02
DAV:   7    -0.484429931855E+03    0.87027E-05   -0.49017E-05  1192   0.254E-02
  50 F= -.48442993E+03 E0= -.48440146E+03  d E =-.597586E-02
       N       E                     dE             d eps       ncg     rms          rms(c)
DAV:   1    -0.484429153970E+03    0.78659E-03   -0.19947E+00  1408   0.321E+00    0.232E-01
DAV:   2    -0.484431836706E+03   -0.26827E-02   -0.32344E-02  1592   0.433E-01    0.177E-01
DAV:   3    -0.484431741230E+03    0.95476E-04   -0.18492E-03  1584   0.135E-01    0.143E-01
DAV:   4    -0.484431617697E+03    0.12353E-03   -0.52707E-04  1552   0.826E-02    0.959E-02
DAV:   5    -0.484431587475E+03    0.30222E-04   -0.28841E-04  1592   0.555E-02    0.401E-02
DAV:   6    -0.484431592728E+03   -0.52530E-05   -0.14558E-04  1384   0.421E-02    0.273E-02
DAV:   7    -0.484431586681E+03    0.60472E-05   -0.36350E-05  1136   0.220E-02
  51 F= -.48443159E+03 E0= -.48440314E+03  d E =-.763069E-02
       N       E                     dE             d eps       ncg     rms          rms(c)
DAV:   1    -0.484433850767E+03   -0.22580E-02   -0.20847E+00  1408   0.333E+00    0.227E-01
DAV:   2    -0.484436556671E+03   -0.27059E-02   -0.32680E-02  1592   0.436E-01    0.182E-01
DAV:   3    -0.484436448482E+03    0.10819E-03   -0.18167E-03  1576   0.136E-01    0.143E-01
DAV:   4    -0.484436318803E+03    0.12968E-03   -0.53700E-04  1552   0.851E-02    0.941E-02
DAV:   5    -0.484436285567E+03    0.33236E-04   -0.28297E-04  1584   0.515E-02    0.244E-02
DAV:   6    -0.484436293199E+03   -0.76317E-05   -0.47741E-05  1376   0.210E-02
  52 F= -.48443629E+03 E0= -.48440786E+03  d E =-.470652E-02
       N       E                     dE             d eps       ncg     rms          rms(c)
DAV:   1    -0.484435545067E+03    0.74050E-03   -0.27915E+00  1408   0.385E+00    0.263E-01
DAV:   2    -0.484439181021E+03   -0.36360E-02   -0.43746E-02  1600   0.504E-01    0.213E-01
DAV:   3    -0.484439033752E+03    0.14727E-03   -0.24666E-03  1576   0.159E-01    0.167E-01
DAV:   4    -0.484438849867E+03    0.18389E-03   -0.71730E-04  1552   0.984E-02    0.108E-01
DAV:   5    -0.484438805245E+03    0.44622E-04   -0.38322E-04  1600   0.594E-02    0.280E-02
DAV:   6    -0.484438814930E+03   -0.96860E-05   -0.63540E-05  1408   0.242E-02
  53 F= -.48443881E+03 E0= -.48441040E+03  d E =-.722825E-02
       N       E                     dE             d eps       ncg     rms          rms(c)
DAV:   1    -0.484438653274E+03    0.15197E-03   -0.24231E-01  1408   0.114E+00    0.793E-02
DAV:   2    -0.484438980262E+03   -0.32699E-03   -0.38615E-03  1608   0.149E-01    0.640E-02
DAV:   3    -0.484438966845E+03    0.13417E-04   -0.22609E-04  1560   0.483E-02    0.505E-02
DAV:   4    -0.484438951379E+03    0.15466E-04   -0.61716E-05  1184   0.293E-02    0.313E-02
DAV:   5    -0.484438949831E+03    0.15482E-05   -0.35373E-05  1144   0.187E-02
  54 F= -.48443895E+03 E0= -.48441055E+03  d E =-.736315E-02
       N       E                     dE             d eps       ncg     rms          rms(c)
DAV:   1    -0.484441011107E+03   -0.20597E-02   -0.19266E+00  1408   0.327E+00    0.222E-01
DAV:   2    -0.484443430029E+03   -0.24189E-02   -0.30586E-02  1616   0.432E-01    0.152E-01
DAV:   3    -0.484443339931E+03    0.90098E-04   -0.14274E-03  1600   0.111E-01    0.114E-01
DAV:   4    -0.484443337909E+03    0.20218E-05   -0.49241E-04  1576   0.785E-02    0.105E-01
DAV:   5    -0.484443263711E+03    0.74198E-04   -0.22808E-04  1512   0.566E-02    0.333E-02
DAV:   6    -0.484443272400E+03   -0.86886E-05   -0.71673E-05  1408   0.274E-02
  55 F= -.48444327E+03 E0= -.48441488E+03  d E =-.432257E-02
       N       E                     dE             d eps       ncg     rms          rms(c)
DAV:   1    -0.484442455880E+03    0.80783E-03   -0.18771E+00  1408   0.323E+00    0.220E-01
DAV:   2    -0.484444832980E+03   -0.23771E-02   -0.29876E-02  1608   0.427E-01    0.148E-01
DAV:   3    -0.484444745803E+03    0.87177E-04   -0.13719E-03  1608   0.107E-01    0.108E-01
DAV:   4    -0.484444760683E+03   -0.14879E-04   -0.46809E-04  1584   0.764E-02    0.105E-01
DAV:   5    -0.484444683435E+03    0.77248E-04   -0.22659E-04  1520   0.568E-02    0.335E-02
DAV:   6    -0.484444690741E+03   -0.73058E-05   -0.61888E-05  1360   0.246E-02
  56 F= -.48444469E+03 E0= -.48441630E+03  d E =-.574091E-02
       N       E                     dE             d eps       ncg     rms          rms(c)
DAV:   1    -0.484445862311E+03   -0.11789E-02   -0.22417E+00  1416   0.358E+00    0.241E-01
DAV:   2    -0.484448681957E+03   -0.28196E-02   -0.34851E-02  1560   0.463E-01    0.168E-01
DAV:   3    -0.484448595474E+03    0.86482E-04   -0.16260E-03  1608   0.126E-01    0.134E-01
DAV:   4    -0.484448543078E+03    0.52397E-04   -0.58936E-04  1536   0.875E-02    0.106E-01
DAV:   5    -0.484448486241E+03    0.56836E-04   -0.24993E-04  1544   0.558E-02    0.295E-02
DAV:   6    -0.484448497221E+03   -0.10980E-04   -0.58465E-05  1344   0.229E-02    0.130E-02
DAV:   7    -0.484448498569E+03   -0.13478E-05   -0.10994E-05   968   0.109E-02
  57 F= -.48444850E+03 E0= -.48442006E+03  d E =-.380783E-02
       N       E                     dE             d eps       ncg     rms          rms(c)
DAV:   1    -0.484448332590E+03    0.16463E-03   -0.69026E-01  1416   0.199E+00    0.134E-01
DAV:   2    -0.484449201867E+03   -0.86928E-03   -0.10736E-02  1584   0.257E-01    0.932E-02
DAV:   3    -0.484449175294E+03    0.26573E-04   -0.49848E-04  1608   0.699E-02    0.748E-02
DAV:   4    -0.484449157579E+03    0.17715E-04   -0.18087E-04  1480   0.485E-02    0.586E-02
DAV:   5    -0.484449142127E+03    0.15451E-04   -0.77789E-05  1256   0.313E-02    0.162E-02
DAV:   6    -0.484449145750E+03   -0.36223E-05   -0.17700E-05  1056   0.132E-02
  58 F= -.48444915E+03 E0= -.48442068E+03  d E =-.445501E-02
       N       E                     dE             d eps       ncg     rms          rms(c)
DAV:   1    -0.484450150050E+03   -0.10079E-02   -0.24934E+00  1416   0.380E+00    0.253E-01
DAV:   2    -0.484453279964E+03   -0.31299E-02   -0.38310E-02  1584   0.487E-01    0.172E-01
DAV:   3    -0.484453148326E+03    0.13164E-03   -0.15921E-03  1632   0.119E-01    0.125E-01
DAV:   4    -0.484453185735E+03   -0.37409E-04   -0.65112E-04  1584   0.920E-02    0.126E-01
DAV:   5    -0.484453082318E+03    0.10342E-03   -0.32506E-04  1520   0.668E-02    0.316E-02
DAV:   6    -0.484453093278E+03   -0.10960E-04   -0.68084E-05  1408   0.251E-02    0.148E-02
DAV:   7    -0.484453093591E+03   -0.31351E-06   -0.15719E-05  1000   0.136E-02
  59 F= -.48445309E+03 E0= -.48442468E+03  d E =-.394784E-02
       N       E                     dE             d eps       ncg     rms          rms(c)
DAV:   1    -0.484452542481E+03    0.55080E-03   -0.10497E+00  1416   0.247E+00    0.165E-01
DAV:   2    -0.484453867239E+03   -0.13248E-02   -0.16186E-02  1592   0.316E-01    0.112E-01
DAV:   3    -0.484453812259E+03    0.54979E-04   -0.67117E-04  1624   0.782E-02    0.809E-02
DAV:   4    -0.484453828880E+03   -0.16621E-04   -0.27903E-04  1584   0.606E-02    0.813E-02
DAV:   5    -0.484453787842E+03    0.41038E-04   -0.13704E-04  1352   0.435E-02    0.215E-02
DAV:   6    -0.484453793286E+03   -0.54434E-05   -0.35110E-05  1128   0.198E-02
  60 F= -.48445379E+03 E0= -.48442541E+03  d E =-.464754E-02
       N       E                     dE             d eps       ncg     rms          rms(c)
DAV:   1    -0.484453634141E+03    0.15370E-03   -0.29760E+00  1416   0.414E+00    0.273E-01
DAV:   2    -0.484457303660E+03   -0.36695E-02   -0.45043E-02  1600   0.527E-01    0.182E-01
DAV:   3    -0.484457150619E+03    0.15304E-03   -0.18720E-03  1616   0.126E-01    0.129E-01
DAV:   4    -0.484457224671E+03   -0.74052E-04   -0.66032E-04  1568   0.938E-02    0.127E-01
DAV:   5    -0.484457116705E+03    0.10797E-03   -0.37863E-04  1512   0.709E-02    0.490E-02
DAV:   6    -0.484457132360E+03   -0.15655E-04   -0.15918E-04  1416   0.437E-02    0.322E-02
DAV:   7    -0.484457122411E+03    0.99492E-05   -0.51270E-05  1232   0.262E-02
  61 F= -.48445712E+03 E0= -.48442870E+03  d E =-.332913E-02
       N       E                     dE             d eps       ncg     rms          rms(c)
DAV:   1    -0.484456973527E+03    0.15883E-03   -0.36899E-01  1416   0.146E+00    0.967E-02
DAV:   2    -0.484457436835E+03   -0.46331E-03   -0.56345E-03  1608   0.186E-01    0.648E-02
DAV:   3    -0.484457418044E+03    0.18791E-04   -0.23729E-04  1616   0.457E-02    0.463E-02
DAV:   4    -0.484457425928E+03   -0.78843E-05   -0.83788E-05  1240   0.335E-02
  62 F= -.48445743E+03 E0= -.48442897E+03  d E =-.363264E-02
       N       E                     dE             d eps       ncg     rms          rms(c)
DAV:   1    -0.484458137852E+03   -0.71981E-03   -0.19901E+00  1408   0.339E+00    0.271E-01
DAV:   2    -0.484460717047E+03   -0.25792E-02   -0.32179E-02  1616   0.469E-01    0.279E-01
DAV:   3    -0.484460241332E+03    0.47572E-03   -0.30311E-03  1552   0.191E-01    0.161E-01
DAV:   4    -0.484460057032E+03    0.18430E-03   -0.68658E-04  1528   0.937E-02    0.917E-02
DAV:   5    -0.484460088003E+03   -0.30971E-04   -0.41524E-04  1592   0.688E-02    0.551E-02
DAV:   6    -0.484460066971E+03    0.21032E-04   -0.19057E-04  1352   0.486E-02    0.201E-02
DAV:   7    -0.484460067876E+03   -0.90502E-06   -0.20191E-05  1096   0.164E-02
  63 F= -.48446007E+03 E0= -.48443155E+03  d E =-.264195E-02
       N       E                     dE             d eps       ncg     rms          rms(c)
DAV:   1    -0.484460001863E+03    0.65108E-04   -0.22158E-01  1408   0.113E+00    0.901E-02
DAV:   2    -0.484460312719E+03   -0.31086E-03   -0.36621E-03  1616   0.160E-01    0.101E-01
DAV:   3    -0.484460244320E+03    0.68399E-04   -0.36304E-04  1552   0.662E-02    0.520E-02
DAV:   4    -0.484460225677E+03    0.18643E-04   -0.70518E-05  1240   0.299E-02    0.299E-02
DAV:   5    -0.484460230202E+03   -0.45246E-05   -0.44966E-05  1136   0.226E-02
  64 F= -.48446023E+03 E0= -.48443168E+03  d E =-.280427E-02
       N       E                     dE             d eps       ncg     rms          rms(c)
DAV:   1    -0.484460141009E+03    0.84668E-04   -0.22827E+00  1408   0.359E+00    0.261E-01
DAV:   2    -0.484462959221E+03   -0.28182E-02   -0.35555E-02  1608   0.478E-01    0.225E-01
DAV:   3    -0.484462764910E+03    0.19431E-03   -0.25195E-03  1544   0.173E-01    0.170E-01
DAV:   4    -0.484462559164E+03    0.20575E-03   -0.69378E-04  1552   0.947E-02    0.908E-02
DAV:   5    -0.484462583262E+03   -0.24097E-04   -0.37460E-04  1536   0.647E-02    0.517E-02
DAV:   6    -0.484462572566E+03    0.10696E-04   -0.18350E-04  1416   0.482E-02    0.230E-02
DAV:   7    -0.484462571392E+03    0.11736E-05   -0.25507E-05  1088   0.186E-02
  65 F= -.48446257E+03 E0= -.48443402E+03  d E =-.234119E-02
       N       E                     dE             d eps       ncg     rms          rms(c)
DAV:   1    -0.484462471228E+03    0.10134E-03   -0.23271E-01  1408   0.115E+00    0.828E-02
DAV:   2    -0.484462765491E+03   -0.29426E-03   -0.36419E-03  1632   0.153E-01    0.709E-02
DAV:   3    -0.484462748010E+03    0.17481E-04   -0.24972E-04  1584   0.543E-02    0.544E-02
DAV:   4    -0.484462726110E+03    0.21900E-04   -0.68533E-05  1200   0.300E-02    0.289E-02
DAV:   5    -0.484462729765E+03   -0.36551E-05   -0.38259E-05  1136   0.208E-02
  66 F= -.48446273E+03 E0= -.48443417E+03  d E =-.249956E-02
       N       E                     dE             d eps       ncg     rms          rms(c)
DAV:   1    -0.484462870530E+03   -0.14442E-03   -0.21604E+00  1424   0.344E+00    0.218E-01
DAV:   2    -0.484465449343E+03   -0.25788E-02   -0.31587E-02  1600   0.437E-01    0.147E-01
DAV:   3    -0.484465348061E+03    0.10128E-03   -0.11590E-03  1648   0.949E-02    0.961E-02
DAV:   4    -0.484465366144E+03   -0.18083E-04   -0.36572E-04  1584   0.644E-02    0.607E-02
DAV:   5    -0.484465367878E+03   -0.17336E-05   -0.23015E-04  1392   0.539E-02    0.335E-02
DAV:   6    -0.484465365983E+03    0.18949E-05   -0.53846E-05  1192   0.276E-02
  67 F= -.48446537E+03 E0= -.48443677E+03  d E =-.263622E-02
       N       E                     dE             d eps       ncg     rms          rms(c)
DAV:   1    -0.484464944006E+03    0.42387E-03   -0.87432E-01  1408   0.219E+00    0.140E-01
DAV:   2    -0.484466024463E+03   -0.10805E-02   -0.12937E-02  1600   0.279E-01    0.955E-02
DAV:   3    -0.484465995214E+03    0.29248E-04   -0.52477E-04  1632   0.674E-02    0.722E-02
DAV:   4    -0.484466007446E+03   -0.12231E-04   -0.18286E-04  1536   0.498E-02    0.700E-02
DAV:   5    -0.484465983011E+03    0.24434E-04   -0.96105E-05  1304   0.353E-02    0.193E-02
DAV:   6    -0.484465989724E+03   -0.67130E-05   -0.30215E-05  1120   0.188E-02
  68 F= -.48446599E+03 E0= -.48443737E+03  d E =-.325996E-02
       N       E                     dE             d eps       ncg     rms          rms(c)
DAV:   1    -0.484465815405E+03    0.16761E-03   -0.22047E+00  1424   0.345E+00    0.228E-01
DAV:   2    -0.484468482630E+03   -0.26672E-02   -0.32811E-02  1600   0.449E-01    0.151E-01
DAV:   3    -0.484468396885E+03    0.85745E-04   -0.13831E-03  1640   0.108E-01    0.110E-01
DAV:   4    -0.484468442759E+03   -0.45875E-04   -0.46896E-04  1552   0.789E-02    0.116E-01
DAV:   5    -0.484468360372E+03    0.82387E-04   -0.24182E-04  1528   0.566E-02    0.345E-02
DAV:   6    -0.484468375880E+03   -0.15508E-04   -0.87305E-05  1424   0.309E-02    0.225E-02
DAV:   7    -0.484468371588E+03    0.42913E-05   -0.29867E-05  1088   0.198E-02
  69 F= -.48446837E+03 E0= -.48443968E+03  d E =-.238186E-02
       N       E                     dE             d eps       ncg     rms          rms(c)
DAV:   1    -0.484468255642E+03    0.12024E-03   -0.22478E-01  1408   0.110E+00    0.737E-02
DAV:   2    -0.484468535915E+03   -0.28027E-03   -0.34017E-03  1616   0.144E-01    0.484E-02
DAV:   3    -0.484468527166E+03    0.87498E-05   -0.14547E-04  1664   0.354E-02    0.357E-02
DAV:   4    -0.484468531729E+03   -0.45636E-05   -0.46063E-05  1144   0.249E-02
  70 F= -.48446853E+03 E0= -.48443980E+03  d E =-.254200E-02
       N       E                     dE             d eps       ncg     rms          rms(c)
DAV:   1    -0.484468512003E+03    0.15163E-04   -0.16415E+00  1424   0.294E+00    0.195E-01
DAV:   2    -0.484470445238E+03   -0.19332E-02   -0.23930E-02  1568   0.380E-01    0.129E-01
DAV:   3    -0.484470374932E+03    0.70307E-04   -0.92007E-04  1624   0.859E-02    0.922E-02
DAV:   4    -0.484470426701E+03   -0.51769E-04   -0.35883E-04  1552   0.651E-02    0.959E-02
DAV:   5    -0.484470372049E+03    0.54652E-04   -0.18732E-04  1464   0.520E-02    0.324E-02
DAV:   6    -0.484470381039E+03   -0.89901E-05   -0.57864E-05  1208   0.262E-02
  71 F= -.48447038E+03 E0= -.48444167E+03  d E =-.184931E-02
       N       E                     dE             d eps       ncg     rms          rms(c)
DAV:   1    -0.484469737419E+03    0.63463E-03   -0.91835E-01  1424   0.220E+00    0.145E-01
DAV:   2    -0.484470865687E+03   -0.11283E-02   -0.13565E-02  1592   0.286E-01    0.977E-02
DAV:   3    -0.484470838719E+03    0.26969E-04   -0.57730E-04  1616   0.751E-02    0.801E-02
DAV:   4    -0.484470828701E+03    0.10018E-04   -0.20099E-04  1504   0.513E-02    0.640E-02
DAV:   5    -0.484470819032E+03    0.96691E-05   -0.85021E-05  1288   0.343E-02
  72 F= -.48447082E+03 E0= -.48444210E+03  d E =-.228730E-02
       N       E                     dE             d eps       ncg     rms          rms(c)
DAV:   1    -0.484470918302E+03   -0.89601E-04   -0.16893E+00  1424   0.297E+00    0.200E-01
DAV:   2    -0.484472933942E+03   -0.20156E-02   -0.24684E-02  1592   0.388E-01    0.136E-01
DAV:   3    -0.484472881007E+03    0.52935E-04   -0.11931E-03  1624   0.111E-01    0.109E-01
DAV:   4    -0.484472857183E+03    0.23824E-04   -0.40688E-04  1552   0.731E-02    0.842E-02
DAV:   5    -0.484472857455E+03   -0.27168E-06   -0.17172E-04  1400   0.480E-02    0.472E-02
DAV:   6    -0.484472851093E+03    0.63624E-05   -0.11549E-04  1240   0.364E-02    0.225E-02
DAV:   7    -0.484472849961E+03    0.11314E-05   -0.22319E-05  1064   0.171E-02
  73 F= -.48447285E+03 E0= -.48444416E+03  d E =-.203093E-02
       N       E                     dE             d eps       ncg     rms          rms(c)
DAV:   1    -0.484472022810E+03    0.82828E-03   -0.12259E+00  1424   0.253E+00    0.168E-01
DAV:   2    -0.484473505924E+03   -0.14831E-02   -0.17963E-02  1576   0.329E-01    0.114E-01
DAV:   3    -0.484473473865E+03    0.32059E-04   -0.78069E-04  1632   0.877E-02    0.972E-02
DAV:   4    -0.484473443688E+03    0.30177E-04   -0.27432E-04  1544   0.591E-02    0.714E-02
DAV:   5    -0.484473432114E+03    0.11574E-04   -0.10880E-04  1400   0.367E-02    0.241E-02
DAV:   6    -0.484473440082E+03   -0.79677E-05   -0.38002E-05  1200   0.200E-02
  74 F= -.48447344E+03 E0= -.48444477E+03  d E =-.262105E-02
       N       E                     dE             d eps       ncg     rms          rms(c)
DAV:   1    -0.484473166997E+03    0.26512E-03   -0.19333E+00  1424   0.317E+00    0.207E-01
DAV:   2    -0.484475474451E+03   -0.23075E-02   -0.27876E-02  1536   0.408E-01    0.136E-01
DAV:   3    -0.484475372673E+03    0.10178E-03   -0.10821E-03  1640   0.916E-02    0.906E-02
DAV:   4    -0.484475404862E+03   -0.32190E-04   -0.34677E-04  1536   0.651E-02    0.789E-02
DAV:   5    -0.484475372014E+03    0.32848E-04   -0.20265E-04  1400   0.501E-02    0.395E-02
DAV:   6    -0.484475377246E+03   -0.52318E-05   -0.71241E-05  1160   0.312E-02
  75 F= -.48447538E+03 E0= -.48444664E+03  d E =-.193716E-02
       N       E                     dE             d eps       ncg     rms          rms(c)
DAV:   1    -0.484474652453E+03    0.71956E-03   -0.93466E-01  1424   0.220E+00    0.145E-01
DAV:   2    -0.484475779322E+03   -0.11269E-02   -0.13518E-02  1536   0.284E-01    0.950E-02
DAV:   3    -0.484475733512E+03    0.45810E-04   -0.52471E-04  1640   0.643E-02    0.648E-02
DAV:   4    -0.484475763788E+03   -0.30276E-04   -0.18084E-04  1528   0.483E-02    0.709E-02
DAV:   5    -0.484475728952E+03    0.34837E-04   -0.10586E-04  1200   0.372E-02    0.240E-02
DAV:   6    -0.484475735356E+03   -0.64048E-05   -0.41451E-05  1144   0.226E-02
  76 F= -.48447574E+03 E0= -.48444698E+03  d E =-.229527E-02
       N       E                     dE             d eps       ncg     rms          rms(c)
DAV:   1    -0.484475807860E+03   -0.78908E-04   -0.12311E+00  1408   0.250E+00    0.165E-01
DAV:   2    -0.484477253300E+03   -0.14454E-02   -0.17659E-02  1552   0.324E-01    0.108E-01
DAV:   3    -0.484477194176E+03    0.59124E-04   -0.68371E-04  1624   0.740E-02    0.767E-02
DAV:   4    -0.484477222938E+03   -0.28762E-04   -0.26582E-04  1544   0.570E-02    0.794E-02
DAV:   5    -0.484477188236E+03    0.34702E-04   -0.13619E-04  1328   0.440E-02    0.276E-02
DAV:   6    -0.484477193284E+03   -0.50481E-05   -0.39666E-05  1088   0.212E-02
  77 F= -.48447719E+03 E0= -.48444845E+03  d E =-.145793E-02
       N       E                     dE             d eps       ncg     rms          rms(c)
DAV:   1    -0.484475960163E+03    0.12281E-02   -0.15871E+00  1408   0.284E+00    0.189E-01
DAV:   2    -0.484477822854E+03   -0.18627E-02   -0.22754E-02  1544   0.368E-01    0.123E-01
DAV:   3    -0.484477749677E+03    0.73178E-04   -0.88590E-04  1632   0.848E-02    0.895E-02
DAV:   4    -0.484477783928E+03   -0.34251E-04   -0.34969E-04  1528   0.653E-02    0.919E-02
DAV:   5    -0.484477735226E+03    0.48701E-04   -0.17340E-04  1408   0.495E-02    0.293E-02
DAV:   6    -0.484477742147E+03   -0.69208E-05   -0.45994E-05  1120   0.222E-02
  78 F= -.48447774E+03 E0= -.48444900E+03  d E =-.200679E-02
       N       E                     dE             d eps       ncg     rms          rms(c)
DAV:   1    -0.484477997972E+03   -0.26275E-03   -0.11321E+00  1408   0.240E+00    0.171E-01
DAV:   2    -0.484479314116E+03   -0.13161E-02   -0.16597E-02  1616   0.322E-01    0.135E-01
DAV:   3    -0.484479283984E+03    0.30132E-04   -0.11156E-03  1584   0.111E-01    0.119E-01
DAV:   4    -0.484479177195E+03    0.10679E-03   -0.31838E-04  1520   0.628E-02    0.589E-02
DAV:   5    -0.484479181539E+03   -0.43442E-05   -0.12132E-04  1552   0.349E-02    0.254E-02
DAV:   6    -0.484479187910E+03   -0.63712E-05   -0.51766E-05  1200   0.254E-02
  79 F= -.48447919E+03 E0= -.48445048E+03  d E =-.144576E-02
       N       E                     dE             d eps       ncg     rms          rms(c)
DAV:   1    -0.484478630937E+03    0.55060E-03   -0.89933E-01  1408   0.214E+00    0.152E-01
DAV:   2    -0.484479667814E+03   -0.10369E-02   -0.13154E-02  1608   0.287E-01    0.118E-01
DAV:   3    -0.484479649159E+03    0.18655E-04   -0.87838E-04  1600   0.993E-02    0.105E-01
DAV:   4    -0.484479567299E+03    0.81860E-04   -0.25353E-04  1512   0.563E-02    0.530E-02
DAV:   5    -0.484479570331E+03   -0.30316E-05   -0.87427E-05  1504   0.292E-02
  80 F= -.48447957E+03 E0= -.48445089E+03  d E =-.182818E-02
       N       E                     dE             d eps       ncg     rms          rms(c)
DAV:   1    -0.484479866470E+03   -0.29917E-03   -0.10150E+00  1408   0.227E+00    0.189E-01
DAV:   2    -0.484481210088E+03   -0.13436E-02   -0.15627E-02  1576   0.325E-01    0.216E-01
DAV:   3    -0.484480870155E+03    0.33993E-03   -0.16998E-03  1544   0.142E-01    0.111E-01
DAV:   4    -0.484480765437E+03    0.10472E-03   -0.32748E-04  1528   0.605E-02    0.533E-02
DAV:   5    -0.484480776046E+03   -0.10608E-04   -0.16348E-04  1592   0.396E-02    0.278E-02
DAV:   6    -0.484480774923E+03    0.11230E-05   -0.60068E-05  1184   0.269E-02
  81 F= -.48448077E+03 E0= -.48445212E+03  d E =-.120459E-02
