<?xml version="1.0" encoding="ISO-8859-1"?>
<modeling>
 <generator>
  <i name="program" type="string">vasp </i>
  <i name="version" type="string">6.3.2  </i>
  <i name="subversion" type="string">27Jun22 (build May 04 2024 18:40:40) complex                          parallel </i>
  <i name="platform" type="string">LinuxIFC </i>
  <i name="date" type="string">2024 09 03 </i>
  <i name="time" type="string">01:22:33 </i>
 </generator>
 <incar>
  <i type="string" name="SYSTEM">slab_Cel1-OPT</i>
  <i type="int" name="ISTART">     0</i>
  <i type="string" name="PREC">N</i>
  <i type="string" name="ALGO">N</i>
  <i type="int" name="ICHARG">     2</i>
  <i type="int" name="NELM">   200</i>
  <i type="int" name="IBRION">     2</i>
  <i name="EDIFF">      0.00001000</i>
  <i name="EDIFFG">     -0.05000000</i>
  <i type="int" name="NSW">  1000</i>
  <i type="int" name="ISIF">     3</i>
  <i name="ENCUT">    400.00000000</i>
  <i name="POTIM">      0.10000000</i>
  <i type="string" name="LREAL">AUTO</i>
  <i type="int" name="ISMEAR">     0</i>
  <i name="SIGMA">      0.10000000</i>
  <i type="logical" name="LWAVE"> F  </i>
  <i type="logical" name="LCHARG"> F  </i>
  <i type="logical" name="LELF"> F  </i>
  <i type="logical" name="LAECHG"> F  </i>
  <i type="logical" name="LDIPOL"> T  </i>
  <i type="int" name="IDIPOL">     3</i>
 </incar>
 <primitive_cell>
  <structure name="primitive_cell" >
   <crystal>
    <varray name="basis" >
     <v>      13.75970367       0.00000000       0.00000000 </v>
     <v>       0.00000000      11.28669971       0.00000000 </v>
     <v>       0.00000000       0.00000000      15.00000000 </v>
    </varray>
    <i name="volume">   2329.52465126 </i>
    <varray name="rec_basis" >
     <v>       0.07267598       0.00000000       0.00000000 </v>
     <v>       0.00000000       0.08859986       0.00000000 </v>
     <v>       0.00000000       0.00000000       0.06666667 </v>
    </varray>
   </crystal>
   <varray name="positions" >
    <v>       0.07054120       0.38816457       0.22227495 </v>
    <v>       0.98151180       0.21832942       0.16785344 </v>
    <v>       0.22877304       0.39667288       0.18904348 </v>
    <v>       0.82472337       0.57572318       0.18403191 </v>
    <v>       0.14970601       0.24663792       0.12277753 </v>
    <v>       0.90758628       0.38434512       0.21811946 </v>
    <v>       0.56886571       0.39316130       0.23173729 </v>
    <v>       0.47768100       0.22391730       0.18017943 </v>
    <v>       0.73035049       0.39802658       0.19909345 </v>
    <v>       0.31101118       0.58132963       0.17977696 </v>
    <v>       0.64681854       0.25040749       0.13377315 </v>
    <v>       0.40275100       0.39355427       0.22106508 </v>
    <v>       0.81808056       0.88988957       0.05647519 </v>
    <v>       0.73319531       0.72568325       0.12448457 </v>
    <v>       0.97932824       0.89597624       0.07999408 </v>
    <v>       0.06867909       0.07698375       0.09423854 </v>
    <v>       0.90528082       0.74258583       0.14719628 </v>
    <v>       0.65472406       0.89333727       0.07691603 </v>
    <v>       0.31825350       0.89473226       0.05377466 </v>
    <v>       0.22716619       0.72126926       0.10084126 </v>
    <v>       0.47498917       0.90396535       0.09489577 </v>
    <v>       0.56592959       0.08075138       0.11024766 </v>
    <v>       0.38612516       0.76037560       0.16363174 </v>
    <v>       0.15509033       0.88950396       0.05271529 </v>
    <v>       0.98784551       0.43883046       0.24713656 </v>
    <v>       0.89991795       0.26975381       0.19549767 </v>
    <v>       0.15759857       0.43325808       0.24240148 </v>
    <v>       0.14788829       0.14353661       0.08017307 </v>
    <v>       0.98633649       0.10796021       0.13653167 </v>
    <v>       0.22915942       0.31533454       0.12527490 </v>
    <v>       0.06735802       0.28598388       0.16888911 </v>
    <v>       0.82274912       0.45552252       0.21014877 </v>
    <v>       0.48493735       0.44793349       0.25146232 </v>
    <v>       0.39648714       0.27665554       0.20625030 </v>
    <v>       0.65756919       0.43524210       0.25419888 </v>
    <v>       0.64488604       0.14640144       0.09374788 </v>
    <v>       0.48286722       0.11321356       0.15081376 </v>
    <v>       0.72606390       0.31870920       0.13454719 </v>
    <v>       0.56470606       0.29135323       0.18008364 </v>
    <v>       0.31888640       0.46086995       0.20329135 </v>
    <v>       0.73287748       0.94248397       0.03965616 </v>
    <v>       0.64891188       0.78317499       0.11254597 </v>
    <v>       0.90382696       0.93469024       0.03189926 </v>
    <v>       0.90701680       0.63807548       0.18754912 </v>
    <v>       0.73647441       0.61699787       0.15934394 </v>
    <v>       0.98321706       0.81212363       0.14197152 </v>
    <v>       0.81925020       0.78400528       0.10639513 </v>
    <v>       0.56804185       0.96074410       0.08520074 </v>
    <v>       0.23699719       0.94478449       0.02657725 </v>
    <v>       0.14820250       0.77173059       0.06843984 </v>
    <v>       0.40793432       0.93556381       0.03646331 </v>
    <v>       0.38047481       0.65838217       0.20939239 </v>
    <v>       0.23501053       0.60894863       0.12850628 </v>
    <v>       0.46527775       0.83024755       0.16578047 </v>
    <v>       0.31113112       0.79334051       0.10891910 </v>
    <v>       0.06990262       0.95754122       0.06514651 </v>
    <v>       0.57736557       0.77647674       0.24193941 </v>
    <v>       0.65582252       0.60772566       0.29790490 </v>
    <v>       0.48700699       0.61617049       0.29396059 </v>
   </varray>
  </structure>
  <varray name="primitive_index" >
   <v type="int" >        1 </v>
   <v type="int" >        2 </v>
   <v type="int" >        3 </v>
   <v type="int" >        4 </v>
   <v type="int" >        5 </v>
   <v type="int" >        6 </v>
   <v type="int" >        7 </v>
   <v type="int" >        8 </v>
   <v type="int" >        9 </v>
   <v type="int" >       10 </v>
   <v type="int" >       11 </v>
   <v type="int" >       12 </v>
   <v type="int" >       13 </v>
   <v type="int" >       14 </v>
   <v type="int" >       15 </v>
   <v type="int" >       16 </v>
   <v type="int" >       17 </v>
   <v type="int" >       18 </v>
   <v type="int" >       19 </v>
   <v type="int" >       20 </v>
   <v type="int" >       21 </v>
   <v type="int" >       22 </v>
   <v type="int" >       23 </v>
   <v type="int" >       24 </v>
   <v type="int" >       25 </v>
   <v type="int" >       26 </v>
   <v type="int" >       27 </v>
   <v type="int" >       28 </v>
   <v type="int" >       29 </v>
   <v type="int" >       30 </v>
   <v type="int" >       31 </v>
   <v type="int" >       32 </v>
   <v type="int" >       33 </v>
   <v type="int" >       34 </v>
   <v type="int" >       35 </v>
   <v type="int" >       36 </v>
   <v type="int" >       37 </v>
   <v type="int" >       38 </v>
   <v type="int" >       39 </v>
   <v type="int" >       40 </v>
   <v type="int" >       41 </v>
   <v type="int" >       42 </v>
   <v type="int" >       43 </v>
   <v type="int" >       44 </v>
   <v type="int" >       45 </v>
   <v type="int" >       46 </v>
   <v type="int" >       47 </v>
   <v type="int" >       48 </v>
   <v type="int" >       49 </v>
   <v type="int" >       50 </v>
   <v type="int" >       51 </v>
   <v type="int" >       52 </v>
   <v type="int" >       53 </v>
   <v type="int" >       54 </v>
   <v type="int" >       55 </v>
   <v type="int" >       56 </v>
   <v type="int" >       57 </v>
   <v type="int" >       58 </v>
   <v type="int" >       59 </v>
  </varray>
 </primitive_cell>
 <kpoints>
  <generation param="Gamma">
   <v type="int" name="divisions">       2        2        1 </v>
   <v name="usershift">      0.00000000       0.00000000       0.00000000 </v>
   <v name="genvec1">      0.50000000       0.00000000       0.00000000 </v>
   <v name="genvec2">      0.00000000       0.50000000       0.00000000 </v>
   <v name="genvec3">      0.00000000       0.00000000       1.00000000 </v>
   <v name="shift">      0.00000000       0.00000000       0.00000000 </v>
  </generation>
  <varray name="kpointlist" >
   <v>       0.00000000       0.00000000       0.00000000 </v>
   <v>       0.50000000       0.00000000       0.00000000 </v>
   <v>       0.00000000       0.50000000       0.00000000 </v>
   <v>       0.50000000       0.50000000       0.00000000 </v>
  </varray>
  <varray name="weights" >
   <v>       0.25000000 </v>
   <v>       0.25000000 </v>
   <v>       0.25000000 </v>
   <v>       0.25000000 </v>
  </varray>
 </kpoints>
 <parameters>
  <separator name="general" >
   <i type="string" name="SYSTEM">slab_Cel1-OPT</i>
   <i type="logical" name="LCOMPAT"> F  </i>
  </separator>
  <separator name="electronic" >
   <i type="string" name="PREC">n</i>
   <i name="ENMAX">    400.00000000</i>
   <i name="ENAUG">    644.87300000</i>
   <i name="EDIFF">      0.00001000</i>
   <i type="int" name="IALGO">    38</i>
   <i type="int" name="IWAVPR">    11</i>
   <i type="int" name="NBANDS">   176</i>
   <i type="int" name="NBANDSLOW">    -1</i>
   <i type="int" name="NBANDSHIGH">    -1</i>
   <i name="NELECT">    287.00000000</i>
   <i type="int" name="TURBO">     0</i>
   <i type="int" name="IRESTART">     0</i>
   <i type="int" name="NREBOOT">     0</i>
   <i type="int" name="NMIN">     0</i>
   <i name="EREF">      0.00000000</i>
   <separator name="electronic smearing" >
    <i type="int" name="ISMEAR">     0</i>
    <i name="SIGMA">      0.10000000</i>
    <i name="KSPACING">      0.50000000</i>
    <i type="logical" name="KGAMMA"> T  </i>
    <i type="logical" name="KBLOWUP"> T  </i>
   </separator>
   <separator name="electronic projectors" >
    <i type="logical" name="LREAL"> T  </i>
    <v name="ROPT">     -0.00050000     -0.00050000     -0.00050000     -0.00050000</v>
    <i type="int" name="LMAXPAW">  -100</i>
    <i type="int" name="LMAXMIX">     2</i>
    <i type="logical" name="NLSPLINE"> F  </i>
   </separator>
   <separator name="electronic startup" >
    <i type="int" name="ISTART">     0</i>
    <i type="int" name="ICHARG">     2</i>
    <i type="int" name="INIWAV">     1</i>
   </separator>
   <separator name="electronic spin" >
    <i type="int" name="ISPIN">     1</i>
    <i type="logical" name="LNONCOLLINEAR"> F  </i>
    <v name="MAGMOM">      1.00000000      1.00000000      1.00000000      1.00000000      1.00000000      1.00000000      1.00000000      1.00000000      1.00000000      1.00000000      1.00000000      1.00000000      1.00000000      1.00000000      1.00000000      1.00000000      1.00000000      1.00000000      1.00000000      1.00000000
      1.00000000      1.00000000      1.00000000      1.00000000      1.00000000      1.00000000      1.00000000      1.00000000      1.00000000      1.00000000      1.00000000      1.00000000      1.00000000      1.00000000      1.00000000      1.00000000      1.00000000      1.00000000      1.00000000      1.00000000
      1.00000000      1.00000000      1.00000000      1.00000000      1.00000000      1.00000000      1.00000000      1.00000000      1.00000000      1.00000000      1.00000000      1.00000000      1.00000000      1.00000000      1.00000000      1.00000000      1.00000000      1.00000000      1.00000000</v>
    <i name="NUPDOWN">     -1.00000000</i>
    <i type="logical" name="LSORBIT"> F  </i>
    <v name="SAXIS">      0.00000000      0.00000000      1.00000000</v>
    <i type="logical" name="LSPIRAL"> F  </i>
    <v name="QSPIRAL">      0.00000000      0.00000000      0.00000000</v>
    <i type="logical" name="LZEROZ"> F  </i>
   </separator>
   <separator name="electronic exchange-correlation" >
    <i type="logical" name="LASPH"> F  </i>
    <i type="logical" name="LMETAGGA"> F  </i>
   </separator>
   <separator name="electronic convergence" >
    <i type="int" name="NELM">   200</i>
    <i type="int" name="NELMDL">    -5</i>
    <i type="int" name="NELMIN">     2</i>
    <i name="ENINI">    400.00000000</i>
    <separator name="electronic convergence detail" >
     <i type="logical" name="LDIAG"> T  </i>
     <i type="logical" name="LSUBROT"> F  </i>
     <i name="WEIMIN">      0.00100000</i>
     <i name="EBREAK">      0.00000001</i>
     <i name="DEPER">      0.30000000</i>
     <i type="int" name="NRMM">     4</i>
     <i name="TIME">      0.40000000</i>
    </separator>
   </separator>
   <separator name="electronic mixer" >
    <i name="AMIX">      0.40000000</i>
    <i name="BMIX">      1.00000000</i>
    <i name="AMIN">      0.10000000</i>
    <i name="AMIX_MAG">      1.60000000</i>
    <i name="BMIX_MAG">      1.00000000</i>
    <separator name="electronic mixer details" >
     <i type="int" name="IMIX">     4</i>
     <i type="logical" name="MIXFIRST"> F  </i>
     <i type="int" name="MAXMIX">   -45</i>
     <i name="WC">    100.00000000</i>
     <i type="int" name="INIMIX">     1</i>
     <i type="int" name="MIXPRE">     1</i>
     <i type="int" name="MREMOVE">     5</i>
    </separator>
   </separator>
   <separator name="electronic dipolcorrection" >
    <i type="logical" name="LDIPOL"> T  </i>
    <i type="logical" name="LMONO"> F  </i>
    <i type="int" name="IDIPOL">     3</i>
    <i name="EPSILON">      1.00000000</i>
    <v name="DIPOL">   -100.00000000   -100.00000000   -100.00000000</v>
    <i name="EFIELD">      0.00000000</i>
   </separator>
  </separator>
  <separator name="grids" >
   <i type="int" name="NGX">    70</i>
   <i type="int" name="NGY">    56</i>
   <i type="int" name="NGZ">    80</i>
   <i type="int" name="NGXF">   140</i>
   <i type="int" name="NGYF">   112</i>
   <i type="int" name="NGZF">   160</i>
   <i type="logical" name="ADDGRID"> F  </i>
  </separator>
  <separator name="ionic" >
   <i type="int" name="NSW">  1000</i>
   <i type="int" name="IBRION">     2</i>
   <i type="int" name="MDALGO">     0</i>
   <i type="int" name="ISIF">     3</i>
   <i name="PSTRESS">      0.00000000</i>
   <i name="EDIFFG">     -0.05000000</i>
   <i type="int" name="NFREE">     1</i>
   <i name="POTIM">      0.10000000</i>
   <i name="SMASS">     -3.00000000</i>
   <i name="SCALEE">      1.00000000</i>
  </separator>
  <separator name="ionic md" >
   <i name="TEBEG">      0.00010000</i>
   <i name="TEEND">      0.00010000</i>
   <i type="int" name="NBLOCK">     1</i>
   <i type="int" name="KBLOCK">  1000</i>
   <i type="int" name="NPACO">   256</i>
   <i name="APACO">     10.00000000</i>
  </separator>
  <separator name="symmetry" >
   <i type="int" name="ISYM">     2</i>
   <i name="SYMPREC">      0.00001000</i>
  </separator>
  <separator name="dos" >
   <i type="int" name="LORBIT">     0</i>
   <v name="RWIGS">     -1.00000000     -1.00000000     -1.00000000     -1.00000000</v>
   <i type="int" name="NEDOS">   301</i>
   <i name="EMIN">     10.00000000</i>
   <i name="EMAX">    -10.00000000</i>
   <i name="EFERMI">      0.00000000</i>
  </separator>
  <separator name="writing" >
   <i type="int" name="NWRITE">     2</i>
   <i type="logical" name="LWAVE"> F  </i>
   <i type="logical" name="LDOWNSAMPLE"> F  </i>
   <i type="logical" name="LCHARG"> F  </i>
   <i type="logical" name="LPARD"> F  </i>
   <i type="logical" name="LVTOT"> F  </i>
   <i type="logical" name="LVHAR"> F  </i>
   <i type="logical" name="LELF"> F  </i>
   <i type="logical" name="LOPTICS"> F  </i>
   <v name="STM">      0.00000000      0.00000000      0.00000000      0.00000000      0.00000000      0.00000000      0.00000000</v>
  </separator>
  <separator name="performance" >
   <i type="int" name="NPAR">     4</i>
   <i type="int" name="NSIM">     4</i>
   <i type="int" name="NBLK">    -1</i>
   <i type="logical" name="LPLANE"> T  </i>
   <i type="logical" name="LSCALAPACK"> T  </i>
   <i type="logical" name="LSCAAWARE"> F  </i>
   <i type="logical" name="LSCALU"> F  </i>
   <i type="logical" name="LASYNC"> F  </i>
   <i type="logical" name="LORBITALREAL"> F  </i>
  </separator>
  <separator name="miscellaneous" >
   <i type="int" name="IDIOT">     3</i>
   <i type="int" name="PHON_NSTRUCT">    -1</i>
   <i type="logical" name="LMUSIC"> F  </i>
   <v name="POMASS">     12.01100000     14.00100000    196.96600000    106.42000000</v>
   <v name="DARWINR">      0.00000000      0.00000000      0.00000000      0.00000000</v>
   <v name="DARWINV">      1.00000000      1.00000000      1.00000000      1.00000000</v>
   <i type="logical" name="LCORR"> T  </i>
  </separator>
  <i type="logical" name="GGA_COMPAT"> T  </i>
  <i type="logical" name="LBERRY"> F  </i>
  <i type="int" name="ICORELEVEL">     0</i>
  <i type="logical" name="LDAU"> F  </i>
  <i type="int" name="I_CONSTRAINED_M">     0</i>
  <separator name="electronic exchange-correlation" >
   <i type="string" name="GGA">--</i>
   <i type="int" name="VOSKOWN">     0</i>
   <i type="logical" name="LHFCALC"> F  </i>
   <i type="string" name="PRECFOCK"></i>
   <i type="logical" name="LSYMGRAD"> F  </i>
   <i type="logical" name="LHFONE"> F  </i>
   <i type="logical" name="LRHFCALC"> F  </i>
   <i type="logical" name="LTHOMAS"> F  </i>
   <i type="logical" name="LMODELHF"> F  </i>
   <i type="logical" name="LFOCKACE"> F  </i>
   <i name="ENCUT4O">     -1.00000000</i>
   <i type="int" name="EXXOEP">     0</i>
   <i type="int" name="FOURORBIT">     0</i>
   <i name="AEXX">      0.00000000</i>
   <i name="HFALPHA">      0.00000000</i>
   <i name="MCALPHA">      0.00000000</i>
   <i name="ALDAX">      1.00000000</i>
   <i name="AGGAX">      1.00000000</i>
   <i name="ALDAC">      1.00000000</i>
   <i name="AGGAC">      1.00000000</i>
   <i type="int" name="NKREDX">     1</i>
   <i type="int" name="NKREDY">     1</i>
   <i type="int" name="NKREDZ">     1</i>
   <i type="logical" name="SHIFTRED"> F  </i>
   <i type="logical" name="ODDONLY"> F  </i>
   <i type="logical" name="EVENONLY"> F  </i>
   <i type="int" name="LMAXFOCK">     0</i>
   <i type="int" name="NMAXFOCKAE">     0</i>
   <i type="logical" name="LFOCKAEDFT"> F  </i>
   <i name="HFSCREEN">      0.00000000</i>
   <i name="HFSCREENC">      0.00000000</i>
   <i type="int" name="NBANDSGWLOW">     0</i>
  </separator>
  <separator name="vdW DFT" >
   <i type="logical" name="LUSE_VDW"> F  </i>
   <i name="Zab_VDW">     -0.84910000</i>
   <i name="PARAM1">      0.12340000</i>
   <i name="PARAM2">      1.00000000</i>
   <i name="PARAM3">      0.00000000</i>
  </separator>
  <separator name="model GW" >
   <i type="int" name="MODEL_GW">     0</i>
   <i name="MODEL_EPS0">     23.69008120</i>
   <i name="MODEL_ALPHA">      1.00000000</i>
  </separator>
  <separator name="linear response parameters" >
   <i type="logical" name="LEPSILON"> F  </i>
   <i type="logical" name="LRPA"> F  </i>
   <i type="logical" name="LNABLA"> F  </i>
   <i type="logical" name="LVEL"> F  </i>
   <i name="CSHIFT">      0.10000000</i>
   <i name="OMEGAMAX">     -1.00000000</i>
   <i name="DEG_THRESHOLD">      0.00200000</i>
   <i name="RTIME">     -0.10000000</i>
   <i name="WPLASMAI">      0.00000000</i>
   <v name="DFIELD">      0.00000000      0.00000000      0.00000000</v>
   <v name="WPLASMA">      0.00000000      0.00000000      0.00000000      0.00000000      0.00000000      0.00000000      0.00000000      0.00000000      0.00000000</v>
  </separator>
  <separator name="orbital magnetization" >
   <i type="logical" name="NUCIND"> F  </i>
   <v name="MAGPOS">      0.00000000      0.00000000      0.00000000</v>
   <i type="logical" name="LNICSALL"> T  </i>
   <i type="logical" name="ORBITALMAG"> F  </i>
   <i type="logical" name="LMAGBLOCH"> F  </i>
   <i type="logical" name="LCHIMAG"> F  </i>
   <i type="logical" name="LGAUGE"> T  </i>
   <i type="int" name="MAGATOM">     0</i>
   <v name="MAGDIPOL">      0.00000000      0.00000000      0.00000000</v>
   <v name="AVECCONST">      0.00000000      0.00000000      0.00000000</v>
  </separator>
  <separator name="response functions" >
   <i type="logical" name="LFINITE_TEMPERATURE"> F  </i>
   <i type="logical" name="LADDER"> F  </i>
   <i type="logical" name="LRPAFORCE"> F  </i>
   <i type="logical" name="LFXC"> F  </i>
   <i type="logical" name="LHARTREE"> T  </i>
   <i type="int" name="IBSE">     0</i>
   <v type="int" name="KPOINT">    -1     0     0     0</v>
   <i type="logical" name="LTCTC"> F  </i>
   <i type="logical" name="LTCTE"> F  </i>
   <i type="logical" name="LTETE"> F  </i>
   <i type="logical" name="LTRIPLET"> F  </i>
   <i type="logical" name="LFXCEPS"> F  </i>
   <i type="logical" name="LFXHEG"> F  </i>
   <i type="int" name="NATURALO">     2</i>
   <i type="logical" name="LHOLEGF"> F  </i>
   <i type="logical" name="L2ORDER"> F  </i>
   <i type="logical" name="LDMP1"> F  </i>
   <i type="logical" name="LMP2LT"> F  </i>
   <i type="logical" name="LSMP2LT"> F  </i>
   <i type="logical" name="LGWLF"> F  </i>
   <i name="ENCUTGW">     -2.00000000</i>
   <i name="ENCUTGWSOFT">     -2.00000000</i>
   <i name="ENCUTLF">     -1.00000000</i>
   <i type="logical" name="LESF_SPLINES"> F  </i>
   <i type="int" name="LMAXMP2">    -1</i>
   <i name="SCISSOR">      0.00000000</i>
   <i type="int" name="NOMEGA">     0</i>
   <i type="int" name="NOMEGAR">     0</i>
   <i type="int" name="NBANDSGW">    -1</i>
   <i type="int" name="NBANDSO">    -1</i>
   <i type="int" name="NBANDSV">    -1</i>
   <i type="int" name="NELMGW">     1</i>
   <i type="int" name="NELMHF">     1</i>
   <i type="int" name="DIM">     3</i>
   <i type="int" name="IESPILON">     4</i>
   <i type="int" name="ANTIRES">     0</i>
   <i name="OMEGAMAX">    -30.00000000</i>
   <i name="OMEGAMIN">    -30.00000000</i>
   <i name="OMEGATL">   -200.00000000</i>
   <i type="int" name="OMEGAGRID">     0</i>
   <i name="CSHIFT">     -0.10000000</i>
   <i type="logical" name="LSELFENERGY"> F  </i>
   <i type="logical" name="LSPECTRAL"> F  </i>
   <i type="logical" name="LSPECTRALGW"> F  </i>
   <i type="logical" name="LSINGLES"> F  </i>
   <i type="logical" name="LFERMIGW"> F  </i>
   <i type="logical" name="ODDONLYGW"> F  </i>
   <i type="logical" name="EVENONLYGW"> F  </i>
   <i type="int" name="NKREDLFX">     1</i>
   <i type="int" name="NKREDLFY">     1</i>
   <i type="int" name="NKREDLFZ">     1</i>
   <i type="int" name="MAXMEM">  2800</i>
   <i type="int" name="TELESCOPE">     0</i>
   <i type="int" name="NTAUPAR">    -1</i>
   <i type="int" name="NOMEGAPAR">    -1</i>
   <i name="DAMP_NEWTON">      0.80000001</i>
   <i name="LAMBDA">      1.00000000</i>
  </separator>
  <separator name="External order field" >
   <i name="OFIELD_KAPPA">      0.00000000</i>
   <v name="OFIELD_K">      0.00000000      0.00000000      0.00000000</v>
   <i name="OFIELD_Q6_NEAR">      0.00000000</i>
   <i name="OFIELD_Q6_FAR">      0.00000000</i>
   <i name="OFIELD_A">      0.00000000</i>
  </separator>
  <separator name="optional k-points parameters" >
   <i type="int" name="KPOINTS_OPT_MODE">     1</i>
   <i type="logical" name="LKPOINTS_OPT"> F  </i>
  </separator>
  <separator name="solvation model" >
   <i type="logical" name="LSOL"> F  </i>
  </separator>
 </parameters>
 <atominfo>
  <atoms>      59 </atoms>
  <types>       4 </types>
  <array name="atoms" >
   <dimension dim="1">ion</dimension>
   <field type="string">element</field>
   <field type="int">atomtype</field>
   <set>
    <rc><c>C </c><c>   1</c></rc>
    <rc><c>C </c><c>   1</c></rc>
    <rc><c>C </c><c>   1</c></rc>
    <rc><c>C </c><c>   1</c></rc>
    <rc><c>C </c><c>   1</c></rc>
    <rc><c>C </c><c>   1</c></rc>
    <rc><c>C </c><c>   1</c></rc>
    <rc><c>C </c><c>   1</c></rc>
    <rc><c>C </c><c>   1</c></rc>
    <rc><c>C </c><c>   1</c></rc>
    <rc><c>C </c><c>   1</c></rc>
    <rc><c>C </c><c>   1</c></rc>
    <rc><c>C </c><c>   1</c></rc>
    <rc><c>C </c><c>   1</c></rc>
    <rc><c>C </c><c>   1</c></rc>
    <rc><c>C </c><c>   1</c></rc>
    <rc><c>C </c><c>   1</c></rc>
    <rc><c>C </c><c>   1</c></rc>
    <rc><c>C </c><c>   1</c></rc>
    <rc><c>C </c><c>   1</c></rc>
    <rc><c>C </c><c>   1</c></rc>
    <rc><c>C </c><c>   1</c></rc>
    <rc><c>C </c><c>   1</c></rc>
    <rc><c>C </c><c>   1</c></rc>
    <rc><c>N </c><c>   2</c></rc>
    <rc><c>N </c><c>   2</c></rc>
    <rc><c>N </c><c>   2</c></rc>
    <rc><c>N </c><c>   2</c></rc>
    <rc><c>N </c><c>   2</c></rc>
    <rc><c>N </c><c>   2</c></rc>
    <rc><c>N </c><c>   2</c></rc>
    <rc><c>N </c><c>   2</c></rc>
    <rc><c>N </c><c>   2</c></rc>
    <rc><c>N </c><c>   2</c></rc>
    <rc><c>N </c><c>   2</c></rc>
    <rc><c>N </c><c>   2</c></rc>
    <rc><c>N </c><c>   2</c></rc>
    <rc><c>N </c><c>   2</c></rc>
    <rc><c>N </c><c>   2</c></rc>
    <rc><c>N </c><c>   2</c></rc>
    <rc><c>N </c><c>   2</c></rc>
    <rc><c>N </c><c>   2</c></rc>
    <rc><c>N </c><c>   2</c></rc>
    <rc><c>N </c><c>   2</c></rc>
    <rc><c>N </c><c>   2</c></rc>
    <rc><c>N </c><c>   2</c></rc>
    <rc><c>N </c><c>   2</c></rc>
    <rc><c>N </c><c>   2</c></rc>
    <rc><c>N </c><c>   2</c></rc>
    <rc><c>N </c><c>   2</c></rc>
    <rc><c>N </c><c>   2</c></rc>
    <rc><c>N </c><c>   2</c></rc>
    <rc><c>N </c><c>   2</c></rc>
    <rc><c>N </c><c>   2</c></rc>
    <rc><c>N </c><c>   2</c></rc>
    <rc><c>N </c><c>   2</c></rc>
    <rc><c>Au</c><c>   3</c></rc>
    <rc><c>Pd</c><c>   4</c></rc>
    <rc><c>Pd</c><c>   4</c></rc>
   </set>
  </array>
  <array name="atomtypes" >
   <dimension dim="1">type</dimension>
   <field type="int">atomspertype</field>
   <field type="string">element</field>
   <field>mass</field>
   <field>valence</field>
   <field type="string">pseudopotential</field>
   <set>
    <rc><c>  24</c><c>C </c><c>     12.01100000</c><c>      4.00000000</c><c>  PAW_PBE C 08Apr2002                   </c></rc>
    <rc><c>  32</c><c>N </c><c>     14.00100000</c><c>      5.00000000</c><c>  PAW_PBE N 08Apr2002                   </c></rc>
    <rc><c>   1</c><c>Au</c><c>    196.96600000</c><c>     11.00000000</c><c>  PAW_PBE Au 04Oct2007                  </c></rc>
    <rc><c>   2</c><c>Pd</c><c>    106.42000000</c><c>     10.00000000</c><c>  PAW_PBE Pd 04Jan2005                  </c></rc>
   </set>
  </array>
 </atominfo>
 <structure name="initialpos" >
  <crystal>
   <varray name="basis" >
    <v>      13.75970367       0.00000000       0.00000000 </v>
    <v>       0.00000000      11.28669971       0.00000000 </v>
    <v>       0.00000000       0.00000000      15.00000000 </v>
   </varray>
   <i name="volume">   2329.52465126 </i>
   <varray name="rec_basis" >
    <v>       0.07267598       0.00000000       0.00000000 </v>
    <v>       0.00000000       0.08859986       0.00000000 </v>
    <v>       0.00000000       0.00000000       0.06666667 </v>
   </varray>
  </crystal>
  <varray name="positions" >
   <v>       0.07054120       0.38816457       0.22227495 </v>
   <v>       0.98151180       0.21832942       0.16785344 </v>
   <v>       0.22877304       0.39667288       0.18904348 </v>
   <v>       0.82472337       0.57572318       0.18403191 </v>
   <v>       0.14970601       0.24663792       0.12277753 </v>
   <v>       0.90758628       0.38434512       0.21811946 </v>
   <v>       0.56886571       0.39316130       0.23173729 </v>
   <v>       0.47768100       0.22391730       0.18017943 </v>
   <v>       0.73035049       0.39802658       0.19909345 </v>
   <v>       0.31101118       0.58132963       0.17977696 </v>
   <v>       0.64681854       0.25040749       0.13377315 </v>
   <v>       0.40275100       0.39355427       0.22106508 </v>
   <v>       0.81808056       0.88988957       0.05647519 </v>
   <v>       0.73319531       0.72568325       0.12448457 </v>
   <v>       0.97932824       0.89597624       0.07999408 </v>
   <v>       0.06867909       0.07698375       0.09423854 </v>
   <v>       0.90528082       0.74258583       0.14719628 </v>
   <v>       0.65472406       0.89333727       0.07691603 </v>
   <v>       0.31825350       0.89473226       0.05377466 </v>
   <v>       0.22716619       0.72126926       0.10084126 </v>
   <v>       0.47498917       0.90396535       0.09489577 </v>
   <v>       0.56592959       0.08075138       0.11024766 </v>
   <v>       0.38612516       0.76037560       0.16363174 </v>
   <v>       0.15509033       0.88950396       0.05271529 </v>
   <v>       0.98784551       0.43883046       0.24713656 </v>
   <v>       0.89991795       0.26975381       0.19549767 </v>
   <v>       0.15759857       0.43325808       0.24240148 </v>
   <v>       0.14788829       0.14353661       0.08017307 </v>
   <v>       0.98633649       0.10796021       0.13653167 </v>
   <v>       0.22915942       0.31533454       0.12527490 </v>
   <v>       0.06735802       0.28598388       0.16888911 </v>
   <v>       0.82274912       0.45552252       0.21014877 </v>
   <v>       0.48493735       0.44793349       0.25146232 </v>
   <v>       0.39648714       0.27665554       0.20625030 </v>
   <v>       0.65756919       0.43524210       0.25419888 </v>
   <v>       0.64488604       0.14640144       0.09374788 </v>
   <v>       0.48286722       0.11321356       0.15081376 </v>
   <v>       0.72606390       0.31870920       0.13454719 </v>
   <v>       0.56470606       0.29135323       0.18008364 </v>
   <v>       0.31888640       0.46086995       0.20329135 </v>
   <v>       0.73287748       0.94248397       0.03965616 </v>
   <v>       0.64891188       0.78317499       0.11254597 </v>
   <v>       0.90382696       0.93469024       0.03189926 </v>
   <v>       0.90701680       0.63807548       0.18754912 </v>
   <v>       0.73647441       0.61699787       0.15934394 </v>
   <v>       0.98321706       0.81212363       0.14197152 </v>
   <v>       0.81925020       0.78400528       0.10639513 </v>
   <v>       0.56804185       0.96074410       0.08520074 </v>
   <v>       0.23699719       0.94478449       0.02657725 </v>
   <v>       0.14820250       0.77173059       0.06843984 </v>
   <v>       0.40793432       0.93556381       0.03646331 </v>
   <v>       0.38047481       0.65838217       0.20939239 </v>
   <v>       0.23501053       0.60894863       0.12850628 </v>
   <v>       0.46527775       0.83024755       0.16578047 </v>
   <v>       0.31113112       0.79334051       0.10891910 </v>
   <v>       0.06990262       0.95754122       0.06514651 </v>
   <v>       0.57736557       0.77647674       0.24193941 </v>
   <v>       0.65582252       0.60772566       0.29790490 </v>
   <v>       0.48700699       0.61617049       0.29396059 </v>
  </varray>
 </structure>
 <calculation>
  <scstep>
   <time name="dav">    1.68    1.69</time>
   <time name="total">    1.72    1.73</time>
   <dipole>
    <v name="dipole">      0.00000000       0.00000000       0.00003748 </v>
    <i name="Tr[quadrupol]">  -8054.43553033 </i>
    <i name="Echarged">      0.00000000 </i>
    <i name="Edipol_quadrupol">      0.00000000 </i>
    <i name="Eion">      0.00000000 </i>
   </dipole>
   <energy>
    <i name="alphaZ">    174.78509316 </i>
    <i name="ewald">  28662.12842187 </i>
    <i name="hartreedc"> -40712.17659923 </i>
    <i name="XCdc">    913.45737888 </i>
    <i name="pawpsdc">  11649.95065713 </i>
    <i name="pawaedc"> -11554.19593884 </i>
    <i name="eentropy">     -0.09812566 </i>
    <i name="bandstr">  -1159.98691831 </i>
    <i name="atom">  14539.82175409 </i>
    <i name="e_fr_energy">   2513.68572308 </i>
    <i name="e_wo_entrp">   2513.78384875 </i>
    <i name="e_0_energy">   2513.73478592 </i>
   </energy>
  </scstep>
  <scstep>
   <time name="dav">    1.90    1.91</time>
   <time name="total">    1.90    1.91</time>
   <dipole>
    <v name="dipole">      0.00000000       0.00000000       0.00003748 </v>
    <i name="Tr[quadrupol]">  -8054.43553033 </i>
    <i name="Echarged">      0.00000000 </i>
    <i name="Edipol_quadrupol">      0.00000000 </i>
    <i name="Eion">      0.00000000 </i>
   </dipole>
   <energy>
    <i name="e_fr_energy">    -55.36211918 </i>
    <i name="e_wo_entrp">    -55.31654227 </i>
    <i name="e_0_energy">    -55.33933072 </i>
   </energy>
  </scstep>
  <scstep>
   <time name="dav">    1.68    1.68</time>
   <time name="total">    1.68    1.68</time>
   <dipole>
    <v name="dipole">      0.00000000       0.00000000       0.00003748 </v>
    <i name="Tr[quadrupol]">  -8054.43553033 </i>
    <i name="Echarged">      0.00000000 </i>
    <i name="Edipol_quadrupol">      0.00000000 </i>
    <i name="Eion">      0.00000000 </i>
   </dipole>
   <energy>
    <i name="e_fr_energy">   -500.04997834 </i>
    <i name="e_wo_entrp">   -499.97582402 </i>
    <i name="e_0_energy">   -500.01290118 </i>
   </energy>
  </scstep>
  <scstep>
   <time name="dav">    1.62    1.63</time>
   <time name="total">    1.63    1.63</time>
   <dipole>
    <v name="dipole">      0.00000000       0.00000000       0.00003748 </v>
    <i name="Tr[quadrupol]">  -8054.43553033 </i>
    <i name="Echarged">      0.00000000 </i>
    <i name="Edipol_quadrupol">      0.00000000 </i>
    <i name="Eion">      0.00000000 </i>
   </dipole>
   <energy>
    <i name="e_fr_energy">   -514.22692633 </i>
    <i name="e_wo_entrp">   -514.12227183 </i>
    <i name="e_0_energy">   -514.17459908 </i>
   </energy>
  </scstep>
  <scstep>
   <time name="dav">    1.82    1.82</time>
   <time name="total">    1.87    1.87</time>
   <dipole>
    <v name="dipole">      0.00000000       0.00000000       0.00003748 </v>
    <i name="Tr[quadrupol]">  -8054.43553033 </i>
    <i name="Echarged">      0.00000000 </i>
    <i name="Edipol_quadrupol">      0.00000000 </i>
    <i name="Eion">      0.00000000 </i>
   </dipole>
   <energy>
    <i name="e_fr_energy">   -514.81415632 </i>
    <i name="e_wo_entrp">   -514.70630756 </i>
    <i name="e_0_energy">   -514.76023194 </i>
   </energy>
  </scstep>
  <scstep>
   <time name="dav">    1.58    1.58</time>
   <time name="total">    1.66    1.66</time>
   <dipole>
    <v name="dipole">      0.00000000       0.00000000      -0.46977310 </v>
    <i name="Tr[quadrupol]">  -8055.72037251 </i>
    <i name="Echarged">      0.00000000 </i>
    <i name="Edipol_quadrupol">      0.00000000 </i>
    <i name="Eion">      0.00000000 </i>
   </dipole>
   <energy>
    <i name="e_fr_energy">   -488.36718394 </i>
    <i name="e_wo_entrp">   -488.31094413 </i>
    <i name="e_0_energy">   -488.33906404 </i>
   </energy>
  </scstep>
  <scstep>
   <time name="dav">    1.59    1.60</time>
   <time name="total">    1.67    1.68</time>
   <dipole>
    <v name="dipole">      0.00000000       0.00000000      -0.13231724 </v>
    <i name="Tr[quadrupol]">  -8055.92682744 </i>
    <i name="Echarged">      0.00000000 </i>
    <i name="Edipol_quadrupol">      0.00000000 </i>
    <i name="Eion">      0.00000000 </i>
   </dipole>
   <energy>
    <i name="e_fr_energy">   -483.27887714 </i>
    <i name="e_wo_entrp">   -483.20733335 </i>
    <i name="e_0_energy">   -483.24310524 </i>
   </energy>
  </scstep>
  <scstep>
   <time name="dav">    1.60    1.60</time>
   <time name="total">    1.68    1.69</time>
   <dipole>
    <v name="dipole">      0.00000000       0.00000000      -0.25179015 </v>
    <i name="Tr[quadrupol]">  -8056.73995512 </i>
    <i name="Echarged">      0.00000000 </i>
    <i name="Edipol_quadrupol">      0.00000000 </i>
    <i name="Eion">      0.00000000 </i>
   </dipole>
   <energy>
    <i name="e_fr_energy">   -482.73046040 </i>
    <i name="e_wo_entrp">   -482.67445780 </i>
    <i name="e_0_energy">   -482.70245910 </i>
   </energy>
  </scstep>
  <scstep>
   <time name="dav">    1.59    1.59</time>
   <time name="total">    1.67    1.67</time>
   <dipole>
    <v name="dipole">      0.00000000       0.00000000      -0.06523919 </v>
    <i name="Tr[quadrupol]">  -8056.91765331 </i>
    <i name="Echarged">      0.00000000 </i>
    <i name="Edipol_quadrupol">      0.00000000 </i>
    <i name="Eion">      0.00000000 </i>
   </dipole>
   <energy>
    <i name="e_fr_energy">   -481.28916019 </i>
    <i name="e_wo_entrp">   -481.22973790 </i>
    <i name="e_0_energy">   -481.25944905 </i>
   </energy>
  </scstep>
  <scstep>
   <time name="dav">    1.60    1.60</time>
   <time name="total">    1.67    1.67</time>
   <dipole>
    <v name="dipole">      0.00000000       0.00000000      -0.03305444 </v>
    <i name="Tr[quadrupol]">  -8057.20546069 </i>
    <i name="Echarged">      0.00000000 </i>
    <i name="Edipol_quadrupol">      0.00000000 </i>
    <i name="Eion">      0.00000000 </i>
   </dipole>
   <energy>
    <i name="e_fr_energy">   -481.20557520 </i>
    <i name="e_wo_entrp">   -481.14547014 </i>
    <i name="e_0_energy">   -481.17552267 </i>
   </energy>
  </scstep>
  <scstep>
   <time name="dav">    1.55    1.55</time>
   <time name="total">    1.63    1.64</time>
   <dipole>
    <v name="dipole">      0.00000000       0.00000000      -0.00848620 </v>
    <i name="Tr[quadrupol]">  -8057.51602422 </i>
    <i name="Echarged">      0.00000000 </i>
    <i name="Edipol_quadrupol">      0.00000000 </i>
    <i name="Eion">      0.00000000 </i>
   </dipole>
   <energy>
    <i name="e_fr_energy">   -481.17325025 </i>
    <i name="e_wo_entrp">   -481.11180804 </i>
    <i name="e_0_energy">   -481.14252915 </i>
   </energy>
  </scstep>
  <scstep>
   <time name="dav">    1.55    1.55</time>
   <time name="total">    1.63    1.63</time>
   <dipole>
    <v name="dipole">      0.00000000       0.00000000       0.00932531 </v>
    <i name="Tr[quadrupol]">  -8057.71536303 </i>
    <i name="Echarged">      0.00000000 </i>
    <i name="Edipol_quadrupol">      0.00000000 </i>
    <i name="Eion">      0.00000000 </i>
   </dipole>
   <energy>
    <i name="e_fr_energy">   -481.15965199 </i>
    <i name="e_wo_entrp">   -481.09899627 </i>
    <i name="e_0_energy">   -481.12932413 </i>
   </energy>
  </scstep>
  <scstep>
   <time name="dav">    1.59    1.59</time>
   <time name="total">    1.66    1.67</time>
   <dipole>
    <v name="dipole">      0.00000000       0.00000000       0.02574562 </v>
    <i name="Tr[quadrupol]">  -8057.92845800 </i>
    <i name="Echarged">      0.00000000 </i>
    <i name="Edipol_quadrupol">      0.00000000 </i>
    <i name="Eion">      0.00000000 </i>
   </dipole>
   <energy>
    <i name="e_fr_energy">   -481.15947227 </i>
    <i name="e_wo_entrp">   -481.09795071 </i>
    <i name="e_0_energy">   -481.12871149 </i>
   </energy>
  </scstep>
  <scstep>
   <time name="dav">    1.54    1.54</time>
   <time name="total">    1.62    1.62</time>
   <dipole>
    <v name="dipole">      0.00000000       0.00000000       0.05203486 </v>
    <i name="Tr[quadrupol]">  -8058.19130923 </i>
    <i name="Echarged">      0.00000000 </i>
    <i name="Edipol_quadrupol">      0.00000000 </i>
    <i name="Eion">      0.00000000 </i>
   </dipole>
   <energy>
    <i name="e_fr_energy">   -481.16339306 </i>
    <i name="e_wo_entrp">   -481.10224522 </i>
    <i name="e_0_energy">   -481.13281914 </i>
   </energy>
  </scstep>
  <scstep>
   <time name="dav">    1.61    1.61</time>
   <time name="total">    1.69    1.69</time>
   <dipole>
    <v name="dipole">      0.00000000       0.00000000       0.06369654 </v>
    <i name="Tr[quadrupol]">  -8058.40432282 </i>
    <i name="Echarged">      0.00000000 </i>
    <i name="Edipol_quadrupol">      0.00000000 </i>
    <i name="Eion">      0.00000000 </i>
   </dipole>
   <energy>
    <i name="e_fr_energy">   -481.16774578 </i>
    <i name="e_wo_entrp">   -481.10674198 </i>
    <i name="e_0_energy">   -481.13724388 </i>
   </energy>
  </scstep>
  <scstep>
   <time name="dav">    1.59    1.59</time>
   <time name="total">    1.67    1.67</time>
   <dipole>
    <v name="dipole">      0.00000000       0.00000000       0.08942005 </v>
    <i name="Tr[quadrupol]">  -8058.75220430 </i>
    <i name="Echarged">      0.00000000 </i>
    <i name="Edipol_quadrupol">      0.00000000 </i>
    <i name="Eion">      0.00000000 </i>
   </dipole>
   <energy>
    <i name="e_fr_energy">   -481.17416524 </i>
    <i name="e_wo_entrp">   -481.11288115 </i>
    <i name="e_0_energy">   -481.14352320 </i>
   </energy>
  </scstep>
  <scstep>
   <time name="dav">    1.64    1.64</time>
   <time name="total">    1.72    1.72</time>
   <dipole>
    <v name="dipole">      0.00000000       0.00000000       0.10274790 </v>
    <i name="Tr[quadrupol]">  -8058.94881663 </i>
    <i name="Echarged">      0.00000000 </i>
    <i name="Edipol_quadrupol">      0.00000000 </i>
    <i name="Eion">      0.00000000 </i>
   </dipole>
   <energy>
    <i name="e_fr_energy">   -481.17801275 </i>
    <i name="e_wo_entrp">   -481.11685244 </i>
    <i name="e_0_energy">   -481.14743260 </i>
   </energy>
  </scstep>
  <scstep>
   <time name="dav">    1.55    1.55</time>
   <time name="total">    1.64    1.64</time>
   <dipole>
    <v name="dipole">      0.00000000       0.00000000       0.12218511 </v>
    <i name="Tr[quadrupol]">  -8059.25210372 </i>
    <i name="Echarged">      0.00000000 </i>
    <i name="Edipol_quadrupol">      0.00000000 </i>
    <i name="Eion">      0.00000000 </i>
   </dipole>
   <energy>
    <i name="e_fr_energy">   -481.18331432 </i>
    <i name="e_wo_entrp">   -481.12214240 </i>
    <i name="e_0_energy">   -481.15272836 </i>
   </energy>
  </scstep>
  <scstep>
   <time name="dav">    1.46    1.46</time>
   <time name="total">    1.53    1.54</time>
   <dipole>
    <v name="dipole">      0.00000000       0.00000000       0.12345593 </v>
    <i name="Tr[quadrupol]">  -8059.36779890 </i>
    <i name="Echarged">      0.00000000 </i>
    <i name="Edipol_quadrupol">      0.00000000 </i>
    <i name="Eion">      0.00000000 </i>
   </dipole>
   <energy>
    <i name="e_fr_energy">   -481.18528912 </i>
    <i name="e_wo_entrp">   -481.12413210 </i>
    <i name="e_0_energy">   -481.15471061 </i>
   </energy>
  </scstep>
  <scstep>
   <time name="dav">    1.53    1.57</time>
   <time name="total">    1.61    1.64</time>
   <dipole>
    <v name="dipole">      0.00000000       0.00000000       0.15016542 </v>
    <i name="Tr[quadrupol]">  -8059.65449742 </i>
    <i name="Echarged">      0.00000000 </i>
    <i name="Edipol_quadrupol">      0.00000000 </i>
    <i name="Eion">      0.00000000 </i>
   </dipole>
   <energy>
    <i name="e_fr_energy">   -481.18643415 </i>
    <i name="e_wo_entrp">   -481.12525932 </i>
    <i name="e_0_energy">   -481.15584673 </i>
   </energy>
  </scstep>
  <scstep>
   <time name="dav">    1.41    1.41</time>
   <time name="total">    1.49    1.49</time>
   <dipole>
    <v name="dipole">      0.00000000       0.00000000       0.15599411 </v>
    <i name="Tr[quadrupol]">  -8059.76069433 </i>
    <i name="Echarged">      0.00000000 </i>
    <i name="Edipol_quadrupol">      0.00000000 </i>
    <i name="Eion">      0.00000000 </i>
   </dipole>
   <energy>
    <i name="e_fr_energy">   -481.18667934 </i>
    <i name="e_wo_entrp">   -481.12551517 </i>
    <i name="e_0_energy">   -481.15609726 </i>
   </energy>
  </scstep>
  <scstep>
   <time name="dav">    1.15    1.15</time>
   <time name="total">    1.22    1.22</time>
   <dipole>
    <v name="dipole">      0.00000000       0.00000000       0.15442499 </v>
    <i name="Tr[quadrupol]">  -8059.80441216 </i>
    <i name="Echarged">      0.00000000 </i>
    <i name="Edipol_quadrupol">      0.00000000 </i>
    <i name="Eion">      0.00000000 </i>
   </dipole>
   <energy>
    <i name="e_fr_energy">   -481.18689996 </i>
    <i name="e_wo_entrp">   -481.12574146 </i>
    <i name="e_0_energy">   -481.15632071 </i>
   </energy>
  </scstep>
  <scstep>
   <time name="dav">    1.44    1.44</time>
   <time name="total">    1.52    1.52</time>
   <dipole>
    <v name="dipole">      0.00000000       0.00000000       0.14380290 </v>
    <i name="Tr[quadrupol]">  -8059.85418956 </i>
    <i name="Echarged">      0.00000000 </i>
    <i name="Edipol_quadrupol">      0.00000000 </i>
    <i name="Eion">      0.00000000 </i>
   </dipole>
   <energy>
    <i name="e_fr_energy">   -481.18745464 </i>
    <i name="e_wo_entrp">   -481.12631302 </i>
    <i name="e_0_energy">   -481.15688383 </i>
   </energy>
  </scstep>
  <scstep>
   <time name="dav">    1.24    1.24</time>
   <time name="total">    1.33    1.33</time>
   <dipole>
    <v name="dipole">      0.00000000       0.00000000       0.14242664 </v>
    <i name="Tr[quadrupol]">  -8059.86730214 </i>
    <i name="Echarged">      0.00000000 </i>
    <i name="Edipol_quadrupol">      0.00000000 </i>
    <i name="Eion">      0.00000000 </i>
   </dipole>
   <energy>
    <i name="e_fr_energy">   -481.18756875 </i>
    <i name="e_wo_entrp">   -481.12641694 </i>
    <i name="e_0_energy">   -481.15699284 </i>
   </energy>
  </scstep>
  <scstep>
   <time name="dav">    1.20    1.20</time>
   <time name="total">    1.27    1.28</time>
   <dipole>
    <v name="dipole">      0.00000000       0.00000000       0.13644469 </v>
    <i name="Tr[quadrupol]">  -8059.84121891 </i>
    <i name="Echarged">      0.00000000 </i>
    <i name="Edipol_quadrupol">      0.00000000 </i>
    <i name="Eion">      0.00000000 </i>
   </dipole>
   <energy>
    <i name="e_fr_energy">   -481.18775847 </i>
    <i name="e_wo_entrp">   -481.12659980 </i>
    <i name="e_0_energy">   -481.15717914 </i>
   </energy>
  </scstep>
  <scstep>
   <time name="dav">    1.11    1.12</time>
   <time name="total">    1.19    1.20</time>
   <dipole>
    <v name="dipole">      0.00000000       0.00000000       0.13432476 </v>
    <i name="Tr[quadrupol]">  -8059.82501991 </i>
    <i name="Echarged">      0.00000000 </i>
    <i name="Edipol_quadrupol">      0.00000000 </i>
    <i name="Eion">      0.00000000 </i>
   </dipole>
   <energy>
    <i name="e_fr_energy">   -481.18781060 </i>
    <i name="e_wo_entrp">   -481.12665210 </i>
    <i name="e_0_energy">   -481.15723135 </i>
   </energy>
  </scstep>
  <scstep>
   <time name="dav">    1.13    1.13</time>
   <time name="total">    1.21    1.21</time>
   <dipole>
    <v name="dipole">      0.00000000       0.00000000       0.13277861 </v>
    <i name="Tr[quadrupol]">  -8059.80831250 </i>
    <i name="Echarged">      0.00000000 </i>
    <i name="Edipol_quadrupol">      0.00000000 </i>
    <i name="Eion">      0.00000000 </i>
   </dipole>
   <energy>
    <i name="e_fr_energy">   -481.18785110 </i>
    <i name="e_wo_entrp">   -481.12669290 </i>
    <i name="e_0_energy">   -481.15727200 </i>
   </energy>
  </scstep>
  <scstep>
   <time name="dav">    1.12    1.12</time>
   <time name="total">    1.20    1.20</time>
   <dipole>
    <v name="dipole">      0.00000000       0.00000000       0.13153627 </v>
    <i name="Tr[quadrupol]">  -8059.79220439 </i>
    <i name="Echarged">      0.00000000 </i>
    <i name="Edipol_quadrupol">      0.00000000 </i>
    <i name="Eion">      0.00000000 </i>
   </dipole>
   <energy>
    <i name="e_fr_energy">   -481.18788987 </i>
    <i name="e_wo_entrp">   -481.12672768 </i>
    <i name="e_0_energy">   -481.15730878 </i>
   </energy>
  </scstep>
  <scstep>
   <time name="dav">    1.12    1.12</time>
   <time name="total">    1.20    1.20</time>
   <dipole>
    <v name="dipole">      0.00000000       0.00000000       0.13100782 </v>
    <i name="Tr[quadrupol]">  -8059.77203062 </i>
    <i name="Echarged">      0.00000000 </i>
    <i name="Edipol_quadrupol">      0.00000000 </i>
    <i name="Eion">      0.00000000 </i>
   </dipole>
   <energy>
    <i name="e_fr_energy">   -481.18790581 </i>
    <i name="e_wo_entrp">   -481.12674326 </i>
    <i name="e_0_energy">   -481.15732454 </i>
   </energy>
  </scstep>
  <scstep>
   <time name="dav">    1.08    1.08</time>
   <time name="total">    1.16    1.16</time>
   <dipole>
    <v name="dipole">      0.00000000       0.00000000       0.13077695 </v>
    <i name="Tr[quadrupol]">  -8059.75075880 </i>
    <i name="Echarged">      0.00000000 </i>
    <i name="Edipol_quadrupol">      0.00000000 </i>
    <i name="Eion">      0.00000000 </i>
   </dipole>
   <energy>
    <i name="e_fr_energy">   -481.18791607 </i>
    <i name="e_wo_entrp">   -481.12675255 </i>
    <i name="e_0_energy">   -481.15733431 </i>
   </energy>
  </scstep>
  <scstep>
   <time name="dav">    1.10    1.10</time>
   <time name="total">    1.13    1.13</time>
   <dipole>
    <v name="dipole">      0.00000000       0.00000000       0.13079596 </v>
    <i name="Tr[quadrupol]">  -8059.72782305 </i>
    <i name="Echarged">      0.00000000 </i>
    <i name="Edipol_quadrupol">      0.00000000 </i>
    <i name="Eion">      0.00000000 </i>
   </dipole>
   <energy>
    <i name="alphaZ">    175.04787891 </i>
    <i name="ewald">  28662.12842187 </i>
    <i name="hartreedc"> -41338.91542731 </i>
    <i name="XCdc">    944.28206027 </i>
    <i name="pawpsdc">  30722.79211540 </i>
    <i name="pawaedc"> -30648.53440937 </i>
    <i name="eentropy">     -0.06116398 </i>
    <i name="bandstr">  -3537.74914971 </i>
    <i name="atom">  14539.82175409 </i>
    <i name="e_fr_energy">   -481.18791983 </i>
    <i name="e_wo_entrp">   -481.12675585 </i>
    <i name="e_0_energy">   -481.15733784 </i>
   </energy>
  </scstep>
  <structure>
   <crystal>
    <varray name="basis" >
     <v>      13.75970367       0.00000000       0.00000000 </v>
     <v>       0.00000000      11.28669971       0.00000000 </v>
     <v>       0.00000000       0.00000000      15.00000000 </v>
    </varray>
    <i name="volume">   2329.52465126 </i>
    <varray name="rec_basis" >
     <v>       0.07267598       0.00000000       0.00000000 </v>
     <v>       0.00000000       0.08859986       0.00000000 </v>
     <v>       0.00000000       0.00000000       0.06666667 </v>
    </varray>
   </crystal>
   <varray name="positions" >
    <v>       0.07054120       0.38816457       0.22227495 </v>
    <v>       0.98151180       0.21832942       0.16785344 </v>
    <v>       0.22877304       0.39667288       0.18904348 </v>
    <v>       0.82472337       0.57572318       0.18403191 </v>
    <v>       0.14970601       0.24663792       0.12277753 </v>
    <v>       0.90758628       0.38434512       0.21811946 </v>
    <v>       0.56886571       0.39316130       0.23173729 </v>
    <v>       0.47768100       0.22391730       0.18017943 </v>
    <v>       0.73035049       0.39802658       0.19909345 </v>
    <v>       0.31101118       0.58132963       0.17977696 </v>
    <v>       0.64681854       0.25040749       0.13377315 </v>
    <v>       0.40275100       0.39355427       0.22106508 </v>
    <v>       0.81808056       0.88988957       0.05647519 </v>
    <v>       0.73319531       0.72568325       0.12448457 </v>
    <v>       0.97932824       0.89597624       0.07999408 </v>
    <v>       0.06867909       0.07698375       0.09423854 </v>
    <v>       0.90528082       0.74258583       0.14719628 </v>
    <v>       0.65472406       0.89333727       0.07691603 </v>
    <v>       0.31825350       0.89473226       0.05377466 </v>
    <v>       0.22716619       0.72126926       0.10084126 </v>
    <v>       0.47498917       0.90396535       0.09489577 </v>
    <v>       0.56592959       0.08075138       0.11024766 </v>
    <v>       0.38612516       0.76037560       0.16363174 </v>
    <v>       0.15509033       0.88950396       0.05271529 </v>
    <v>       0.98784551       0.43883046       0.24713656 </v>
    <v>       0.89991795       0.26975381       0.19549767 </v>
    <v>       0.15759857       0.43325808       0.24240148 </v>
    <v>       0.14788829       0.14353661       0.08017307 </v>
    <v>       0.98633649       0.10796021       0.13653167 </v>
    <v>       0.22915942       0.31533454       0.12527490 </v>
    <v>       0.06735802       0.28598388       0.16888911 </v>
    <v>       0.82274912       0.45552252       0.21014877 </v>
    <v>       0.48493735       0.44793349       0.25146232 </v>
    <v>       0.39648714       0.27665554       0.20625030 </v>
    <v>       0.65756919       0.43524210       0.25419888 </v>
    <v>       0.64488604       0.14640144       0.09374788 </v>
    <v>       0.48286722       0.11321356       0.15081376 </v>
    <v>       0.72606390       0.31870920       0.13454719 </v>
    <v>       0.56470606       0.29135323       0.18008364 </v>
    <v>       0.31888640       0.46086995       0.20329135 </v>
    <v>       0.73287748       0.94248397       0.03965616 </v>
    <v>       0.64891188       0.78317499       0.11254597 </v>
    <v>       0.90382696       0.93469024       0.03189926 </v>
    <v>       0.90701680       0.63807548       0.18754912 </v>
    <v>       0.73647441       0.61699787       0.15934394 </v>
    <v>       0.98321706       0.81212363       0.14197152 </v>
    <v>       0.81925020       0.78400528       0.10639513 </v>
    <v>       0.56804185       0.96074410       0.08520074 </v>
    <v>       0.23699719       0.94478449       0.02657725 </v>
    <v>       0.14820250       0.77173059       0.06843984 </v>
    <v>       0.40793432       0.93556381       0.03646331 </v>
    <v>       0.38047481       0.65838217       0.20939239 </v>
    <v>       0.23501053       0.60894863       0.12850628 </v>
    <v>       0.46527775       0.83024755       0.16578047 </v>
    <v>       0.31113112       0.79334051       0.10891910 </v>
    <v>       0.06990262       0.95754122       0.06514651 </v>
    <v>       0.57736557       0.77647674       0.24193941 </v>
    <v>       0.65582252       0.60772566       0.29790490 </v>
    <v>       0.48700699       0.61617049       0.29396059 </v>
   </varray>
  </structure>
  <varray name="forces" >
   <v>      -0.04199996      -0.04718731      -0.04352216 </v>
   <v>       0.03539697       0.10035605       0.03409164 </v>
   <v>      -0.06477191       0.01385071      -0.04233175 </v>
   <v>       0.44227267       0.01781523       0.36508465 </v>
   <v>      -0.04574851       0.05973560       0.06778808 </v>
   <v>      -0.03744840       0.05216260      -0.03570165 </v>
   <v>       0.01860787      -0.28770512      -0.15892306 </v>
   <v>       0.04110319       0.12591950       0.02510371 </v>
   <v>       0.19804626       0.08890608      -0.02510080 </v>
   <v>      -0.25208768      -0.10004658      -0.06725202 </v>
   <v>       0.08649472       0.31061628       0.08610290 </v>
   <v>      -0.29926655       0.00337547      -0.01882933 </v>
   <v>       0.21814299      -0.01682083       0.01439559 </v>
   <v>       0.55557499       0.12704289      -0.36085785 </v>
   <v>       0.08419497       0.01858612       0.06683558 </v>
   <v>      -0.03001996       0.04948514      -0.01578255 </v>
   <v>       0.07666491       0.11147529      -0.00334310 </v>
   <v>       0.14684210       0.41406039      -0.19312814 </v>
   <v>      -0.13147163       0.03293370       0.00351346 </v>
   <v>       0.01364682       0.04160633      -0.01657983 </v>
   <v>       0.18617752       0.29501465      -0.23260432 </v>
   <v>       0.12104267       0.33557124      -0.06491040 </v>
   <v>      -0.29869052      -0.05188868      -0.15863174 </v>
   <v>      -0.11768493      -0.02805439       0.02057929 </v>
   <v>       0.04052324      -0.01631055      -0.02128189 </v>
   <v>      -0.02450118       0.00622367       0.02043294 </v>
   <v>       0.10212018      -0.00167938      -0.01001387 </v>
   <v>      -0.02867702      -0.04031021      -0.00669336 </v>
   <v>       0.07802764      -0.03479960      -0.04385377 </v>
   <v>       0.03932522      -0.01107160      -0.03507854 </v>
   <v>       0.02020137       0.00074144       0.02705737 </v>
   <v>      -0.03167164      -0.18146413      -0.05608081 </v>
   <v>      -0.22636378      -0.76811742      -0.09680512 </v>
   <v>       0.12363848      -0.00633021      -0.04114654 </v>
   <v>       0.03039984      -0.63690180       0.01491166 </v>
   <v>      -0.18988496      -0.31589038      -0.05729657 </v>
   <v>       0.05310241      -0.14557081      -0.02539662 </v>
   <v>      -0.19159863      -0.22474114      -0.07426182 </v>
   <v>      -0.10639974      -0.07999497      -0.02023853 </v>
   <v>       0.05657017      -0.05870305       0.01198638 </v>
   <v>      -0.16939648      -0.03913329       0.05160767 </v>
   <v>       0.60890318       0.11413535      -1.31585985 </v>
   <v>      -0.13981272      -0.02003055       0.01231517 </v>
   <v>      -0.14198062      -0.14029160       0.02036643 </v>
   <v>      -0.23261324      -0.13553440      -0.14269932 </v>
   <v>      -0.02496839      -0.06522919      -0.08654421 </v>
   <v>      -0.25855464      -0.10413661       0.19862907 </v>
   <v>      -0.03308452      -0.25232773      -0.08855539 </v>
   <v>       0.16011432       0.00132719       0.03307991 </v>
   <v>      -0.02509951       0.03067419      -0.04039535 </v>
   <v>       0.07805443      -0.07668416       0.07607001 </v>
   <v>      -1.16805898       0.13937189      -0.55770214 </v>
   <v>       0.08329721       0.03498583       0.02640403 </v>
   <v>      -1.58684968       0.82353919      -1.13158279 </v>
   <v>       0.01017282      -0.00518470       0.00357711 </v>
   <v>      -0.03955984      -0.05861709      -0.01964706 </v>
   <v>       0.79312887       3.72892227       1.10254764 </v>
   <v>       3.69301375      -1.46270938       1.41914166 </v>
   <v>      -2.25653619      -1.66496746       1.60701034 </v>
  </varray>
  <varray name="stress" >
   <v>       4.82821416       3.88371567       1.55688985 </v>
   <v>       3.88371568       2.29161043      -3.02789507 </v>
   <v>       1.55688984      -3.02789507      -7.69247696 </v>
  </varray>
  <energy>
   <i name="e_fr_energy">   -481.18791983 </i>
   <i name="e_wo_entrp">   -481.12675585 </i>
   <i name="e_0_energy">   -481.15733784 </i>
  </energy>
  <time name="totalsc">   48.72   48.87</time>
 </calculation>
 <calculation>
  <scstep>
   <time name="dav">    1.44    1.44</time>
   <time name="total">    1.51    1.51</time>
   <dipole>
    <v name="dipole">      0.00000000       0.00000000       0.13090260 </v>
    <i name="Tr[quadrupol]">  -8064.89099449 </i>
    <i name="Echarged">      0.00000000 </i>
    <i name="Edipol_quadrupol">      0.00000000 </i>
    <i name="Eion">      0.00000000 </i>
   </dipole>
   <energy>
    <i name="alphaZ">    174.74991438 </i>
    <i name="ewald">  28534.83909815 </i>
    <i name="hartreedc"> -41208.91601276 </i>
    <i name="XCdc">    943.55587199 </i>
    <i name="pawpsdc">  30722.81801176 </i>
    <i name="pawaedc"> -30648.56031045 </i>
    <i name="eentropy">     -0.06025645 </i>
    <i name="bandstr">  -3539.86001908 </i>
    <i name="atom">  14539.82175409 </i>
    <i name="e_fr_energy">   -481.61194836 </i>
    <i name="e_wo_entrp">   -481.55169191 </i>
    <i name="e_0_energy">   -481.58182014 </i>
   </energy>
  </scstep>
  <scstep>
   <time name="dav">    1.54    1.55</time>
   <time name="total">    1.63    1.64</time>
   <dipole>
    <v name="dipole">      0.00000000       0.00000000       0.14291185 </v>
    <i name="Tr[quadrupol]">  -8064.92129696 </i>
    <i name="Echarged">      0.00000000 </i>
    <i name="Edipol_quadrupol">      0.00000000 </i>
    <i name="Eion">      0.00000000 </i>
   </dipole>
   <energy>
    <i name="e_fr_energy">   -481.63931271 </i>
    <i name="e_wo_entrp">   -481.57970246 </i>
    <i name="e_0_energy">   -481.60950759 </i>
   </energy>
  </scstep>
  <scstep>
   <time name="dav">    1.55    1.55</time>
   <time name="total">    1.62    1.62</time>
   <dipole>
    <v name="dipole">      0.00000000       0.00000000       0.13116880 </v>
    <i name="Tr[quadrupol]">  -8064.95625531 </i>
    <i name="Echarged">      0.00000000 </i>
    <i name="Edipol_quadrupol">      0.00000000 </i>
    <i name="Eion">      0.00000000 </i>
   </dipole>
   <energy>
    <i name="e_fr_energy">   -481.63380518 </i>
    <i name="e_wo_entrp">   -481.57364441 </i>
    <i name="e_0_energy">   -481.60372479 </i>
   </energy>
  </scstep>
  <scstep>
   <time name="dav">    1.55    1.55</time>
   <time name="total">    1.62    1.63</time>
   <dipole>
    <v name="dipole">      0.00000000       0.00000000       0.13530884 </v>
    <i name="Tr[quadrupol]">  -8064.98443156 </i>
    <i name="Echarged">      0.00000000 </i>
    <i name="Edipol_quadrupol">      0.00000000 </i>
    <i name="Eion">      0.00000000 </i>
   </dipole>
   <energy>
    <i name="e_fr_energy">   -481.63891355 </i>
    <i name="e_wo_entrp">   -481.57877185 </i>
    <i name="e_0_energy">   -481.60884270 </i>
   </energy>
  </scstep>
  <scstep>
   <time name="dav">    1.52    1.52</time>
   <time name="total">    1.60    1.60</time>
   <dipole>
    <v name="dipole">      0.00000000       0.00000000       0.12749186 </v>
    <i name="Tr[quadrupol]">  -8064.99509667 </i>
    <i name="Echarged">      0.00000000 </i>
    <i name="Edipol_quadrupol">      0.00000000 </i>
    <i name="Eion">      0.00000000 </i>
   </dipole>
   <energy>
    <i name="e_fr_energy">   -481.63195734 </i>
    <i name="e_wo_entrp">   -481.57126761 </i>
    <i name="e_0_energy">   -481.60161248 </i>
   </energy>
  </scstep>
  <scstep>
   <time name="dav">    1.54    1.54</time>
   <time name="total">    1.61    1.62</time>
   <dipole>
    <v name="dipole">      0.00000000       0.00000000       0.12760372 </v>
    <i name="Tr[quadrupol]">  -8064.96937445 </i>
    <i name="Echarged">      0.00000000 </i>
    <i name="Edipol_quadrupol">      0.00000000 </i>
    <i name="Eion">      0.00000000 </i>
   </dipole>
   <energy>
    <i name="e_fr_energy">   -481.63117358 </i>
    <i name="e_wo_entrp">   -481.57091349 </i>
    <i name="e_0_energy">   -481.60104354 </i>
   </energy>
  </scstep>
  <scstep>
   <time name="dav">    1.53    1.53</time>
   <time name="total">    1.61    1.61</time>
   <dipole>
    <v name="dipole">      0.00000000       0.00000000       0.12875232 </v>
    <i name="Tr[quadrupol]">  -8064.96822288 </i>
    <i name="Echarged">      0.00000000 </i>
    <i name="Edipol_quadrupol">      0.00000000 </i>
    <i name="Eion">      0.00000000 </i>
   </dipole>
   <energy>
    <i name="e_fr_energy">   -481.63099242 </i>
    <i name="e_wo_entrp">   -481.57058960 </i>
    <i name="e_0_energy">   -481.60079101 </i>
   </energy>
  </scstep>
  <scstep>
   <time name="dav">    1.52    1.53</time>
   <time name="total">    1.60    1.61</time>
   <dipole>
    <v name="dipole">      0.00000000       0.00000000       0.12828217 </v>
    <i name="Tr[quadrupol]">  -8064.94359478 </i>
    <i name="Echarged">      0.00000000 </i>
    <i name="Edipol_quadrupol">      0.00000000 </i>
    <i name="Eion">      0.00000000 </i>
   </dipole>
   <energy>
    <i name="e_fr_energy">   -481.63091742 </i>
    <i name="e_wo_entrp">   -481.57056501 </i>
    <i name="e_0_energy">   -481.60074121 </i>
   </energy>
  </scstep>
  <scstep>
   <time name="dav">    1.38    1.38</time>
   <time name="total">    1.45    1.46</time>
   <dipole>
    <v name="dipole">      0.00000000       0.00000000       0.12762465 </v>
    <i name="Tr[quadrupol]">  -8064.94495092 </i>
    <i name="Echarged">      0.00000000 </i>
    <i name="Edipol_quadrupol">      0.00000000 </i>
    <i name="Eion">      0.00000000 </i>
   </dipole>
   <energy>
    <i name="e_fr_energy">   -481.63092792 </i>
    <i name="e_wo_entrp">   -481.57058738 </i>
    <i name="e_0_energy">   -481.60075765 </i>
   </energy>
  </scstep>
  <scstep>
   <time name="dav">    1.09    1.09</time>
   <time name="total">    1.13    1.13</time>
   <dipole>
    <v name="dipole">      0.00000000       0.00000000       0.12728976 </v>
    <i name="Tr[quadrupol]">  -8064.94624922 </i>
    <i name="Echarged">      0.00000000 </i>
    <i name="Edipol_quadrupol">      0.00000000 </i>
    <i name="Eion">      0.00000000 </i>
   </dipole>
   <energy>
    <i name="alphaZ">    175.01869884 </i>
    <i name="ewald">  28534.83909815 </i>
    <i name="hartreedc"> -41215.41943316 </i>
    <i name="XCdc">    943.81266295 </i>
    <i name="pawpsdc">  30610.65477260 </i>
    <i name="pawaedc"> -30535.47238535 </i>
    <i name="eentropy">     -0.06035099 </i>
    <i name="bandstr">  -3534.82575411 </i>
    <i name="atom">  14539.82175409 </i>
    <i name="e_fr_energy">   -481.63093697 </i>
    <i name="e_wo_entrp">   -481.57058598 </i>
    <i name="e_0_energy">   -481.60076147 </i>
   </energy>
  </scstep>
  <structure>
   <crystal>
    <varray name="basis" >
     <v>      13.77550019       0.00000000       0.00000000 </v>
     <v>       0.00000000      11.29284969       0.00000000 </v>
     <v>       0.00000000       0.00000000      15.00000000 </v>
    </varray>
    <i name="volume">   2333.46979614 </i>
    <varray name="rec_basis" >
     <v>       0.07259265       0.00000000       0.00000000 </v>
     <v>       0.00000000       0.08855161       0.00000000 </v>
     <v>       0.00000000       0.00000000       0.06666667 </v>
    </varray>
   </crystal>
   <varray name="positions" >
    <v>       0.07051175       0.38812424       0.22224695 </v>
    <v>       0.98153662       0.21841521       0.16787537 </v>
    <v>       0.22872762       0.39668472       0.18901625 </v>
    <v>       0.82503350       0.57573841       0.18426675 </v>
    <v>       0.14967393       0.24668898       0.12282113 </v>
    <v>       0.90756002       0.38438971       0.21809649 </v>
    <v>       0.56887876       0.39291535       0.23163507 </v>
    <v>       0.47770982       0.22402494       0.18019558 </v>
    <v>       0.73048936       0.39810258       0.19907731 </v>
    <v>       0.31083441       0.58124410       0.17973370 </v>
    <v>       0.64687920       0.25067302       0.13382853 </v>
    <v>       0.40254115       0.39355715       0.22105296 </v>
    <v>       0.81823353       0.88987519       0.05648445 </v>
    <v>       0.73358489       0.72579185       0.12425245 </v>
    <v>       0.97938728       0.89599213       0.08003707 </v>
    <v>       0.06865804       0.07702606       0.09422839 </v>
    <v>       0.90533458       0.74268112       0.14719413 </v>
    <v>       0.65482702       0.89369124       0.07679181 </v>
    <v>       0.31816131       0.89476042       0.05377692 </v>
    <v>       0.22717575       0.72130483       0.10083060 </v>
    <v>       0.47511972       0.90421755       0.09474615 </v>
    <v>       0.56601447       0.08103824       0.11020591 </v>
    <v>       0.38591571       0.76033124       0.16352970 </v>
    <v>       0.15500781       0.88947998       0.05272852 </v>
    <v>       0.98787393       0.43881652       0.24712287 </v>
    <v>       0.89990077       0.26975913       0.19551082 </v>
    <v>       0.15767018       0.43325664       0.24239504 </v>
    <v>       0.14786818       0.14350215       0.08016877 </v>
    <v>       0.98639120       0.10793047       0.13650346 </v>
    <v>       0.22918700       0.31532508       0.12525234 </v>
    <v>       0.06737218       0.28598452       0.16890652 </v>
    <v>       0.82272692       0.45536739       0.21011270 </v>
    <v>       0.48477862       0.44727686       0.25140005 </v>
    <v>       0.39657384       0.27665013       0.20622383 </v>
    <v>       0.65759050       0.43469764       0.25420847 </v>
    <v>       0.64475289       0.14613140       0.09371103 </v>
    <v>       0.48290445       0.11308912       0.15079742 </v>
    <v>       0.72592955       0.31851707       0.13449942 </v>
    <v>       0.56463145       0.29128484       0.18007062 </v>
    <v>       0.31892607       0.46081977       0.20329906 </v>
    <v>       0.73275870       0.94245051       0.03968936 </v>
    <v>       0.64933885       0.78327256       0.11169956 </v>
    <v>       0.90372892       0.93467312       0.03190718 </v>
    <v>       0.90691724       0.63795555       0.18756222 </v>
    <v>       0.73631130       0.61688200       0.15925215 </v>
    <v>       0.98319956       0.81206787       0.14191585 </v>
    <v>       0.81906890       0.78391625       0.10652289 </v>
    <v>       0.56801865       0.96052840       0.08514377 </v>
    <v>       0.23710947       0.94478563       0.02659853 </v>
    <v>       0.14818490       0.77175682       0.06841386 </v>
    <v>       0.40798905       0.93549826       0.03651224 </v>
    <v>       0.37965575       0.65850132       0.20903366 </v>
    <v>       0.23506894       0.60897854       0.12852327 </v>
    <v>       0.46416503       0.83095156       0.16505260 </v>
    <v>       0.31113826       0.79333608       0.10892140 </v>
    <v>       0.06987488       0.95749111       0.06513387 </v>
    <v>       0.57792173       0.77966444       0.24264861 </v>
    <v>       0.65841212       0.60647525       0.29881774 </v>
    <v>       0.48542467       0.61474718       0.29499427 </v>
   </varray>
  </structure>
  <varray name="forces" >
   <v>       0.01575525       0.00550515      -0.02254005 </v>
   <v>       0.01648995       0.04279285       0.01156577 </v>
   <v>      -0.02884906       0.00856970      -0.03899419 </v>
   <v>       0.05445701       0.04935802       0.24037892 </v>
   <v>      -0.00195266       0.01815815       0.02468970 </v>
   <v>      -0.00706927       0.01461704      -0.03026252 </v>
   <v>      -0.06434266      -0.23593142      -0.11861942 </v>
   <v>       0.03212038      -0.00917436      -0.02929886 </v>
   <v>       0.09846322      -0.02884382      -0.09323978 </v>
   <v>      -0.29733485      -0.08851890      -0.11951099 </v>
   <v>      -0.04230154       0.00892078      -0.03944896 </v>
   <v>      -0.15319315      -0.09663436      -0.03002001 </v>
   <v>      -0.02106852       0.00771317       0.02542265 </v>
   <v>       0.26738558       0.04723574      -0.30617292 </v>
   <v>       0.01527301       0.03448419       0.00188288 </v>
   <v>      -0.00014533       0.04859906      -0.01967084 </v>
   <v>       0.00099023       0.02301457       0.03489973 </v>
   <v>       0.12520607       0.20241194      -0.17135739 </v>
   <v>       0.04214959       0.01565358       0.04284290 </v>
   <v>       0.01590757       0.05929867      -0.01837089 </v>
   <v>      -0.03416317       0.28098586      -0.36224851 </v>
   <v>       0.01508829       0.12038877      -0.06590596 </v>
   <v>      -0.40801224       0.03913061      -0.29596245 </v>
   <v>      -0.01377811       0.00868250       0.00219788 </v>
   <v>       0.02326949      -0.04239658      -0.05324366 </v>
   <v>       0.05033048       0.00989082       0.00227405 </v>
   <v>      -0.00023684      -0.03467328      -0.03295342 </v>
   <v>      -0.06215739       0.00248755       0.03316314 </v>
   <v>       0.07738489       0.04900150      -0.01658281 </v>
   <v>      -0.03690387      -0.04050096      -0.01779215 </v>
   <v>       0.00210285       0.00255655       0.03272953 </v>
   <v>       0.05924251      -0.14422350      -0.02929523 </v>
   <v>      -0.13428907      -0.58971149      -0.08793814 </v>
   <v>       0.07119611      -0.03531294      -0.04172303 </v>
   <v>       0.06966972      -0.50779651       0.05211554 </v>
   <v>      -0.08885004      -0.01913859       0.02617119 </v>
   <v>       0.06254870       0.00587178       0.02017672 </v>
   <v>      -0.09831617      -0.10905971      -0.01447830 </v>
   <v>      -0.03410389      -0.09935536      -0.07886737 </v>
   <v>      -0.07051982      -0.04281820      -0.03012496 </v>
   <v>       0.10514538       0.05256677       0.00175396 </v>
   <v>       0.44317240      -0.03111401      -1.09723381 </v>
   <v>      -0.02885762      -0.03833787       0.06874847 </v>
   <v>      -0.02352431      -0.00827588      -0.00312581 </v>
   <v>      -0.00918611      -0.13035855      -0.06866988 </v>
   <v>      -0.04498837      -0.07697011      -0.09464294 </v>
   <v>       0.04792497       0.02229075       0.16724531 </v>
   <v>       0.00968186      -0.01988647      -0.08148108 </v>
   <v>      -0.00021254      -0.01673259       0.05435895 </v>
   <v>       0.02051253       0.02032328      -0.01513810 </v>
   <v>      -0.05196929      -0.01949538      -0.08234106 </v>
   <v>      -0.72740373       0.08147855      -0.30891695 </v>
   <v>      -0.03124743       0.03482281      -0.04014587 </v>
   <v>      -0.96990091       0.48856128      -0.51489451 </v>
   <v>      -0.18535901      -0.00776511      -0.12348434 </v>
   <v>      -0.02657039      -0.03855735      -0.01461589 </v>
   <v>       0.56551718       2.33347359       1.51441864 </v>
   <v>       2.36798844      -0.74519865       0.99922819 </v>
   <v>      -0.97816631      -0.88206364       1.25304890 </v>
  </varray>
  <varray name="stress" >
   <v>       0.96134911       4.27208989       1.69160124 </v>
   <v>       4.27208988      -0.79829318      -2.16195120 </v>
   <v>       1.69160123      -2.16195119      -8.25425078 </v>
  </varray>
  <energy>
   <i name="e_fr_energy">   -481.63093697 </i>
   <i name="e_wo_entrp">   -481.57058598 </i>
   <i name="e_0_energy">   -481.60076147 </i>
  </energy>
  <time name="totalsc">   16.66   16.69</time>
 </calculation>
 <calculation>
  <scstep>
   <time name="dav">    1.46    1.46</time>
   <time name="total">    1.54    1.54</time>
   <dipole>
    <v name="dipole">      0.00000000       0.00000000       0.12694270 </v>
    <i name="Tr[quadrupol]">  -8076.98897775 </i>
    <i name="Echarged">      0.00000000 </i>
    <i name="Edipol_quadrupol">      0.00000000 </i>
    <i name="Eion">      0.00000000 </i>
   </dipole>
   <energy>
    <i name="alphaZ">    174.33696990 </i>
    <i name="ewald">  28253.52825390 </i>
    <i name="hartreedc"> -40926.18845273 </i>
    <i name="XCdc">    942.22623161 </i>
    <i name="pawpsdc">  30610.62575656 </i>
    <i name="pawaedc"> -30535.44286146 </i>
    <i name="eentropy">     -0.05845269 </i>
    <i name="bandstr">  -3540.74043662 </i>
    <i name="atom">  14539.82175409 </i>
    <i name="e_fr_energy">   -481.89123745 </i>
    <i name="e_wo_entrp">   -481.83278476 </i>
    <i name="e_0_energy">   -481.86201110 </i>
   </energy>
  </scstep>
  <scstep>
   <time name="dav">    1.56    1.56</time>
   <time name="total">    1.64    1.65</time>
   <dipole>
    <v name="dipole">      0.00000000       0.00000000       0.18636779 </v>
    <i name="Tr[quadrupol]">  -8077.07938945 </i>
    <i name="Echarged">      0.00000000 </i>
    <i name="Edipol_quadrupol">      0.00000000 </i>
    <i name="Eion">      0.00000000 </i>
   </dipole>
   <energy>
    <i name="e_fr_energy">   -482.21136280 </i>
    <i name="e_wo_entrp">   -482.14391431 </i>
    <i name="e_0_energy">   -482.17763856 </i>
   </energy>
  </scstep>
  <scstep>
   <time name="dav">    1.55    1.55</time>
   <time name="total">    1.63    1.63</time>
   <dipole>
    <v name="dipole">      0.00000000       0.00000000       0.12730673 </v>
    <i name="Tr[quadrupol]">  -8077.10603071 </i>
    <i name="Echarged">      0.00000000 </i>
    <i name="Edipol_quadrupol">      0.00000000 </i>
    <i name="Eion">      0.00000000 </i>
   </dipole>
   <energy>
    <i name="e_fr_energy">   -481.99394281 </i>
    <i name="e_wo_entrp">   -481.93435115 </i>
    <i name="e_0_energy">   -481.96414698 </i>
   </energy>
  </scstep>
  <scstep>
   <time name="dav">    1.57    1.58</time>
   <time name="total">    1.65    1.66</time>
   <dipole>
    <v name="dipole">      0.00000000       0.00000000       0.13650706 </v>
    <i name="Tr[quadrupol]">  -8077.10223885 </i>
    <i name="Echarged">      0.00000000 </i>
    <i name="Edipol_quadrupol">      0.00000000 </i>
    <i name="Eion">      0.00000000 </i>
   </dipole>
   <energy>
    <i name="e_fr_energy">   -481.99781754 </i>
    <i name="e_wo_entrp">   -481.93798650 </i>
    <i name="e_0_energy">   -481.96790202 </i>
   </energy>
  </scstep>
  <scstep>
   <time name="dav">    1.55    1.56</time>
   <time name="total">    1.63    1.63</time>
   <dipole>
    <v name="dipole">      0.00000000       0.00000000       0.12835254 </v>
    <i name="Tr[quadrupol]">  -8077.11912608 </i>
    <i name="Echarged">      0.00000000 </i>
    <i name="Edipol_quadrupol">      0.00000000 </i>
    <i name="Eion">      0.00000000 </i>
   </dipole>
   <energy>
    <i name="e_fr_energy">   -482.00094533 </i>
    <i name="e_wo_entrp">   -481.93809052 </i>
    <i name="e_0_energy">   -481.96951793 </i>
   </energy>
  </scstep>
  <scstep>
   <time name="dav">    1.58    1.58</time>
   <time name="total">    1.66    1.67</time>
   <dipole>
    <v name="dipole">      0.00000000       0.00000000       0.12294431 </v>
    <i name="Tr[quadrupol]">  -8077.12229019 </i>
    <i name="Echarged">      0.00000000 </i>
    <i name="Edipol_quadrupol">      0.00000000 </i>
    <i name="Eion">      0.00000000 </i>
   </dipole>
   <energy>
    <i name="e_fr_energy">   -481.97822872 </i>
    <i name="e_wo_entrp">   -481.91748120 </i>
    <i name="e_0_energy">   -481.94785496 </i>
   </energy>
  </scstep>
  <scstep>
   <time name="dav">    1.54    1.54</time>
   <time name="total">    1.62    1.62</time>
   <dipole>
    <v name="dipole">      0.00000000       0.00000000       0.12078005 </v>
    <i name="Tr[quadrupol]">  -8077.14880357 </i>
    <i name="Echarged">      0.00000000 </i>
    <i name="Edipol_quadrupol">      0.00000000 </i>
    <i name="Eion">      0.00000000 </i>
   </dipole>
   <energy>
    <i name="e_fr_energy">   -481.97424034 </i>
    <i name="e_wo_entrp">   -481.91279389 </i>
    <i name="e_0_energy">   -481.94351712 </i>
   </energy>
  </scstep>
  <scstep>
   <time name="dav">    1.57    1.57</time>
   <time name="total">    1.65    1.65</time>
   <dipole>
    <v name="dipole">      0.00000000       0.00000000       0.11976359 </v>
    <i name="Tr[quadrupol]">  -8077.17440031 </i>
    <i name="Echarged">      0.00000000 </i>
    <i name="Edipol_quadrupol">      0.00000000 </i>
    <i name="Eion">      0.00000000 </i>
   </dipole>
   <energy>
    <i name="e_fr_energy">   -481.97339640 </i>
    <i name="e_wo_entrp">   -481.91196451 </i>
    <i name="e_0_energy">   -481.94268046 </i>
   </energy>
  </scstep>
  <scstep>
   <time name="dav">    1.52    1.53</time>
   <time name="total">    1.61    1.61</time>
   <dipole>
    <v name="dipole">      0.00000000       0.00000000       0.11756867 </v>
    <i name="Tr[quadrupol]">  -8077.17620599 </i>
    <i name="Echarged">      0.00000000 </i>
    <i name="Edipol_quadrupol">      0.00000000 </i>
    <i name="Eion">      0.00000000 </i>
   </dipole>
   <energy>
    <i name="e_fr_energy">   -481.97331543 </i>
    <i name="e_wo_entrp">   -481.91207865 </i>
    <i name="e_0_energy">   -481.94269704 </i>
   </energy>
  </scstep>
  <scstep>
   <time name="dav">    1.59    1.59</time>
   <time name="total">    1.66    1.67</time>
   <dipole>
    <v name="dipole">      0.00000000       0.00000000       0.11585019 </v>
    <i name="Tr[quadrupol]">  -8077.17985988 </i>
    <i name="Echarged">      0.00000000 </i>
    <i name="Edipol_quadrupol">      0.00000000 </i>
    <i name="Eion">      0.00000000 </i>
   </dipole>
   <energy>
    <i name="e_fr_energy">   -481.97334927 </i>
    <i name="e_wo_entrp">   -481.91205722 </i>
    <i name="e_0_energy">   -481.94270324 </i>
   </energy>
  </scstep>
  <scstep>
   <time name="dav">    1.19    1.19</time>
   <time name="total">    1.27    1.27</time>
   <dipole>
    <v name="dipole">      0.00000000       0.00000000       0.11410975 </v>
    <i name="Tr[quadrupol]">  -8077.16212909 </i>
    <i name="Echarged">      0.00000000 </i>
    <i name="Edipol_quadrupol">      0.00000000 </i>
    <i name="Eion">      0.00000000 </i>
   </dipole>
   <energy>
    <i name="e_fr_energy">   -481.97339433 </i>
    <i name="e_wo_entrp">   -481.91211563 </i>
    <i name="e_0_energy">   -481.94275498 </i>
   </energy>
  </scstep>
  <scstep>
   <time name="dav">    1.13    1.13</time>
   <time name="total">    1.20    1.20</time>
   <dipole>
    <v name="dipole">      0.00000000       0.00000000       0.11243625 </v>
    <i name="Tr[quadrupol]">  -8077.14562228 </i>
    <i name="Echarged">      0.00000000 </i>
    <i name="Edipol_quadrupol">      0.00000000 </i>
    <i name="Eion">      0.00000000 </i>
   </dipole>
   <energy>
    <i name="e_fr_energy">   -481.97344236 </i>
[...]
       <r>    1.8206    0.0000 </r>
       <r>    1.9093    0.0000 </r>
       <r>    2.0086    0.0000 </r>
       <r>    2.0254    0.0000 </r>
       <r>    2.4672    0.0000 </r>
       <r>    2.4751    0.0000 </r>
       <r>    2.5923    0.0000 </r>
       <r>    2.6798    0.0000 </r>
       <r>    2.8131    0.0000 </r>
      </set>
     </set>
    </set>
   </array>
  </eigenvalues>
  <separator name="orbital magnetization" >
   <v name="MAGDIPOLOUT">      0.00000000      0.00000000      0.00000000</v>
  </separator>
  <dos>
   <i name="efermi">     -2.08473588 </i>
   <total>
    <array>
     <dimension dim="1">gridpoints</dimension>
     <dimension dim="2">spin</dimension>
     <field>energy</field>
     <field>total</field>
     <field>integrated</field>
     <set>
      <set comment="spin 1">
       <r>   -27.8132     0.0000     0.0000 </r>
       <r>   -27.7061     0.0000     0.0000 </r>
       <r>   -27.5990     0.0000     0.0000 </r>
       <r>   -27.4919     0.0000     0.0000 </r>
       <r>   -27.3848     0.0000     0.0000 </r>
       <r>   -27.2777     0.0000     0.0000 </r>
       <r>   -27.1706     0.0000     0.0000 </r>
       <r>   -27.0635     0.0000     0.0000 </r>
       <r>   -26.9563     0.0000     0.0000 </r>
       <r>   -26.8492     0.0000     0.0000 </r>
       <r>   -26.7421     0.0000     0.0000 </r>
       <r>   -26.6350     0.0002     0.0000 </r>
       <r>   -26.5279     0.0488     0.0052 </r>
       <r>   -26.4208     1.6532     0.1823 </r>
       <r>   -26.3137    10.0338     1.2571 </r>
       <r>   -26.2065    17.6258     3.1451 </r>
       <r>   -26.0994    20.2938     5.3188 </r>
       <r>   -25.9923    18.8925     7.3425 </r>
       <r>   -25.8852     5.7620     7.9597 </r>
       <r>   -25.7781     0.3727     7.9996 </r>
       <r>   -25.6710     0.0040     8.0000 </r>
       <r>   -25.5639     0.0000     8.0000 </r>
       <r>   -25.4567     0.0036     8.0004 </r>
       <r>   -25.3496     0.3159     8.0342 </r>
       <r>   -25.2425     4.1620     8.4800 </r>
       <r>   -25.1354    12.0238     9.7679 </r>
       <r>   -25.0283    15.1244    11.3880 </r>
       <r>   -24.9212    11.4818    12.6178 </r>
       <r>   -24.8141     9.5572    13.6415 </r>
       <r>   -24.7069     9.4572    14.6546 </r>
       <r>   -24.5998     6.6998    15.3722 </r>
       <r>   -24.4927     1.1594    15.4964 </r>
       <r>   -24.3856     0.0460    15.5013 </r>
       <r>   -24.2785     0.4615    15.5507 </r>
       <r>   -24.1714     2.6275    15.8322 </r>
       <r>   -24.0643     7.7020    16.6572 </r>
       <r>   -23.9571    21.3347    18.9424 </r>
       <r>   -23.8500    27.8959    21.9305 </r>
       <r>   -23.7429    18.5755    23.9202 </r>
       <r>   -23.6358     4.9934    24.4550 </r>
       <r>   -23.5287     0.4178    24.4998 </r>
       <r>   -23.4216     0.3712    24.5395 </r>
       <r>   -23.3145     4.3710    25.0077 </r>
       <r>   -23.2073    10.2275    26.1032 </r>
       <r>   -23.1002     7.9878    26.9588 </r>
       <r>   -22.9931     8.4137    27.8601 </r>
       <r>   -22.8860    12.9550    29.2477 </r>
       <r>   -22.7789    12.8035    30.6192 </r>
       <r>   -22.6718     9.5559    31.6427 </r>
       <r>   -22.5647     3.0797    31.9726 </r>
       <r>   -22.4576     0.2524    31.9996 </r>
       <r>   -22.3504     0.0052    32.0002 </r>
       <r>   -22.2433     0.1975    32.0213 </r>
       <r>   -22.1362     3.2635    32.3709 </r>
       <r>   -22.0291    15.3484    34.0149 </r>
       <r>   -21.9220    33.9949    37.6563 </r>
       <r>   -21.8149    34.1003    41.3089 </r>
       <r>   -21.7078    27.3963    44.2434 </r>
       <r>   -21.6006    24.9158    46.9122 </r>
       <r>   -21.4935     9.4071    47.9199 </r>
       <r>   -21.3864     0.8372    48.0095 </r>
       <r>   -21.2793     1.5736    48.1781 </r>
       <r>   -21.1722     6.1228    48.8339 </r>
       <r>   -21.0651    14.9378    50.4340 </r>
       <r>   -20.9580    21.1725    52.7018 </r>
       <r>   -20.8508    19.0938    54.7471 </r>
       <r>   -20.7437     9.6887    55.7848 </r>
       <r>   -20.6366     3.4094    56.1500 </r>
       <r>   -20.5295    13.1565    57.5593 </r>
       <r>   -20.4224    20.4513    59.7499 </r>
       <r>   -20.3153    16.8910    61.5592 </r>
       <r>   -20.2082    16.8633    63.3655 </r>
       <r>   -20.1010     5.5232    63.9571 </r>
       <r>   -19.9939     0.3960    63.9995 </r>
       <r>   -19.8868     0.0048    64.0000 </r>
       <r>   -19.7797     0.0000    64.0000 </r>
       <r>   -19.6726     0.0000    64.0000 </r>
       <r>   -19.5655     0.0000    64.0000 </r>
       <r>   -19.4584     0.0000    64.0000 </r>
       <r>   -19.3512     0.0000    64.0000 </r>
       <r>   -19.2441     0.0000    64.0000 </r>
       <r>   -19.1370     0.0000    64.0000 </r>
       <r>   -19.0299     0.0000    64.0000 </r>
       <r>   -18.9228     0.0000    64.0000 </r>
       <r>   -18.8157     0.0000    64.0000 </r>
       <r>   -18.7086     0.0000    64.0000 </r>
       <r>   -18.6014     0.0000    64.0000 </r>
       <r>   -18.4943     0.0000    64.0000 </r>
       <r>   -18.3872     0.0000    64.0000 </r>
       <r>   -18.2801     0.0000    64.0000 </r>
       <r>   -18.1730     0.0000    64.0000 </r>
       <r>   -18.0659     0.0000    64.0000 </r>
       <r>   -17.9588     0.0000    64.0000 </r>
       <r>   -17.8517     0.0010    64.0001 </r>
       <r>   -17.7445     0.1468    64.0158 </r>
       <r>   -17.6374     2.8957    64.3260 </r>
       <r>   -17.5303    10.3232    65.4318 </r>
       <r>   -17.4232    12.7676    66.7993 </r>
       <r>   -17.3161    12.7135    68.1611 </r>
       <r>   -17.2090    13.7390    69.6328 </r>
       <r>   -17.1019    19.4201    71.7129 </r>
       <r>   -16.9947    21.4113    74.0064 </r>
       <r>   -16.8876    18.1946    75.9553 </r>
       <r>   -16.7805    11.0874    77.1429 </r>
       <r>   -16.6734    11.1827    78.3407 </r>
       <r>   -16.5663     9.0761    79.3129 </r>
       <r>   -16.4592     1.7003    79.4950 </r>
       <r>   -16.3521     0.1535    79.5115 </r>
       <r>   -16.2449     1.3651    79.6577 </r>
       <r>   -16.1378     2.4930    79.9247 </r>
       <r>   -16.0307     0.6773    79.9973 </r>
       <r>   -15.9236     0.0271    80.0002 </r>
       <r>   -15.8165     0.2385    80.0257 </r>
       <r>   -15.7094     4.5425    80.5123 </r>
       <r>   -15.6023    19.8082    82.6340 </r>
       <r>   -15.4951    28.7696    85.7157 </r>
       <r>   -15.3880    14.9733    87.3195 </r>
       <r>   -15.2809     3.7358    87.7197 </r>
       <r>   -15.1738     2.6892    88.0077 </r>
       <r>   -15.0667     2.7007    88.2970 </r>
       <r>   -14.9596     2.3530    88.5490 </r>
       <r>   -14.8525     2.6467    88.8325 </r>
       <r>   -14.7453     1.4654    88.9895 </r>
       <r>   -14.6382     1.2959    89.1283 </r>
       <r>   -14.5311     8.8951    90.0811 </r>
       <r>   -14.4240    13.9937    91.5800 </r>
       <r>   -14.3169    10.8945    92.7470 </r>
       <r>   -14.2098    12.8220    94.1204 </r>
       <r>   -14.1027    13.5618    95.5731 </r>
       <r>   -13.9956    20.0771    97.7236 </r>
       <r>   -13.8884    26.3105   100.5418 </r>
       <r>   -13.7813    22.8385   102.9881 </r>
       <r>   -13.6742    27.7200   105.9573 </r>
       <r>   -13.5671    29.0384   109.0677 </r>
       <r>   -13.4600    20.9185   111.3084 </r>
       <r>   -13.3529    17.8338   113.2187 </r>
       <r>   -13.2458    10.9551   114.3921 </r>
       <r>   -13.1386     5.6148   114.9935 </r>
       <r>   -13.0315     6.4966   115.6894 </r>
       <r>   -12.9244     8.4295   116.5923 </r>
       <r>   -12.8173     8.2686   117.4780 </r>
       <r>   -12.7102     6.4892   118.1731 </r>
       <r>   -12.6031     4.6428   118.6704 </r>
       <r>   -12.4960     8.1903   119.5477 </r>
       <r>   -12.3888     7.3841   120.3386 </r>
       <r>   -12.2817     5.1138   120.8864 </r>
       <r>   -12.1746     6.3910   121.5710 </r>
       <r>   -12.0675    11.3607   122.7879 </r>
       <r>   -11.9604    16.0681   124.5090 </r>
       <r>   -11.8533    16.9927   126.3291 </r>
       <r>   -11.7462    22.9251   128.7847 </r>
       <r>   -11.6390    23.1627   131.2658 </r>
       <r>   -11.5319    18.0997   133.2045 </r>
       <r>   -11.4248    18.1254   135.1460 </r>
       <r>   -11.3177    19.5882   137.2442 </r>
       <r>   -11.2106    15.0836   138.8598 </r>
       <r>   -11.1035    10.2692   139.9598 </r>
       <r>   -10.9964     7.5166   140.7649 </r>
       <r>   -10.8892     4.2312   141.2181 </r>
       <r>   -10.7821     8.2876   142.1059 </r>
       <r>   -10.6750    16.1346   143.8341 </r>
       <r>   -10.5679    18.8328   145.8513 </r>
       <r>   -10.4608    17.0965   147.6826 </r>
       <r>   -10.3537    18.2797   149.6406 </r>
       <r>   -10.2466    14.2647   151.1686 </r>
       <r>   -10.1394     6.7129   151.8876 </r>
       <r>   -10.0323     1.9123   152.0925 </r>
       <r>    -9.9252     3.3519   152.4515 </r>
       <r>    -9.8181     6.6237   153.1610 </r>
       <r>    -9.7110     9.9774   154.2297 </r>
       <r>    -9.6039    13.0069   155.6229 </r>
       <r>    -9.4968    21.8301   157.9612 </r>
       <r>    -9.3897    20.0435   160.1082 </r>
       <r>    -9.2825    20.5198   162.3061 </r>
       <r>    -9.1754    26.7867   165.1754 </r>
       <r>    -9.0683    29.6923   168.3558 </r>
       <r>    -8.9612    13.7217   169.8256 </r>
       <r>    -8.8541     2.1903   170.0602 </r>
       <r>    -8.7470     6.1300   170.7168 </r>
       <r>    -8.6399    10.3851   171.8292 </r>
       <r>    -8.5327     8.7943   172.7712 </r>
       <r>    -8.4256    12.0050   174.0571 </r>
       <r>    -8.3185     9.6770   175.0936 </r>
       <r>    -8.2114    16.4564   176.8563 </r>
       <r>    -8.1043    14.6969   178.4306 </r>
       <r>    -7.9972    15.7325   180.1158 </r>
       <r>    -7.8901    13.9341   181.6083 </r>
       <r>    -7.7829     3.4736   181.9804 </r>
       <r>    -7.6758     0.9032   182.0771 </r>
       <r>    -7.5687     9.9597   183.1439 </r>
       <r>    -7.4616    31.4949   186.5175 </r>
       <r>    -7.3545    36.0416   190.3780 </r>
       <r>    -7.2474    32.0057   193.8063 </r>
       <r>    -7.1403    33.5945   197.4047 </r>
       <r>    -7.0331    32.0200   200.8345 </r>
       <r>    -6.9260    23.0903   203.3078 </r>
       <r>    -6.8189    14.3845   204.8486 </r>
       <r>    -6.7118    10.3897   205.9615 </r>
       <r>    -6.6047    14.1127   207.4731 </r>
       <r>    -6.4976    23.2926   209.9681 </r>
       <r>    -6.3905    22.3426   212.3613 </r>
       <r>    -6.2833    17.0402   214.1866 </r>
       <r>    -6.1762    14.5121   215.7410 </r>
       <r>    -6.0691    15.1478   217.3635 </r>
       <r>    -5.9620    15.4623   219.0198 </r>
       <r>    -5.8549    17.5615   220.9008 </r>
       <r>    -5.7478    11.0786   222.0875 </r>
       <r>    -5.6407    14.2949   223.6187 </r>
       <r>    -5.5335    22.1557   225.9919 </r>
       <r>    -5.4264    30.7589   229.2866 </r>
       <r>    -5.3193    31.5821   232.6695 </r>
       <r>    -5.2122    28.9136   235.7665 </r>
       <r>    -5.1051    37.1699   239.7479 </r>
       <r>    -4.9980    38.5840   243.8808 </r>
       <r>    -4.8909    33.1412   247.4307 </r>
       <r>    -4.7838    31.5105   250.8059 </r>
       <r>    -4.6766    32.0219   254.2359 </r>
       <r>    -4.5695    22.3008   256.6246 </r>
       <r>    -4.4624    13.6075   258.0822 </r>
       <r>    -4.3553    20.6986   260.2993 </r>
       <r>    -4.2482    34.8630   264.0336 </r>
       <r>    -4.1411    31.3249   267.3889 </r>
       <r>    -4.0340    18.9757   269.4215 </r>
       <r>    -3.9268     5.0847   269.9661 </r>
       <r>    -3.8197     2.0661   270.1874 </r>
       <r>    -3.7126     9.0977   271.1619 </r>
       <r>    -3.6055     8.8586   272.1108 </r>
       <r>    -3.4984    10.1038   273.1931 </r>
       <r>    -3.3913    10.7469   274.3442 </r>
       <r>    -3.2842    20.0687   276.4939 </r>
       <r>    -3.1770    25.1116   279.1837 </r>
       <r>    -3.0699    10.2382   280.2803 </r>
       <r>    -2.9628    15.5846   281.9496 </r>
       <r>    -2.8557    17.7568   283.8516 </r>
       <r>    -2.7486    12.6310   285.2046 </r>
       <r>    -2.6415     6.7377   285.9263 </r>
       <r>    -2.5344     0.6791   285.9990 </r>
       <r>    -2.4272     0.0089   286.0000 </r>
       <r>    -2.3201     0.0097   286.0010 </r>
       <r>    -2.2130     0.6746   286.0733 </r>
       <r>    -2.1059     6.4458   286.7637 </r>
       <r>    -1.9988    10.8784   287.9290 </r>
       <r>    -1.8917    11.2606   289.1351 </r>
       <r>    -1.7846    13.0051   290.5281 </r>
       <r>    -1.6774    12.5554   291.8730 </r>
       <r>    -1.5703    12.1296   293.1723 </r>
       <r>    -1.4632    10.3706   294.2831 </r>
       <r>    -1.3561    10.6235   295.4210 </r>
       <r>    -1.2490    15.2628   297.0559 </r>
       <r>    -1.1419    22.9723   299.5165 </r>
       <r>    -1.0348    24.0551   302.0932 </r>
       <r>    -0.9277    14.4834   303.6445 </r>
       <r>    -0.8205     5.9637   304.2833 </r>
       <r>    -0.7134     6.3936   304.9682 </r>
       <r>    -0.6063    13.3887   306.4023 </r>
       <r>    -0.4992    22.1125   308.7708 </r>
       <r>    -0.3921    20.6410   310.9818 </r>
       <r>    -0.2850     8.5096   311.8933 </r>
       <r>    -0.1779     0.9764   311.9978 </r>
       <r>    -0.0707     0.0223   312.0002 </r>
       <r>     0.0364     0.2313   312.0250 </r>
       <r>     0.1435     3.3502   312.3839 </r>
       <r>     0.2506     8.9920   313.3470 </r>
       <r>     0.3577     5.4320   313.9289 </r>
       <r>     0.4648     1.2286   314.0605 </r>
       <r>     0.5719     5.7998   314.6817 </r>
       <r>     0.6791     9.5692   315.7067 </r>
       <r>     0.7862     3.2110   316.0506 </r>
       <r>     0.8933     3.8309   316.4610 </r>
       <r>     1.0004    10.9713   317.6362 </r>
       <r>     1.1075    18.3762   319.6045 </r>
       <r>     1.2146    17.9229   321.5243 </r>
       <r>     1.3217    19.8266   323.6480 </r>
       <r>     1.4289    22.1231   326.0177 </r>
       <r>     1.5360    19.8525   328.1442 </r>
       <r>     1.6431    23.1946   330.6286 </r>
       <r>     1.7502    22.3872   333.0266 </r>
       <r>     1.8573    20.1804   335.1882 </r>
       <r>     1.9644    23.2985   337.6838 </r>
       <r>     2.0715    23.2846   340.1779 </r>
       <r>     2.1787    12.3081   341.4963 </r>
       <r>     2.2858     8.6885   342.4270 </r>
       <r>     2.3929    11.4496   343.6534 </r>
       <r>     2.5000    16.8621   345.4595 </r>
       <r>     2.6071    18.7386   347.4667 </r>
       <r>     2.7142    17.4770   349.3387 </r>
       <r>     2.8213    15.6167   351.0115 </r>
       <r>     2.9285     7.9726   351.8655 </r>
       <r>     3.0356     1.2191   351.9960 </r>
       <r>     3.1427     0.0369   352.0000 </r>
       <r>     3.2498     0.0002   352.0000 </r>
       <r>     3.3569     0.0000   352.0000 </r>
       <r>     3.4640     0.0000   352.0000 </r>
       <r>     3.5711     0.0000   352.0000 </r>
       <r>     3.6782     0.0000   352.0000 </r>
       <r>     3.7854     0.0000   352.0000 </r>
       <r>     3.8925     0.0000   352.0000 </r>
       <r>     3.9996     0.0000   352.0000 </r>
       <r>     4.1067     0.0000   352.0000 </r>
       <r>     4.2138     0.0000   352.0000 </r>
       <r>     4.3209     0.0000   352.0000 </r>
      </set>
     </set>
    </array>
   </total>
  </dos>
 </calculation>
 <structure name="finalpos" >
  <crystal>
   <varray name="basis" >
    <v>      13.70016928       0.00000000       0.00000000 </v>
    <v>       0.00000000      10.91249007       0.00000000 </v>
    <v>       0.00000000       0.00000000      15.00000000 </v>
   </varray>
   <i name="volume">   2242.54441760 </i>
   <varray name="rec_basis" >
    <v>       0.07299180       0.00000000       0.00000000 </v>
    <v>       0.00000000       0.09163811       0.00000000 </v>
    <v>       0.00000000       0.00000000       0.06666667 </v>
   </varray>
  </crystal>
  <varray name="positions" >
   <v>       0.07135860       0.38927179       0.22847634 </v>
   <v>       0.98058825       0.21964512       0.16821582 </v>
   <v>       0.22996327       0.39628596       0.19609744 </v>
   <v>       0.81827118       0.58063315       0.18825199 </v>
   <v>       0.14886351       0.25052026       0.12268506 </v>
   <v>       0.90788672       0.38748184       0.22514170 </v>
   <v>       0.57140608       0.39009171       0.23246815 </v>
   <v>       0.47958378       0.22081056       0.17485423 </v>
   <v>       0.73219644       0.39554145       0.20387964 </v>
   <v>       0.31187779       0.58428904       0.18619205 </v>
   <v>       0.64868900       0.25183208       0.12859758 </v>
   <v>       0.40549313       0.39347573       0.22313028 </v>
   <v>       0.81571482       0.88916416       0.04631114 </v>
   <v>       0.72763927       0.72019147       0.11102878 </v>
   <v>       0.97573910       0.89709470       0.07360246 </v>
   <v>       0.06622663       0.07992403       0.08712005 </v>
   <v>       0.89728492       0.75252269       0.15087381 </v>
   <v>       0.65184377       0.88752473       0.05576563 </v>
   <v>       0.31568016       0.89290402       0.04372491 </v>
   <v>       0.22527740       0.72113955       0.10239367 </v>
   <v>       0.47393875       0.90200606       0.07998559 </v>
   <v>       0.56645406       0.08117537       0.09432467 </v>
   <v>       0.38860145       0.76386962       0.15644310 </v>
   <v>       0.15185639       0.88780322       0.04538335 </v>
   <v>       0.98886603       0.44267865       0.25384464 </v>
   <v>       0.89981889       0.26932060       0.20084096 </v>
   <v>       0.15943769       0.43065135       0.25161451 </v>
   <v>       0.14599174       0.14796783       0.07509568 </v>
   <v>       0.98395867       0.10906089       0.13069181 </v>
   <v>       0.22941607       0.31892830       0.12800243 </v>
   <v>       0.06702941       0.28811290       0.17106272 </v>
   <v>       0.82192510       0.45771346       0.21907113 </v>
   <v>       0.48851288       0.45144854       0.24755875 </v>
   <v>       0.39936514       0.27226185       0.20698265 </v>
   <v>       0.66018529       0.42723741       0.26132062 </v>
   <v>       0.64593043       0.14911943       0.08146048 </v>
   <v>       0.48350809       0.11064586       0.13746028 </v>
   <v>       0.72816977       0.32141009       0.13411155 </v>
   <v>       0.56706796       0.28811475       0.17765285 </v>
   <v>       0.31988636       0.46114485       0.21154153 </v>
   <v>       0.73196972       0.94149126       0.02313051 </v>
   <v>       0.64472431       0.77017840       0.08273300 </v>
   <v>       0.90317415       0.93007492       0.01985352 </v>
   <v>       0.89744343       0.64972841       0.19844356 </v>
   <v>       0.73399067       0.60877491       0.14726845 </v>
   <v>       0.97705237       0.82166326       0.14293298 </v>
   <v>       0.81375490       0.78881806       0.10466435 </v>
   <v>       0.56681920       0.95906182       0.06397482 </v>
   <v>       0.23318610       0.94280606       0.01587003 </v>
   <v>       0.14481576       0.76850289       0.06798879 </v>
   <v>       0.40493919       0.93306538       0.02194044 </v>
   <v>       0.38385236       0.66335373       0.20854081 </v>
   <v>       0.23302590       0.60914022       0.13732511 </v>
   <v>       0.46919100       0.83056289       0.15201869 </v>
   <v>       0.30987007       0.79406630       0.10366702 </v>
   <v>       0.06686566       0.95808959       0.05547316 </v>
   <v>       0.59870326       0.78880001       0.39067376 </v>
   <v>       0.66682432       0.57209295       0.35164390 </v>
   <v>       0.50545450       0.62780326       0.29177473 </v>
  </varray>
 </structure>
</modeling>
