slab_Cel1-OPT                           
           1
    13.759704    0.000000    0.000000
     0.000000   11.286700    0.000000
     0.000000    0.000000   15.000000
   C    N    Au   Pd
    24    32     1     2
Direct configuration=     1
   0.07054120  0.38816457  0.22227495
   0.98151180  0.21832942  0.16785344
   0.22877304  0.39667288  0.18904348
   0.82472337  0.57572318  0.18403191
   0.14970601  0.24663792  0.12277753
   0.90758628  0.38434512  0.21811946
   0.56886571  0.39316130  0.23173729
   0.47768100  0.22391730  0.18017943
   0.73035049  0.39802658  0.19909345
   0.31101118  0.58132963  0.17977696
   0.64681854  0.25040749  0.13377315
   0.40275100  0.39355427  0.22106508
   0.81808056  0.88988957  0.05647519
   0.73319531  0.72568325  0.12448457
   0.97932824  0.89597624  0.07999408
   0.06867909  0.07698375  0.09423854
   0.90528082  0.74258583  0.14719628
   0.65472406  0.89333727  0.07691603
   0.31825350  0.89473226  0.05377466
   0.22716619  0.72126926  0.10084126
   0.47498917  0.90396535  0.09489577
   0.56592959  0.08075138  0.11024766
   0.38612516  0.76037560  0.16363174
   0.15509033  0.88950396  0.05271529
   0.98784551  0.43883046  0.24713656
   0.89991795  0.26975381  0.19549767
   0.15759857  0.43325808  0.24240148
   0.14788829  0.14353661  0.08017307
   0.98633649  0.10796021  0.13653167
   0.22915942  0.31533454  0.12527490
   0.06735802  0.28598388  0.16888911
   0.82274912  0.45552252  0.21014877
   0.48493735  0.44793349  0.25146232
   0.39648714  0.27665554  0.20625030
   0.65756919  0.43524210  0.25419888
   0.64488604  0.14640144  0.09374788
   0.48286722  0.11321356  0.15081376
   0.72606390  0.31870920  0.13454719
   0.56470606  0.29135323  0.18008364
   0.31888640  0.46086995  0.20329135
   0.73287748  0.94248397  0.03965616
   0.64891188  0.78317499  0.11254597
   0.90382696  0.93469024  0.03189926
   0.90701680  0.63807548  0.18754912
   0.73647441  0.61699787  0.15934394
   0.98321706  0.81212363  0.14197152
   0.81925020  0.78400528  0.10639513
   0.56804185  0.96074410  0.08520074
   0.23699719  0.94478449  0.02657725
   0.14820250  0.77173059  0.06843984
   0.40793432  0.93556381  0.03646331
   0.38047481  0.65838217  0.20939239
   0.23501053  0.60894863  0.12850628
   0.46527775  0.83024755  0.16578047
   0.31113112  0.79334051  0.10891910
   0.06990262  0.95754122  0.06514651
   0.57736557  0.77647674  0.24193941
   0.65582252  0.60772566  0.29790490
   0.48700699  0.61617049  0.29396059
slab_Cel1-OPT                           
           1
    13.775500    0.000000    0.000000
     0.000000   11.292850    0.000000
     0.000000    0.000000   15.000000
   C    N    Au   Pd
    24    32     1     2
Direct configuration=     2
   0.07051175  0.38812424  0.22224695
   0.98153662  0.21841521  0.16787537
   0.22872762  0.39668472  0.18901625
   0.82503350  0.57573841  0.18426675
   0.14967393  0.24668898  0.12282113
   0.90756002  0.38438971  0.21809649
   0.56887876  0.39291535  0.23163507
   0.47770982  0.22402494  0.18019558
   0.73048936  0.39810258  0.19907731
   0.31083441  0.58124410  0.17973370
   0.64687920  0.25067302  0.13382853
   0.40254115  0.39355715  0.22105296
   0.81823353  0.88987519  0.05648445
   0.73358489  0.72579185  0.12425245
   0.97938728  0.89599213  0.08003707
   0.06865804  0.07702606  0.09422839
   0.90533458  0.74268112  0.14719413
   0.65482702  0.89369124  0.07679181
   0.31816131  0.89476042  0.05377692
   0.22717575  0.72130483  0.10083060
   0.47511972  0.90421755  0.09474615
   0.56601447  0.08103824  0.11020591
   0.38591571  0.76033124  0.16352970
   0.15500781  0.88947998  0.05272852
   0.98787393  0.43881652  0.24712287
   0.89990077  0.26975913  0.19551082
   0.15767018  0.43325664  0.24239504
   0.14786818  0.14350215  0.08016877
   0.98639120  0.10793047  0.13650346
   0.22918700  0.31532508  0.12525234
   0.06737218  0.28598452  0.16890652
   0.82272692  0.45536739  0.21011270
   0.48477862  0.44727686  0.25140005
   0.39657384  0.27665013  0.20622383
   0.65759050  0.43469764  0.25420847
   0.64475289  0.14613140  0.09371103
   0.48290445  0.11308912  0.15079742
   0.72592955  0.31851707  0.13449942
   0.56463145  0.29128484  0.18007062
   0.31892607  0.46081977  0.20329906
   0.73275870  0.94245051  0.03968936
   0.64933885  0.78327256  0.11169956
   0.90372892  0.93467312  0.03190718
   0.90691724  0.63795555  0.18756222
   0.73631130  0.61688200  0.15925215
   0.98319956  0.81206787  0.14191585
   0.81906890  0.78391625  0.10652289
   0.56801865  0.96052840  0.08514377
   0.23710947  0.94478563  0.02659853
   0.14818490  0.77175682  0.06841386
   0.40798905  0.93549826  0.03651224
   0.37965575  0.65850132  0.20903366
   0.23506894  0.60897854  0.12852327
   0.46416503  0.83095156  0.16505260
   0.31113826  0.79333608  0.10892140
   0.06987488  0.95749111  0.06513387
   0.57792173  0.77966444  0.24264861
   0.65841212  0.60647525  0.29881774
   0.48542467  0.61474718  0.29499427
slab_Cel1-OPT                           
           1
    13.811658    0.000000    0.000000
     0.000000   11.306927    0.000000
     0.000000    0.000000   15.000000
   C    N    Au   Pd
    24    32     1     2
Direct configuration=     3
   0.07044442  0.38803195  0.22218287
   0.98159337  0.21861148  0.16792556
   0.22862377  0.39671181  0.18895393
   0.82574256  0.57577325  0.18480428
   0.14960059  0.24680580  0.12292094
   0.90749999  0.38449172  0.21804393
   0.56890859  0.39235270  0.23140108
   0.47777572  0.22427120  0.18023254
   0.73080687  0.39827645  0.19904035
   0.31043026  0.58104844  0.17963468
   0.64701787  0.25128048  0.13395530
   0.40206136  0.39356375  0.22102524
   0.81858326  0.88984229  0.05650565
   0.73447559  0.72604031  0.12372115
   0.97952226  0.89602847  0.08013548
   0.06860991  0.07712283  0.09420515
   0.90545749  0.74289913  0.14718921
   0.65506244  0.89450100  0.07650746
   0.31795053  0.89482482  0.05378209
   0.22719763  0.72138620  0.10080618
   0.47541820  0.90479450  0.09440367
   0.56620853  0.08169451  0.11011034
   0.38543685  0.76022976  0.16329614
   0.15481913  0.88942511  0.05275882
   0.98793890  0.43878462  0.24709154
   0.89986149  0.26977131  0.19554090
   0.15783390  0.43325336  0.24238029
   0.14782220  0.14342332  0.08015891
   0.98651630  0.10786241  0.13643889
   0.22925004  0.31530342  0.12520069
   0.06740457  0.28598597  0.16894635
   0.82267614  0.45501251  0.21003013
   0.48441571  0.44577467  0.25125752
   0.39677206  0.27663775  0.20616325
   0.65763924  0.43345207  0.25423043
   0.64444847  0.14551362  0.09362667
   0.48298959  0.11280443  0.15076003
   0.72562237  0.31807755  0.13439009
   0.56446087  0.29112840  0.18004082
   0.31901677  0.46070496  0.20331671
   0.73248712  0.94237398  0.03976534
   0.65031505  0.78349577  0.10976217
   0.90350477  0.93463394  0.03192531
   0.90668962  0.63768119  0.18759221
   0.73593837  0.61661694  0.15904205
   0.98315953  0.81194030  0.14178843
   0.81865438  0.78371260  0.10681534
   0.56796560  0.96003493  0.08501339
   0.23736616  0.94478822  0.02664723
   0.14814466  0.77181681  0.06835438
   0.40811419  0.93534829  0.03662424
   0.37778310  0.65877388  0.20821253
   0.23520248  0.60904696  0.12856214
   0.46162096  0.83256213  0.16338652
   0.31115457  0.79332594  0.10892667
   0.06981146  0.95737647  0.06510494
   0.57919328  0.78695699  0.24427193
   0.66433282  0.60361467  0.30090720
   0.48180695  0.61149104  0.29736034
slab_Cel1-OPT                           
           1
    13.790842    0.000000    0.000000
     0.000000   11.285593    0.000000
     0.000000    0.000000   15.000000
   C    N    Au   Pd
    24    32     1     2
Direct configuration=     4
   0.07056281  0.38816397  0.22219203
   0.98157428  0.21858194  0.16791046
   0.22864585  0.39670731  0.18891463
   0.82507413  0.57592480  0.18490315
   0.14967351  0.24674635  0.12288282
   0.90752493  0.38445300  0.21801120
   0.56867555  0.39203928  0.23129519
   0.47785714  0.22391060  0.18008724
   0.73074947  0.39795342  0.19879951
   0.30994191  0.58094475  0.17938244
   0.64671130  0.25061616  0.13369702
   0.40216579  0.39310572  0.22096873
   0.81808482  0.88993046  0.05655109
   0.73422588  0.72591314  0.12341177
   0.97939633  0.89611250  0.08001708
   0.06866300  0.07722414  0.09418245
   0.90531448  0.74274257  0.14730444
   0.65518529  0.89429405  0.07633338
   0.31835718  0.89477714  0.05392727
   0.22725266  0.72157271  0.10077600
   0.47497869  0.90525127  0.09370789
   0.56602238  0.08137032  0.11001864
   0.38466030  0.76055027  0.16265449
   0.15499392  0.88954023  0.05273022
   0.98794938  0.43864427  0.24696763
   0.90008833  0.26977751  0.19551015
   0.15765471  0.43311823  0.24229753
   0.14766868  0.14352042  0.08026913
   0.98663580  0.10812407  0.13645715
   0.22905419  0.31516517  0.12520778
   0.06737753  0.28598535  0.16899685
   0.82295785  0.45481578  0.21004613
   0.48438685  0.44513520  0.25115402
   0.39673159  0.27657647  0.20611366
   0.65780685  0.43283539  0.25434696
   0.64452710  0.14614227  0.09378766
   0.48307480  0.11319114  0.15087127
   0.72567239  0.31817734  0.13447477
   0.56453341  0.29092987  0.17985868
   0.31864471  0.46066072  0.20320616
   0.73319516  0.94270751  0.03966487
   0.65065857  0.78313380  0.10870073
   0.90368889  0.93453225  0.03211598
   0.90690995  0.63797308  0.18754954
   0.73633625  0.61641781  0.15907500
   0.98306112  0.81177096  0.14165730
   0.81936289  0.78405647  0.10696766
   0.56805195  0.96055128  0.08492290
   0.23702532  0.94472709  0.02675251
   0.14825558  0.77183710  0.06837754
   0.40777582  0.93547029  0.03621056
   0.37755234  0.65877725  0.20825539
   0.23494304  0.60907899  0.12838058
   0.46132097  0.83265814  0.16376631
   0.31047626  0.79329535  0.10851515
   0.06981703  0.95733541  0.06509107
   0.57976393  0.78899996  0.24652086
   0.66612534  0.60339931  0.30177850
   0.48178469  0.61114204  0.29865051
slab_Cel1-OPT                           
           1
    13.773786    0.000000    0.000000
     0.000000   11.268112    0.000000
     0.000000    0.000000   15.000000
   C    N    Au   Pd
    24    32     1     2
Direct configuration=     5
   0.07065996  0.38827236  0.22219953
   0.98155861  0.21855769  0.16789808
   0.22866398  0.39670362  0.18888243
   0.82452557  0.57604922  0.18498417
   0.14973336  0.24669754  0.12285159
   0.90754539  0.38442122  0.21798439
   0.56848430  0.39178197  0.23120842
   0.47792395  0.22361456  0.17996818
   0.73070236  0.39768822  0.19860216
   0.30954113  0.58085962  0.17917576
   0.64645972  0.25007077  0.13348538
   0.40225150  0.39272968  0.22092242
   0.81767576  0.89000284  0.05658833
   0.73402095  0.72580875  0.12315826
   0.97929299  0.89618148  0.07992007
   0.06870657  0.07730731  0.09416385
   0.90519712  0.74261403  0.14739886
   0.65528611  0.89412415  0.07619073
   0.31869091  0.89473799  0.05404623
   0.22729782  0.72172583  0.10075127
   0.47461799  0.90562626  0.09313775
   0.56586962  0.08110416  0.10994350
   0.38402302  0.76081340  0.16212871
   0.15513735  0.88963474  0.05270678
   0.98795798  0.43852905  0.24686609
   0.90027449  0.26978261  0.19548496
   0.15750765  0.43300729  0.24222971
   0.14754269  0.14360014  0.08035945
   0.98673388  0.10833888  0.13647212
   0.22889347  0.31505167  0.12521359
   0.06735533  0.28598485  0.16903823
   0.82318905  0.45465427  0.21005924
   0.48436317  0.44461021  0.25106920
   0.39669838  0.27652616  0.20607302
   0.65794440  0.43232912  0.25444244
   0.64459164  0.14665838  0.09391958
   0.48314474  0.11350862  0.15096243
   0.72571344  0.31825927  0.13454416
   0.56459294  0.29076688  0.17970944
   0.31833939  0.46062440  0.20311558
   0.73377621  0.94298132  0.03958254
   0.65094048  0.78283664  0.10783097
   0.90384000  0.93444876  0.03227221
   0.90709076  0.63821272  0.18751458
   0.73666277  0.61625432  0.15910201
   0.98298036  0.81163194  0.14154984
   0.81994434  0.78433877  0.10709246
   0.56812280  0.96097519  0.08484875
   0.23674561  0.94467690  0.02683878
   0.14834661  0.77185377  0.06839652
   0.40749812  0.93557045  0.03587158
   0.37736296  0.65878001  0.20829050
   0.23473013  0.60910529  0.12823180
   0.46107479  0.83273696  0.16407751
   0.30991960  0.79327024  0.10817795
   0.06982161  0.95730171  0.06507971
   0.58023223  0.79067718  0.24836368
   0.66759638  0.60322250  0.30249246
   0.48176642  0.61085551  0.29970771
slab_Cel1-OPT                           
           1
    13.757895    0.000000    0.000000
     0.000000   11.251404    0.000000
     0.000000    0.000000   15.000000
   C    N    Au   Pd
    24    32     1     2
Direct configuration=     6
   0.07054076  0.38819937  0.22211344
   0.98170056  0.21869534  0.16790383
   0.22855565  0.39658799  0.18885007
   0.82454098  0.57621702  0.18524055
   0.14955367  0.24671031  0.12292717
   0.90767624  0.38439190  0.21794787
   0.56870306  0.39139384  0.23111318
   0.47793356  0.22375700  0.17996424
   0.73067163  0.39726875  0.19845764
   0.30927841  0.58088055  0.17904834
   0.64643366  0.25037025  0.13349588
   0.40215788  0.39238770  0.22080043
   0.81819279  0.89000127  0.05673256
   0.73426195  0.72547802  0.12282964
   0.97917699  0.89597980  0.07993515
   0.06862936  0.07728287  0.09416201
   0.90524618  0.74278448  0.14742366
   0.65561192  0.89405619  0.07570131
   0.31807126  0.89486827  0.05383510
   0.22694491  0.72180834  0.10056494
   0.47437858  0.90548768  0.09312160
   0.56588478  0.08106065  0.10984593
   0.38357710  0.76076234  0.16189373
   0.15504684  0.88973306  0.05273469
   0.98797391  0.43860329  0.24683620
   0.90028581  0.26964173  0.19548190
   0.15759845  0.43305050  0.24222167
   0.14757604  0.14357781  0.08030990
   0.98679289  0.10828249  0.13642309
   0.22891664  0.31503968  0.12517758
   0.06744301  0.28597993  0.16905147
   0.82321405  0.45458880  0.21003976
   0.48435638  0.44449239  0.25111339
   0.39652719  0.27599949  0.20594318
   0.65799888  0.43177362  0.25471698
   0.64452157  0.14629159  0.09374855
   0.48317935  0.11319093  0.15087110
   0.72570293  0.31805791  0.13435001
   0.56452592  0.29048317  0.17943507
   0.31802543  0.46046492  0.20300391
   0.73387216  0.94368313  0.03950482
   0.65067315  0.78221177  0.10669929
   0.90382704  0.93452807  0.03226291
   0.90701661  0.63789982  0.18764848
   0.73659618  0.61633765  0.15891163
   0.98316791  0.81162484  0.14144498
   0.81991955  0.78454053  0.10725615
   0.56813855  0.96125551  0.08462171
   0.23691302  0.94476064  0.02694835
   0.14825555  0.77179802  0.06834642
   0.40718611  0.93598064  0.03503441
   0.37723903  0.65890640  0.20830141
   0.23417417  0.60899512  0.12786003
   0.46111040  0.83320631  0.16427019
   0.30950816  0.79344677  0.10764073
   0.06986168  0.95737762  0.06503408
   0.58085978  0.79223656  0.25152709
   0.66884369  0.60356624  0.30341209
   0.48259098  0.61105252  0.30108615
slab_Cel1-OPT                           
           1
    13.731652    0.000000    0.000000
     0.000000   11.223812    0.000000
     0.000000    0.000000   15.000000
   C    N    Au   Pd
    24    32     1     2
Direct configuration=     7
   0.07034368  0.38807866  0.22197126
   0.98193526  0.21892300  0.16791334
   0.22837653  0.39639676  0.18879662
   0.82456646  0.57649454  0.18566396
   0.14925656  0.24673143  0.12305200
   0.90789259  0.38434342  0.21788757
   0.56906474  0.39075190  0.23095591
   0.47794944  0.22399259  0.17995773
   0.73062082  0.39657499  0.19821897
   0.30884404  0.58091517  0.17883791
   0.64639056  0.25086559  0.13351324
   0.40200309  0.39182208  0.22059896
   0.81904764  0.88999868  0.05697076
   0.73466041  0.72493103  0.12228692
   0.97898521  0.89564623  0.07996005
   0.06850168  0.07724244  0.09415897
   0.90532730  0.74306638  0.14746461
   0.65615061  0.89394379  0.07489303
   0.31704675  0.89508374  0.05348641
   0.22636140  0.72194480  0.10025722
   0.47398273  0.90525847  0.09309493
   0.56590986  0.08098867  0.10968479
   0.38283982  0.76067788  0.16150565
   0.15489718  0.88989567  0.05278078
   0.98800025  0.43872607  0.24678683
   0.90030454  0.26940872  0.19547685
   0.15774857  0.43312198  0.24220839
   0.14763118  0.14354087  0.08022806
   0.98689045  0.10818921  0.13634214
   0.22895495  0.31501985  0.12511812
   0.06758797  0.28597180  0.16907333
   0.82325538  0.45448051  0.21000759
   0.48434517  0.44429752  0.25118636
   0.39624416  0.27512842  0.20572875
   0.65808895  0.43085486  0.25517038
   0.64440572  0.14568494  0.09346610
   0.48323657  0.11266549  0.15072028
   0.72568555  0.31772487  0.13402937
   0.56441511  0.29001395  0.17898195
   0.31750635  0.46020117  0.20281950
   0.73403080  0.94484388  0.03937647
   0.65023117  0.78117828  0.10483034
   0.90380560  0.93465924  0.03224756
   0.90689401  0.63738231  0.18786962
   0.73648609  0.61647547  0.15859722
   0.98347801  0.81161311  0.14127181
   0.81987857  0.78487423  0.10752649
   0.56816458  0.96171914  0.08424676
   0.23718981  0.94489914  0.02712928
   0.14810500  0.77170583  0.06826367
   0.40667022  0.93665906  0.03365185
   0.37703411  0.65911543  0.20831943
   0.23325495  0.60881291  0.12724607
   0.46116927  0.83398257  0.16458840
   0.30882790  0.79373874  0.10675353
   0.06992793  0.95750318  0.06495872
   0.58189738  0.79481566  0.25675138
   0.67090597  0.60413475  0.30493082
   0.48395428  0.61137837  0.30336262
slab_Cel1-OPT                           
           1
    13.732959    0.000000    0.000000
     0.000000   11.217397    0.000000
     0.000000    0.000000   15.000000
   C    N    Au   Pd
    24    32     1     2
Direct configuration=     8
   0.07045009  0.38812978  0.22196356
   0.98202892  0.21885571  0.16788581
   0.22828472  0.39626219  0.18874913
   0.82459800  0.57638524  0.18596361
   0.14926987  0.24672684  0.12302967
   0.90779264  0.38440157  0.21785566
   0.56910301  0.39060581  0.23103906
   0.47792278  0.22351098  0.17977965
   0.73071310  0.39648152  0.19838497
   0.30859240  0.58100277  0.17871888
   0.64633299  0.25051782  0.13321838
   0.40179164  0.39185438  0.22051707
   0.81905754  0.89026252  0.05701554
   0.73438611  0.72495165  0.12174706
   0.97924054  0.89563718  0.07991383
   0.06851355  0.07717759  0.09408223
   0.90541301  0.74296850  0.14763301
   0.65611610  0.89383647  0.07437902
   0.31709099  0.89522315  0.05312998
   0.22604045  0.72173466  0.10003197
   0.47365303  0.90524309  0.09301993
   0.56593744  0.08093049  0.10957042
   0.38306804  0.76094277  0.16156942
   0.15466633  0.88998897  0.05275985
   0.98803796  0.43897974  0.24686533
   0.90019228  0.26918148  0.19550843
   0.15767550  0.43320988  0.24231271
   0.14774511  0.14348078  0.08009326
   0.98675214  0.10801837  0.13635089
   0.22901245  0.31495103  0.12498023
   0.06758460  0.28598632  0.16909711
   0.82309579  0.45436187  0.20998289
   0.48442853  0.44439783  0.25126259
   0.39589333  0.27460513  0.20565717
   0.65835145  0.43039980  0.25541270
   0.64457193  0.14565638  0.09324830
   0.48306626  0.11234366  0.15069478
   0.72582054  0.31755171  0.13364405
   0.56436132  0.29011693  0.17880558
   0.31754544  0.46009739  0.20273866
   0.73440194  0.94540398  0.03936532
   0.64993911  0.78040579  0.10376641
   0.90407323  0.93492262  0.03207039
   0.90699416  0.63738400  0.18798801
   0.73626185  0.61631257  0.15842854
   0.98380222  0.81153640  0.14132021
   0.81977425  0.78500568  0.10773472
   0.56810014  0.96126857  0.08387064
   0.23656499  0.94554288  0.02695911
   0.14739770  0.77195765  0.06794273
   0.40670165  0.93667879  0.03318472
   0.37690730  0.65916354  0.20828574
   0.23285735  0.60846290  0.12700944
   0.46100559  0.83425598  0.16463070
   0.30892333  0.79362293  0.10648636
   0.06985108  0.95747166  0.06487784
   0.58255873  0.79633715  0.26017933
   0.67179838  0.60466487  0.30587996
   0.48504998  0.61172148  0.30458510
slab_Cel1-OPT                           
           1
    13.735923    0.000000    0.000000
     0.000000   11.202855    0.000000
     0.000000    0.000000   15.000000
   C    N    Au   Pd
    24    32     1     2
Direct configuration=     9
   0.07069132  0.38824573  0.22194612
   0.98224126  0.21870306  0.16782338
   0.22807659  0.39595691  0.18864148
   0.82466950  0.57613729  0.18664298
   0.14930005  0.24671644  0.12297907
   0.90756606  0.38453346  0.21778333
   0.56918977  0.39027440  0.23122757
   0.47786235  0.22241843  0.17937591
   0.73092232  0.39626948  0.19876132
   0.30802194  0.58120149  0.17844900
   0.64620248  0.24972889  0.13254985
   0.40131227  0.39192766  0.22033143
   0.81907998  0.89086105  0.05711706
   0.73376428  0.72499845  0.12052306
   0.97981938  0.89561667  0.07980903
   0.06854044  0.07703047  0.09390823
   0.90560730  0.74274645  0.14801482
   0.65603785  0.89359301  0.07321363
   0.31719128  0.89553940  0.05232186
   0.22531285  0.72125794  0.09952127
   0.47290560  0.90520819  0.09284989
   0.56599997  0.08079851  0.10931110
   0.38358542  0.76154369  0.16171401
   0.15414298  0.89020062  0.05271240
   0.98812344  0.43955519  0.24704331
   0.89993776  0.26866598  0.19558005
   0.15750986  0.43340930  0.24254923
   0.14800338  0.14334445  0.07978764
   0.98643859  0.10763081  0.13637075
   0.22914281  0.31479493  0.12466759
   0.06757695  0.28601927  0.16915100
   0.82273399  0.45409274  0.20992690
   0.48461751  0.44462539  0.25143540
   0.39509799  0.27341801  0.20549486
   0.65894653  0.42936748  0.25596209
   0.64494874  0.14559158  0.09275449
   0.48268016  0.11161358  0.15063698
   0.72612657  0.31715889  0.13277043
   0.56423937  0.29035056  0.17840570
   0.31763404  0.45986197  0.20255538
   0.73524332  0.94667462  0.03934002
   0.64927701  0.77865337  0.10135423
   0.90467995  0.93552011  0.03166870
   0.90722119  0.63738784  0.18825644
   0.73575349  0.61594303  0.15804610
   0.98453724  0.81136239  0.14142994
   0.81953775  0.78530387  0.10820683
   0.56795404  0.96024645  0.08301787
   0.23514852  0.94700324  0.02657328
   0.14579422  0.77252892  0.06721509
   0.40677290  0.93672357  0.03212562
   0.37661981  0.65927269  0.20820934
   0.23195597  0.60766887  0.12647293
   0.46063452  0.83487622  0.16472662
   0.30913966  0.79336020  0.10588060
   0.06967686  0.95740014  0.06469445
   0.58405805  0.79978873  0.26795133
   0.67382149  0.60586749  0.30803188
   0.48753397  0.61249983  0.30735676
slab_Cel1-OPT                           
           1
    13.722905    0.000000    0.000000
     0.000000   11.192933    0.000000
     0.000000    0.000000   15.000000
   C    N    Au   Pd
    24    32     1     2
Direct configuration=    10
   0.07049422  0.38858308  0.22216274
   0.98190532  0.21846648  0.16788856
   0.22811162  0.39599092  0.18870530
   0.82404190  0.57634857  0.18667654
   0.14949966  0.24652260  0.12272933
   0.90749144  0.38448547  0.21785088
   0.56905746  0.39054140  0.23154635
   0.47730267  0.22235417  0.17938532
   0.73084145  0.39568388  0.19860005
   0.30807928  0.58138378  0.17844073
   0.64651857  0.24991331  0.13226249
   0.40155030  0.39175806  0.22034209
   0.81916642  0.89143890  0.05708694
   0.73304717  0.72461859  0.12005043
   0.97999776  0.89566609  0.07969788
   0.06852194  0.07705425  0.09379910
   0.90567634  0.74282538  0.14817742
   0.65563760  0.89293946  0.07265074
   0.31678932  0.89592410  0.05157836
   0.22468914  0.72129875  0.09893058
   0.47278094  0.90524238  0.09267294
   0.56599299  0.08006437  0.10894945
   0.38392481  0.76173666  0.16197775
   0.15374100  0.89056971  0.05245077
   0.98802030  0.43963885  0.24703608
   0.89996941  0.26860306  0.19566761
   0.15768287  0.43340855  0.24259236
   0.14794890  0.14328858  0.07966046
   0.98645347  0.10734775  0.13632012
   0.22910801  0.31478230  0.12451361
   0.06760805  0.28595887  0.16909406
   0.82279998  0.45391058  0.21004548
   0.48460624  0.44487760  0.25151236
   0.39502926  0.27341444  0.20550038
   0.65923261  0.42921267  0.25624236
   0.64489006  0.14511121  0.09234446
   0.48280710  0.11074111  0.15034827
   0.72620178  0.31749211  0.13268758
   0.56412958  0.29033111  0.17814511
   0.31770439  0.46008389  0.20241904
   0.73526289  0.94679287  0.03960392
   0.64896395  0.77844179  0.09996868
   0.90510150  0.93556097  0.03155400
   0.90737888  0.63742780  0.18848486
   0.73584410  0.61555163  0.15793174
   0.98466125  0.81118677  0.14159520
   0.81955873  0.78568743  0.10836019
   0.56784247  0.95974113  0.08253287
   0.23502218  0.94750004  0.02639594
   0.14547310  0.77214886  0.06693041
   0.40701570  0.93622468  0.03215818
   0.37658459  0.65914205  0.20818479
   0.23179809  0.60737093  0.12642300
   0.46061103  0.83510117  0.16462497
   0.30938435  0.79302544  0.10563774
   0.06945909  0.95756900  0.06458023
   0.58491472  0.80182648  0.27213254
   0.67442643  0.60638895  0.30908349
   0.48880646  0.61278839  0.30825280
slab_Cel1-OPT                           
           1
    13.710512    0.000000    0.000000
     0.000000   11.183486    0.000000
     0.000000    0.000000   15.000000
   C    N    Au   Pd
    24    32     1     2
Direct configuration=    11
   0.07030640  0.38890453  0.22236898
   0.98158519  0.21824105  0.16795062
   0.22814501  0.39602332  0.18876607
   0.82344381  0.57654990  0.18670848
   0.14968987  0.24633789  0.12249156
   0.90742033  0.38443974  0.21791520
   0.56893137  0.39079582  0.23184984
   0.47676932  0.22229294  0.17939429
   0.73076438  0.39512586  0.19844650
   0.30813391  0.58155748  0.17843286
   0.64681980  0.25008904  0.13198890
   0.40177714  0.39159645  0.22035224
   0.81924879  0.89198953  0.05705825
   0.73236380  0.72425662  0.11960046
   0.98016775  0.89571319  0.07959206
   0.06850431  0.07707691  0.09369520
   0.90574214  0.74290059  0.14833222
   0.65525616  0.89231668  0.07211484
   0.31640628  0.89629069  0.05087051
   0.22409477  0.72133763  0.09836821
   0.47266215  0.90527496  0.09250448
   0.56598635  0.07936480  0.10860514
   0.38424825  0.76192055  0.16222886
   0.15335793  0.89092141  0.05220168
   0.98792200  0.43971857  0.24702921
   0.89999957  0.26854310  0.19575097
   0.15784774  0.43340784  0.24263343
   0.14789698  0.14323533  0.07953937
   0.98646765  0.10707802  0.13627191
   0.22907485  0.31477026  0.12436700
   0.06763769  0.28590131  0.16903985
   0.82286286  0.45373699  0.21015837
   0.48459549  0.44511793  0.25158564
   0.39496376  0.27341103  0.20550564
   0.65950524  0.42906515  0.25650919
   0.64483415  0.14465345  0.09195408
   0.48292806  0.10990974  0.15007341
   0.72627345  0.31780963  0.13260870
   0.56402495  0.29031258  0.17789701
   0.31777142  0.46029537  0.20228924
   0.73528153  0.94690556  0.03985516
   0.64866562  0.77824017  0.09864955
   0.90550323  0.93559990  0.03144479
   0.90752916  0.63746587  0.18870233
   0.73593045  0.61517866  0.15782287
   0.98477944  0.81101943  0.14175254
   0.81957873  0.78605293  0.10850620
   0.56773616  0.95925961  0.08207113
   0.23490178  0.94797345  0.02622710
   0.14516709  0.77178670  0.06665939
   0.40724708  0.93574929  0.03218918
   0.37655102  0.65901758  0.20816142
   0.23164763  0.60708702  0.12637546
   0.46058864  0.83531552  0.16452819
   0.30961753  0.79270644  0.10540652
   0.06925157  0.95772991  0.06447149
   0.58573110  0.80376825  0.27611331
   0.67500292  0.60688586  0.31008468
   0.49001911  0.61306335  0.30910587
slab_Cel1-OPT                           
           1
    13.693906    0.000000    0.000000
     0.000000   11.168403    0.000000
     0.000000    0.000000   15.000000
   C    N    Au   Pd
    24    32     1     2
Direct configuration=    12
   0.07026523  0.38899594  0.22248140
   0.98144479  0.21794736  0.16799117
   0.22833423  0.39612026  0.18873545
   0.82326563  0.57685751  0.18671519
   0.14975517  0.24635206  0.12232438
   0.90736225  0.38440887  0.21806626
   0.56904775  0.39094595  0.23207190
   0.47658947  0.22165119  0.17913449
   0.73075475  0.39491909  0.19852400
   0.30828670  0.58184618  0.17838992
   0.64679064  0.24981665  0.13157309
   0.40203239  0.39183872  0.22045653
   0.81939946  0.89237173  0.05715004
   0.73195228  0.72380267  0.11926142
   0.98008054  0.89540548  0.07973392
   0.06837612  0.07734172  0.09360984
   0.90556429  0.74307022  0.14845145
   0.65484480  0.89184166  0.07145028
   0.31638387  0.89606644  0.05048334
   0.22425485  0.72099377  0.09803773
   0.47276816  0.90496637  0.09254891
   0.56601907  0.07855448  0.10811182
   0.38420869  0.76199482  0.16228983
   0.15306678  0.89105349  0.05173603
   0.98762974  0.43980123  0.24708475
   0.89986530  0.26857049  0.19595475
   0.15802439  0.43338155  0.24274019
   0.14779298  0.14298676  0.07927857
   0.98645720  0.10678975  0.13625670
   0.22915073  0.31497643  0.12426988
   0.06755055  0.28581708  0.16899479
   0.82283488  0.45362756  0.21032260
   0.48448303  0.44553334  0.25176495
   0.39489875  0.27376407  0.20564774
   0.65958950  0.42913813  0.25672244
   0.64481016  0.14453760  0.09157913
   0.48297174  0.10944149  0.14990833
   0.72634195  0.31812460  0.13243269
   0.56389046  0.29043554  0.17775923
   0.31798766  0.46037006  0.20220749
   0.73487619  0.94673147  0.04021314
   0.64828731  0.77766892  0.09728426
   0.90578738  0.93554617  0.03127618
   0.90727816  0.63733202  0.18898601
   0.73564506  0.61506889  0.15743240
   0.98489281  0.81124338  0.14181717
   0.81933768  0.78638075  0.10861844
   0.56766092  0.95875850  0.08147800
   0.23476901  0.94832334  0.02593762
   0.14484525  0.77173714  0.06610693
   0.40716877  0.93521308  0.03212602
   0.37688165  0.65891379  0.20835029
   0.23164646  0.60716299  0.12635866
   0.46095751  0.83547193  0.16447823
   0.30948866  0.79253838  0.10489804
   0.06921957  0.95788014  0.06427109
   0.58673487  0.80620026  0.28066807
   0.67540915  0.60716362  0.31114521
   0.49114756  0.61329632  0.30947925
slab_Cel1-OPT                           
           1
    13.664066    0.000000    0.000000
     0.000000   11.141299    0.000000
     0.000000    0.000000   15.000000
   C    N    Au   Pd