       N       E                     dE             d eps       ncg     rms          rms(c)
DAV:   1     0.249893338124E+04    0.24989E+04   -0.10506E+05  1608   0.105E+03
DAV:   2    -0.444364631971E+02   -0.25434E+04   -0.24373E+04  1984   0.291E+02
DAV:   3    -0.494286721083E+03   -0.44985E+03   -0.44552E+03  1680   0.133E+02
DAV:   4    -0.509364469245E+03   -0.15078E+02   -0.14659E+02  1608   0.278E+01
DAV:   5    -0.509963916519E+03   -0.59945E+00   -0.59221E+00  1920   0.448E+00    0.442E+01
DAV:   6    -0.481684238317E+03    0.28280E+02   -0.12473E+02  1592   0.319E+01    0.317E+01
DAV:   7    -0.477192166857E+03    0.44921E+01   -0.23752E+01  1560   0.211E+01    0.158E+01
DAV:   8    -0.475862416091E+03    0.13298E+01   -0.46762E+00  1616   0.839E+00    0.648E+00
DAV:   9    -0.475676266256E+03    0.18615E+00   -0.17893E+00  1632   0.455E+00    0.178E+00
DAV:  10    -0.475662784985E+03    0.13481E-01   -0.23024E-01  1624   0.153E+00    0.792E-01
DAV:  11    -0.475664008865E+03   -0.12239E-02   -0.49230E-02  1576   0.615E-01    0.441E-01
DAV:  12    -0.475667526987E+03   -0.35181E-02   -0.90012E-03  1576   0.268E-01    0.183E-01
DAV:  13    -0.475672112070E+03   -0.45851E-02   -0.30496E-03  1560   0.158E-01    0.127E-01
DAV:  14    -0.475677597327E+03   -0.54853E-02   -0.22209E-03  1568   0.118E-01    0.782E-02
DAV:  15    -0.475683888018E+03   -0.62907E-02   -0.17325E-03  1600   0.849E-02    0.542E-02
DAV:  16    -0.475688619033E+03   -0.47310E-02   -0.77530E-04  1616   0.532E-02    0.419E-02
DAV:  17    -0.475691409159E+03   -0.27901E-02   -0.33340E-04  1488   0.411E-02    0.240E-02
DAV:  18    -0.475692983382E+03   -0.15742E-02   -0.16572E-04  1432   0.308E-02    0.147E-02
DAV:  19    -0.475694320099E+03   -0.13367E-02   -0.22185E-04  1448   0.490E-02    0.176E-02
DAV:  20    -0.475694430012E+03   -0.10991E-03   -0.64120E-05  1400   0.203E-02    0.211E-02
DAV:  21    -0.475694467495E+03   -0.37483E-04   -0.57851E-06   968   0.112E-02    0.240E-02
DAV:  22    -0.475695123595E+03   -0.65610E-03   -0.42535E-05  1288   0.123E-02    0.261E-02
DAV:  23    -0.475695480983E+03   -0.35739E-03   -0.19424E-05  1104   0.917E-03    0.247E-02
DAV:  24    -0.475695705992E+03   -0.22501E-03   -0.21524E-05  1088   0.119E-02    0.232E-02
DAV:  25    -0.475695794693E+03   -0.88700E-04   -0.16802E-05  1072   0.150E-02    0.183E-02
DAV:  26    -0.475695814065E+03   -0.19373E-04   -0.14751E-05  1008   0.143E-02    0.145E-02
DAV:  27    -0.475695816360E+03   -0.22949E-05   -0.77085E-06   992   0.933E-03
   1 F= -.47569582E+03 E0= -.47566225E+03  d E =-.475696E+03
       N       E                     dE             d eps       ncg     rms          rms(c)
DAV:   1    -0.476594001042E+03   -0.89819E+00   -0.67534E+01  1408   0.160E+01    0.300E+00
DAV:   2    -0.476621342760E+03   -0.27342E-01   -0.59749E-01  1608   0.236E+00    0.264E+00
DAV:   3    -0.476617919464E+03    0.34233E-02   -0.49694E-02  1624   0.832E-01    0.129E+00
DAV:   4    -0.476616077235E+03    0.18422E-02   -0.21742E-02  1552   0.523E-01    0.293E-01
DAV:   5    -0.476615765744E+03    0.31149E-03   -0.27671E-03  1552   0.182E-01    0.101E-01
DAV:   6    -0.476615751293E+03    0.14451E-04   -0.54466E-04  1640   0.640E-02    0.341E-02
DAV:   7    -0.476615760273E+03   -0.89800E-05   -0.61000E-05  1488   0.270E-02
   2 F= -.47661576E+03 E0= -.47658278E+03  d E =-.919944E+00
       N       E                     dE             d eps       ncg     rms          rms(c)
DAV:   1    -0.477210741161E+03   -0.59499E+00   -0.41411E+02  1408   0.393E+01    0.525E+00
DAV:   2    -0.477429328442E+03   -0.21859E+00   -0.39616E+00  1616   0.581E+00    0.503E+00
DAV:   3    -0.477414243499E+03    0.15085E-01   -0.23147E-01  1656   0.153E+00    0.320E+00
DAV:   4    -0.477397334596E+03    0.16909E-01   -0.14968E-01  1560   0.106E+00    0.918E-01
DAV:   5    -0.477394430364E+03    0.29042E-02   -0.17906E-02  1552   0.421E-01    0.377E-01
DAV:   6    -0.477393767587E+03    0.66278E-03   -0.35479E-03  1648   0.181E-01    0.114E-01
DAV:   7    -0.477393733172E+03    0.34415E-04   -0.60537E-04  1632   0.727E-02    0.578E-02
DAV:   8    -0.477393780817E+03   -0.47645E-04   -0.22909E-04  1576   0.400E-02    0.204E-02
DAV:   9    -0.477393820884E+03   -0.40067E-04   -0.26757E-05  1024   0.156E-02    0.103E-02
DAV:  10    -0.477393875526E+03   -0.54642E-04   -0.83420E-06  1008   0.731E-03    0.527E-03
DAV:  11    -0.477393920211E+03   -0.44685E-04   -0.41486E-06   984   0.523E-03    0.297E-03
DAV:  12    -0.477393942101E+03   -0.21890E-04   -0.18320E-06   944   0.296E-03    0.173E-03
DAV:  13    -0.477393966348E+03   -0.24247E-04   -0.17995E-06  1008   0.220E-03    0.144E-03
DAV:  14    -0.477393988523E+03   -0.22176E-04   -0.19447E-06   960   0.188E-03    0.949E-04
DAV:  15    -0.477393997328E+03   -0.88046E-05   -0.74904E-07   936   0.134E-03
   3 F= -.47739400E+03 E0= -.47736160E+03  d E =-.169818E+01
       N       E                     dE             d eps       ncg     rms          rms(c)
DAV:   1    -0.477831253532E+03   -0.43727E+00   -0.70593E+01  1408   0.177E+01    0.198E+00
DAV:   2    -0.477888339339E+03   -0.57086E-01   -0.88476E-01  1592   0.267E+00    0.949E-01
DAV:   3    -0.477881158648E+03    0.71807E-02   -0.55707E-02  1616   0.728E-01    0.661E-01
DAV:   4    -0.477879379626E+03    0.17790E-02   -0.19211E-02  1616   0.381E-01    0.250E-01
DAV:   5    -0.477879000705E+03    0.37892E-03   -0.27393E-03  1624   0.205E-01    0.144E-01
DAV:   6    -0.477879058804E+03   -0.58099E-04   -0.91494E-04  1584   0.778E-02    0.568E-02
DAV:   7    -0.477879090767E+03   -0.31963E-04   -0.17448E-04  1528   0.346E-02    0.325E-02
DAV:   8    -0.477879127393E+03   -0.36625E-04   -0.44400E-05  1256   0.165E-02    0.132E-02
DAV:   9    -0.477879157729E+03   -0.30336E-04   -0.97353E-06  1000   0.101E-02    0.529E-03
DAV:  10    -0.477879185338E+03   -0.27609E-04   -0.46263E-06   960   0.556E-03    0.376E-03
DAV:  11    -0.477879209178E+03   -0.23841E-04   -0.23098E-06   976   0.366E-03    0.226E-03
DAV:  12    -0.477879229132E+03   -0.19954E-04   -0.20264E-06   928   0.292E-03    0.144E-03
DAV:  13    -0.477879241670E+03   -0.12538E-04   -0.11012E-06   976   0.194E-03    0.103E-03
DAV:  14    -0.477879251893E+03   -0.10224E-04   -0.91955E-07   944   0.153E-03    0.694E-04
DAV:  15    -0.477879255857E+03   -0.39644E-05   -0.43616E-07   976   0.112E-03
   4 F= -.47787926E+03 E0= -.47784612E+03  d E =-.485259E+00
       N       E                     dE             d eps       ncg     rms          rms(c)
DAV:   1    -0.477969801343E+03   -0.90549E-01   -0.45431E+01  1408   0.141E+01    0.156E+00
DAV:   2    -0.478006336487E+03   -0.36535E-01   -0.55206E-01  1600   0.211E+00    0.732E-01
DAV:   3    -0.478001951384E+03    0.43851E-02   -0.31318E-02  1608   0.552E-01    0.507E-01
DAV:   4    -0.478000846982E+03    0.11044E-02   -0.11467E-02  1608   0.296E-01    0.181E-01
DAV:   5    -0.478000627430E+03    0.21955E-03   -0.13257E-03  1640   0.153E-01    0.107E-01
DAV:   6    -0.478000668895E+03   -0.41465E-04   -0.48444E-04  1592   0.576E-02    0.417E-02
DAV:   7    -0.478000689242E+03   -0.20347E-04   -0.10303E-04  1528   0.259E-02    0.236E-02
DAV:   8    -0.478000712505E+03   -0.23263E-04   -0.25794E-05  1016   0.126E-02    0.977E-03
DAV:   9    -0.478000732635E+03   -0.20130E-04   -0.69499E-06   976   0.794E-03    0.420E-03
DAV:  10    -0.478000751183E+03   -0.18548E-04   -0.32012E-06   928   0.450E-03    0.313E-03
DAV:  11    -0.478000767704E+03   -0.16521E-04   -0.17085E-06   944   0.301E-03    0.188E-03
DAV:  12    -0.478000781074E+03   -0.13370E-04   -0.15363E-06   928   0.241E-03    0.120E-03
DAV:  13    -0.478000789526E+03   -0.84522E-05   -0.81280E-07   960   0.161E-03
   5 F= -.47800079E+03 E0= -.47796708E+03  d E =-.606792E+00
       N       E                     dE             d eps       ncg     rms          rms(c)
DAV:   1    -0.478287017374E+03   -0.28624E+00   -0.92818E+01  1416   0.195E+01    0.201E+00
DAV:   2    -0.478344357644E+03   -0.57340E-01   -0.10055E+00  1632   0.274E+00    0.991E-01
DAV:   3    -0.478338611699E+03    0.57459E-02   -0.53801E-02  1704   0.659E-01    0.608E-01
DAV:   4    -0.478337068660E+03    0.15430E-02   -0.14373E-02  1624   0.363E-01    0.243E-01
DAV:   5    -0.478337094848E+03   -0.26188E-04   -0.30460E-03  1592   0.154E-01    0.126E-01
DAV:   6    -0.478337141513E+03   -0.46665E-04   -0.68849E-04  1536   0.678E-02    0.596E-02
DAV:   7    -0.478337207758E+03   -0.66245E-04   -0.11059E-04  1544   0.315E-02    0.234E-02
DAV:   8    -0.478337262518E+03   -0.54759E-04   -0.27779E-05  1160   0.163E-02    0.113E-02
DAV:   9    -0.478337307156E+03   -0.44638E-04   -0.10043E-05  1000   0.102E-02    0.447E-03
DAV:  10    -0.478337339498E+03   -0.32343E-04   -0.33181E-06   984   0.483E-03    0.285E-03
DAV:  11    -0.478337375252E+03   -0.35754E-04   -0.28451E-06   968   0.333E-03    0.176E-03
DAV:  12    -0.478337405050E+03   -0.29797E-04   -0.25658E-06  1008   0.263E-03    0.132E-03
DAV:  13    -0.478337424173E+03   -0.19124E-04   -0.15545E-06   968   0.209E-03    0.101E-03
DAV:  14    -0.478337438401E+03   -0.14228E-04   -0.17928E-06  1000   0.171E-03    0.627E-04
DAV:  15    -0.478337442815E+03   -0.44142E-05   -0.45869E-07   984   0.108E-03
   6 F= -.47833744E+03 E0= -.47830411E+03  d E =-.336653E+00
       N       E                     dE             d eps       ncg     rms          rms(c)
DAV:   1    -0.478380637761E+03   -0.43199E-01   -0.45587E+01  1416   0.136E+01    0.139E+00
DAV:   2    -0.478407907446E+03   -0.27270E-01   -0.48283E-01  1624   0.192E+00    0.650E-01
DAV:   3    -0.478405220427E+03    0.26870E-02   -0.26841E-02  1664   0.472E-01    0.418E-01
DAV:   4    -0.478404385408E+03    0.83502E-03   -0.74248E-03  1608   0.266E-01    0.165E-01
DAV:   5    -0.478404388257E+03   -0.28490E-05   -0.13814E-03  1592   0.106E-01    0.883E-02
DAV:   6    -0.478404412913E+03   -0.24656E-04   -0.31303E-04  1560   0.476E-02    0.425E-02
DAV:   7    -0.478404448668E+03   -0.35755E-04   -0.47790E-05  1376   0.224E-02    0.164E-02
DAV:   8    -0.478404481248E+03   -0.32581E-04   -0.12488E-05   992   0.112E-02    0.807E-03
DAV:   9    -0.478404508586E+03   -0.27338E-04   -0.54485E-06   952   0.756E-03    0.327E-03
DAV:  10    -0.478404528185E+03   -0.19598E-04   -0.23186E-06   952   0.362E-03    0.221E-03
DAV:  11    -0.478404549037E+03   -0.20853E-04   -0.16795E-06   920   0.271E-03    0.139E-03
DAV:  12    -0.478404565528E+03   -0.16491E-04   -0.15451E-06   984   0.198E-03    0.942E-04
DAV:  13    -0.478404576950E+03   -0.11422E-04   -0.10522E-06   944   0.158E-03    0.778E-04
DAV:  14    -0.478404585488E+03   -0.85379E-05   -0.99562E-07   952   0.133E-03
   7 F= -.47840459E+03 E0= -.47837147E+03  d E =-.403796E+00
       N       E                     dE             d eps       ncg     rms          rms(c)
DAV:   1    -0.478630876509E+03   -0.22630E+00   -0.78533E+01  1416   0.169E+01    0.143E+00
DAV:   2    -0.478683572978E+03   -0.52696E-01   -0.72641E-01  1640   0.222E+00    0.889E-01
DAV:   3    -0.478680886096E+03    0.26869E-02   -0.29542E-02  1632   0.510E-01    0.534E-01
DAV:   4    -0.478680413114E+03    0.47298E-03   -0.66724E-03  1608   0.236E-01    0.270E-01
DAV:   5    -0.478680465718E+03   -0.52604E-04   -0.14276E-03  1592   0.133E-01    0.654E-02
DAV:   6    -0.478680479393E+03   -0.13675E-04   -0.34823E-04  1600   0.580E-02    0.372E-02
DAV:   7    -0.478680495718E+03   -0.16326E-04   -0.67715E-05  1368   0.230E-02    0.192E-02
DAV:   8    -0.478680517865E+03   -0.22147E-04   -0.15280E-05   984   0.116E-02    0.687E-03
DAV:   9    -0.478680531724E+03   -0.13859E-04   -0.44084E-06   960   0.629E-03    0.340E-03
DAV:  10    -0.478680543860E+03   -0.12136E-04   -0.17421E-06   952   0.324E-03    0.179E-03
DAV:  11    -0.478680554913E+03   -0.11053E-04   -0.10109E-06   944   0.211E-03    0.110E-03
DAV:  12    -0.478680563017E+03   -0.81043E-05   -0.67782E-07   992   0.149E-03
   8 F= -.47868056E+03 E0= -.47864744E+03  d E =-.275978E+00
       N       E                     dE             d eps       ncg     rms          rms(c)
DAV:   1    -0.478680478977E+03    0.75936E-04   -0.25703E+02  1416   0.306E+01    0.245E+00
DAV:   2    -0.478867431335E+03   -0.18695E+00   -0.25441E+00  1632   0.409E+00    0.160E+00
DAV:   3    -0.478858608890E+03    0.88224E-02   -0.92494E-02  1632   0.951E-01    0.989E-01
DAV:   4    -0.478855927656E+03    0.26812E-02   -0.22445E-02  1624   0.425E-01    0.580E-01
DAV:   5    -0.478855721055E+03    0.20660E-03   -0.46774E-03  1576   0.281E-01    0.132E-01
DAV:   6    -0.478855820993E+03   -0.99938E-04   -0.11045E-03  1616   0.939E-02    0.810E-02
DAV:   7    -0.478855875970E+03   -0.54977E-04   -0.19246E-04  1592   0.420E-02    0.362E-02
DAV:   8    -0.478855938947E+03   -0.62977E-04   -0.72140E-05  1440   0.244E-02    0.146E-02
DAV:   9    -0.478855983225E+03   -0.44278E-04   -0.18198E-05  1032   0.128E-02    0.854E-03
DAV:  10    -0.478856033646E+03   -0.50420E-04   -0.71465E-06  1016   0.767E-03    0.372E-03
DAV:  11    -0.478856070530E+03   -0.36885E-04   -0.36197E-06  1016   0.419E-03    0.257E-03
DAV:  12    -0.478856105439E+03   -0.34909E-04   -0.29154E-06  1056   0.393E-03    0.178E-03
DAV:  13    -0.478856130174E+03   -0.24735E-04   -0.28610E-06  1024   0.283E-03    0.111E-03
DAV:  14    -0.478856146572E+03   -0.16398E-04   -0.16384E-06  1032   0.212E-03    0.902E-04
DAV:  15    -0.478856152582E+03   -0.60101E-05   -0.84990E-07   976   0.144E-03
   9 F= -.47885615E+03 E0= -.47882321E+03  d E =-.451567E+00
       N       E                     dE             d eps       ncg     rms          rms(c)
DAV:   1    -0.478961277956E+03   -0.10513E+00   -0.11611E+02  1408   0.213E+01    0.170E+00
DAV:   2    -0.479049959502E+03   -0.88682E-01   -0.11841E+00  1616   0.298E+00    0.905E-01
DAV:   3    -0.479044970150E+03    0.49894E-02   -0.49684E-02  1656   0.666E-01    0.575E-01
DAV:   4    -0.479043240901E+03    0.17292E-02   -0.11722E-02  1632   0.326E-01    0.301E-01
DAV:   5    -0.479042957066E+03    0.28384E-03   -0.19616E-03  1624   0.171E-01    0.958E-02
DAV:   6    -0.479043029762E+03   -0.72696E-04   -0.53297E-04  1592   0.778E-02    0.504E-02
DAV:   7    -0.479043076469E+03   -0.46708E-04   -0.66960E-05  1320   0.272E-02    0.289E-02
DAV:   8    -0.479043149454E+03   -0.72985E-04   -0.33639E-05  1248   0.171E-02    0.886E-03
DAV:   9    -0.479043184193E+03   -0.34739E-04   -0.89587E-06  1016   0.956E-03    0.506E-03
DAV:  10    -0.479043224898E+03   -0.40705E-04   -0.52220E-06  1000   0.554E-03    0.332E-03
DAV:  11    -0.479043259548E+03   -0.34650E-04   -0.31381E-06  1008   0.349E-03    0.225E-03
DAV:  12    -0.479043283800E+03   -0.24252E-04   -0.21117E-06   984   0.309E-03    0.171E-03
DAV:  13    -0.479043300957E+03   -0.17157E-04   -0.23629E-06   984   0.229E-03    0.926E-04
DAV:  14    -0.479043311221E+03   -0.10264E-04   -0.96844E-07   960   0.165E-03    0.541E-04
DAV:  15    -0.479043315192E+03   -0.39714E-05   -0.47011E-07   976   0.106E-03
  10 F= -.47904332E+03 E0= -.47901032E+03  d E =-.187163E+00
       N       E                     dE             d eps       ncg     rms          rms(c)
DAV:   1    -0.479044162529E+03   -0.85131E-03   -0.12114E+00  1408   0.218E+00    0.172E-01
DAV:   2    -0.479045032234E+03   -0.86971E-03   -0.11831E-02  1608   0.304E-01    0.852E-02
DAV:   3    -0.479044984956E+03    0.47278E-04   -0.54244E-04  1648   0.675E-02    0.568E-02
DAV:   4    -0.479044967395E+03    0.17561E-04   -0.12406E-04  1608   0.356E-02    0.276E-02
DAV:   5    -0.479044965226E+03    0.21692E-05   -0.18907E-05  1072   0.150E-02
  11 F= -.47904497E+03 E0= -.47901196E+03  d E =-.188813E+00
       N       E                     dE             d eps       ncg     rms          rms(c)
DAV:   1    -0.479105394453E+03   -0.60427E-01   -0.16765E+01  1408   0.907E+00    0.716E-01
DAV:   2    -0.479118198446E+03   -0.12804E-01   -0.20094E-01  1664   0.129E+00    0.357E-01
DAV:   3    -0.479117424058E+03    0.77439E-03   -0.12156E-02  1632   0.319E-01    0.241E-01
DAV:   4    -0.479117147123E+03    0.27693E-03   -0.20382E-03  1648   0.156E-01    0.141E-01
DAV:   5    -0.479117113842E+03    0.33281E-04   -0.41455E-04  1608   0.614E-02    0.487E-02
DAV:   6    -0.479117120833E+03   -0.69910E-05   -0.96895E-05  1648   0.359E-02
  12 F= -.47911712E+03 E0= -.47908374E+03  d E =-.721556E-01
       N       E                     dE             d eps       ncg     rms          rms(c)
DAV:   1    -0.479124598100E+03   -0.74843E-02   -0.55420E+00  1408   0.521E+00    0.415E-01
DAV:   2    -0.479128861165E+03   -0.42631E-02   -0.66526E-02  1656   0.743E-01    0.206E-01
DAV:   3    -0.479128615789E+03    0.24538E-03   -0.40071E-03  1624   0.184E-01    0.139E-01
DAV:   4    -0.479128517071E+03    0.98718E-04   -0.68257E-04  1656   0.914E-02    0.812E-02
DAV:   5    -0.479128510075E+03    0.69955E-05   -0.13779E-04  1584   0.356E-02    0.282E-02
DAV:   6    -0.479128517489E+03   -0.74138E-05   -0.28052E-05  1096   0.211E-02
  13 F= -.47912852E+03 E0= -.47909492E+03  d E =-.835523E-01
       N       E                     dE             d eps       ncg     rms          rms(c)
DAV:   1    -0.479176997985E+03   -0.48488E-01   -0.20113E+01  1416   0.100E+01    0.690E-01
DAV:   2    -0.479196479872E+03   -0.19482E-01   -0.24072E-01  1616   0.132E+00    0.400E-01
DAV:   3    -0.479195431788E+03    0.10481E-02   -0.96023E-03  1616   0.293E-01    0.266E-01
DAV:   4    -0.479195118414E+03    0.31337E-03   -0.30089E-03  1600   0.165E-01    0.145E-01
DAV:   5    -0.479195121631E+03   -0.32171E-05   -0.98340E-04  1640   0.865E-02    0.493E-02
DAV:   6    -0.479195143775E+03   -0.22144E-04   -0.19866E-04  1608   0.442E-02    0.266E-02
DAV:   7    -0.479195157772E+03   -0.13996E-04   -0.32172E-05  1128   0.178E-02    0.145E-02
DAV:   8    -0.479195175882E+03   -0.18110E-04   -0.89639E-06   960   0.111E-02    0.631E-03
DAV:   9    -0.479195192502E+03   -0.16620E-04   -0.51891E-06   960   0.725E-03    0.329E-03
DAV:  10    -0.479195204587E+03   -0.12085E-04   -0.18359E-06   984   0.374E-03    0.238E-03
DAV:  11    -0.479195219226E+03   -0.14639E-04   -0.15488E-06   944   0.314E-03    0.116E-03
DAV:  12    -0.479195230129E+03   -0.10903E-04   -0.12535E-06  1000   0.207E-03    0.952E-04
DAV:  13    -0.479195238546E+03   -0.84176E-05   -0.88395E-07   944   0.163E-03
  14 F= -.47919524E+03 E0= -.47916145E+03  d E =-.667211E-01
       N       E                     dE             d eps       ncg     rms          rms(c)
DAV:   1    -0.479199572168E+03   -0.43420E-02   -0.19539E+01  1432   0.989E+00    0.680E-01
DAV:   2    -0.479218351606E+03   -0.18779E-01   -0.23250E-01  1608   0.130E+00    0.393E-01
DAV:   3    -0.479217310093E+03    0.10415E-02   -0.93682E-03  1608   0.289E-01    0.261E-01
DAV:   4    -0.479217014084E+03    0.29601E-03   -0.30209E-03  1600   0.164E-01    0.145E-01
DAV:   5    -0.479217000363E+03    0.13721E-04   -0.10562E-03  1632   0.888E-02    0.494E-02
DAV:   6    -0.479217015662E+03   -0.15298E-04   -0.21152E-04  1608   0.452E-02    0.261E-02
DAV:   7    -0.479217025365E+03   -0.97030E-05   -0.33034E-05  1152   0.180E-02
  15 F= -.47921703E+03 E0= -.47918303E+03  d E =-.885079E-01
       N       E                     dE             d eps       ncg     rms          rms(c)
DAV:   1    -0.479253008752E+03   -0.35993E-01   -0.16084E+01  1424   0.921E+00    0.610E-01
DAV:   2    -0.479267884030E+03   -0.14875E-01   -0.19613E-01  1600   0.120E+00    0.369E-01
DAV:   3    -0.479267204441E+03    0.67959E-03   -0.10798E-02  1616   0.304E-01    0.243E-01
DAV:   4    -0.479267035333E+03    0.16911E-03   -0.20684E-03  1632   0.138E-01    0.142E-01
DAV:   5    -0.479267076408E+03   -0.41075E-04   -0.72233E-04  1616   0.790E-02    0.525E-02
DAV:   6    -0.479267106784E+03   -0.30376E-04   -0.19225E-04  1616   0.393E-02    0.201E-02
DAV:   7    -0.479267113952E+03   -0.71676E-05   -0.34580E-05  1080   0.164E-02
  16 F= -.47926711E+03 E0= -.47923354E+03  d E =-.500886E-01
       N       E                     dE             d eps       ncg     rms          rms(c)
DAV:   1    -0.479271089202E+03   -0.39824E-02   -0.11378E+01  1424   0.775E+00    0.512E-01
DAV:   2    -0.479281564401E+03   -0.10475E-01   -0.13865E-01  1600   0.101E+00    0.308E-01
DAV:   3    -0.479281100284E+03    0.46412E-03   -0.75367E-03  1624   0.255E-01    0.203E-01
DAV:   4    -0.479280986884E+03    0.11340E-03   -0.14271E-03  1640   0.114E-01    0.118E-01
DAV:   5    -0.479281022131E+03   -0.35247E-04   -0.47051E-04  1608   0.639E-02    0.429E-02
DAV:   6    -0.479281044697E+03   -0.22566E-04   -0.13441E-04  1584   0.323E-02    0.167E-02
DAV:   7    -0.479281052264E+03   -0.75669E-05   -0.24021E-05  1008   0.137E-02
  17 F= -.47928105E+03 E0= -.47924785E+03  d E =-.640269E-01
       N       E                     dE             d eps       ncg     rms          rms(c)
DAV:   1    -0.479304297214E+03   -0.23253E-01   -0.87033E+00  1416   0.701E+00    0.502E-01
DAV:   2    -0.479313379130E+03   -0.90819E-02   -0.11920E-01  1624   0.924E-01    0.296E-01
DAV:   3    -0.479312909417E+03    0.46971E-03   -0.54731E-03  1632   0.219E-01    0.195E-01
DAV:   4    -0.479312764965E+03    0.14445E-03   -0.11573E-03  1624   0.105E-01    0.107E-01
DAV:   5    -0.479312770162E+03   -0.51964E-05   -0.28360E-04  1616   0.587E-02    0.317E-02
DAV:   6    -0.479312781762E+03   -0.11600E-04   -0.10052E-04  1544   0.286E-02    0.183E-02
DAV:   7    -0.479312784877E+03   -0.31149E-05   -0.15018E-05   976   0.115E-02
  18 F= -.47931278E+03 E0= -.47927962E+03  d E =-.317326E-01
       N       E                     dE             d eps       ncg     rms          rms(c)
DAV:   1    -0.479315635233E+03   -0.28535E-02   -0.43352E+00  1408   0.495E+00    0.352E-01
DAV:   2    -0.479320215646E+03   -0.45804E-02   -0.59947E-02  1624   0.654E-01    0.208E-01
DAV:   3    -0.479319976685E+03    0.23896E-03   -0.27275E-03  1624   0.154E-01    0.138E-01
DAV:   4    -0.479319900100E+03    0.76586E-04   -0.58168E-04  1624   0.746E-02    0.759E-02
DAV:   5    -0.479319902396E+03   -0.22962E-05   -0.14260E-04  1616   0.414E-02    0.224E-02
DAV:   6    -0.479319909395E+03   -0.69994E-05   -0.47887E-05  1280   0.202E-02
  19 F= -.47931991E+03 E0= -.47928676E+03  d E =-.388571E-01
       N       E                     dE             d eps       ncg     rms          rms(c)
DAV:   1    -0.479337714076E+03   -0.17812E-01   -0.77494E+00  1408   0.669E+00    0.455E-01
DAV:   2    -0.479345431991E+03   -0.77179E-02   -0.10235E-01  1608   0.858E-01    0.271E-01
DAV:   3    -0.479345173545E+03    0.25845E-03   -0.54835E-03  1624   0.212E-01    0.177E-01
DAV:   4    -0.479345086319E+03    0.87226E-04   -0.95785E-04  1640   0.909E-02    0.103E-01
DAV:   5    -0.479345098711E+03   -0.12392E-04   -0.33886E-04  1616   0.503E-02    0.325E-02
DAV:   6    -0.479345108294E+03   -0.95837E-05   -0.88606E-05  1448   0.268E-02
  20 F= -.47934511E+03 E0= -.47931212E+03  d E =-.251989E-01
       N       E                     dE             d eps       ncg     rms          rms(c)
DAV:   1    -0.479346622399E+03   -0.15237E-02   -0.52598E+00  1408   0.551E+00    0.375E-01
DAV:   2    -0.479351885253E+03   -0.52629E-02   -0.69429E-02  1616   0.706E-01    0.222E-01
DAV:   3    -0.479351705685E+03    0.17957E-03   -0.36767E-03  1600   0.174E-01    0.145E-01
DAV:   4    -0.479351649466E+03    0.56220E-04   -0.64511E-04  1648   0.746E-02    0.840E-02
DAV:   5    -0.479351661042E+03   -0.11576E-04   -0.22527E-04  1624   0.410E-02    0.263E-02
DAV:   6    -0.479351669664E+03   -0.86220E-05   -0.58128E-05  1112   0.217E-02
  21 F= -.47935167E+03 E0= -.47931879E+03  d E =-.317603E-01
       N       E                     dE             d eps       ncg     rms          rms(c)
DAV:   1    -0.479364663167E+03   -0.13002E-01   -0.98014E+00  1408   0.753E+00    0.556E-01
DAV:   2    -0.479373654594E+03   -0.89914E-02   -0.13682E-01  1584   0.999E-01    0.327E-01
DAV:   3    -0.479373150977E+03    0.50362E-03   -0.84401E-03  1632   0.252E-01    0.207E-01
DAV:   4    -0.479372945371E+03    0.20561E-03   -0.17341E-03  1624   0.120E-01    0.106E-01
DAV:   5    -0.479372970979E+03   -0.25608E-04   -0.47237E-04  1624   0.588E-02    0.391E-02
DAV:   6    -0.479372985751E+03   -0.14772E-04   -0.82717E-05  1552   0.261E-02    0.173E-02
DAV:   7    -0.479372994982E+03   -0.92311E-05   -0.14952E-05   960   0.116E-02
  22 F= -.47937299E+03 E0= -.47934042E+03  d E =-.213253E-01
       N       E                     dE             d eps       ncg     rms          rms(c)
DAV:   1    -0.479373757551E+03   -0.77180E-03   -0.23467E+00  1408   0.369E+00    0.270E-01
DAV:   2    -0.479375905101E+03   -0.21475E-02   -0.32665E-02  1584   0.489E-01    0.161E-01
DAV:   3    -0.479375783839E+03    0.12126E-03   -0.20248E-03  1648   0.123E-01    0.101E-01
DAV:   4    -0.479375733841E+03    0.49998E-04   -0.41630E-04  1632   0.591E-02    0.511E-02
DAV:   5    -0.479375741040E+03   -0.71996E-05   -0.10938E-04  1576   0.284E-02    0.190E-02
DAV:   6    -0.479375749907E+03   -0.88667E-05   -0.17599E-05   968   0.126E-02
  23 F= -.47937575E+03 E0= -.47934333E+03  d E =-.240802E-01
       N       E                     dE             d eps       ncg     rms          rms(c)
DAV:   1    -0.479386845301E+03   -0.11104E-01   -0.11617E+01  1408   0.817E+00    0.620E-01
DAV:   2    -0.479396829586E+03   -0.99843E-02   -0.15414E-01  1600   0.107E+00    0.340E-01
DAV:   3    -0.479396400010E+03    0.42958E-03   -0.74800E-03  1688   0.238E-01    0.214E-01
DAV:   4    -0.479396184920E+03    0.21509E-03   -0.15934E-03  1616   0.131E-01    0.990E-02
DAV:   5    -0.479396220978E+03   -0.36059E-04   -0.33683E-04  1608   0.534E-02    0.345E-02
DAV:   6    -0.479396233597E+03   -0.12619E-04   -0.65344E-05  1424   0.243E-02    0.176E-02
DAV:   7    -0.479396243226E+03   -0.96286E-05   -0.14015E-05   968   0.111E-02
  24 F= -.47939624E+03 E0= -.47936384E+03  d E =-.204933E-01
       N       E                     dE             d eps       ncg     rms          rms(c)
DAV:   1    -0.479396468390E+03   -0.23479E-03   -0.31207E+00  1408   0.424E+00    0.319E-01
DAV:   2    -0.479399128875E+03   -0.26605E-02   -0.41284E-02  1600   0.554E-01    0.177E-01
DAV:   3    -0.479399012576E+03    0.11630E-03   -0.20162E-03  1688   0.124E-01    0.111E-01
DAV:   4    -0.479398954311E+03    0.58265E-04   -0.44400E-04  1632   0.691E-02    0.505E-02
DAV:   5    -0.479398970351E+03   -0.16040E-04   -0.91914E-05  1568   0.279E-02    0.179E-02
DAV:   6    -0.479398974178E+03   -0.38265E-05   -0.15285E-05   952   0.127E-02
  25 F= -.47939897E+03 E0= -.47936659E+03  d E =-.232243E-01
       N       E                     dE             d eps       ncg     rms          rms(c)
DAV:   1    -0.479406430830E+03   -0.74605E-02   -0.10866E+01  1408   0.788E+00    0.556E-01
DAV:   2    -0.479417137278E+03   -0.10706E-01   -0.14415E-01  1608   0.101E+00    0.323E-01
DAV:   3    -0.479416629648E+03    0.50763E-03   -0.61890E-03  1656   0.221E-01    0.206E-01
DAV:   4    -0.479416509176E+03    0.12047E-03   -0.16442E-03  1632   0.124E-01    0.976E-02
DAV:   5    -0.479416557213E+03   -0.48038E-04   -0.42581E-04  1608   0.554E-02    0.346E-02
DAV:   6    -0.479416575593E+03   -0.18380E-04   -0.79463E-05  1576   0.247E-02    0.181E-02
DAV:   7    -0.479416584788E+03   -0.91949E-05   -0.12954E-05   936   0.105E-02
  26 F= -.47941658E+03 E0= -.47938420E+03  d E =-.176106E-01
       N       E                     dE             d eps       ncg     rms          rms(c)
DAV:   1    -0.479416341295E+03    0.23430E-03   -0.30079E+00  1408   0.415E+00    0.290E-01
DAV:   2    -0.479419285450E+03   -0.29442E-02   -0.39834E-02  1616   0.531E-01    0.170E-01
DAV:   3    -0.479419142431E+03    0.14302E-03   -0.17079E-03  1656   0.117E-01    0.108E-01
DAV:   4    -0.479419113221E+03    0.29210E-04   -0.47171E-04  1640   0.659E-02    0.505E-02
DAV:   5    -0.479419131549E+03   -0.18328E-04   -0.11979E-04  1552   0.292E-02    0.183E-02
DAV:   6    -0.479419139942E+03   -0.83933E-05   -0.20231E-05   984   0.130E-02
  27 F= -.47941914E+03 E0= -.47938678E+03  d E =-.201658E-01
       N       E                     dE             d eps       ncg     rms          rms(c)
DAV:   1    -0.479424849672E+03   -0.57181E-02   -0.70520E+00  1424   0.636E+00    0.423E-01
DAV:   2    -0.479431547521E+03   -0.66978E-02   -0.91153E-02  1600   0.803E-01    0.260E-01
DAV:   3    -0.479431260418E+03    0.28710E-03   -0.41548E-03  1704   0.179E-01    0.168E-01
DAV:   4    -0.479431221631E+03    0.38787E-04   -0.78198E-04  1624   0.812E-02    0.817E-02
DAV:   5    -0.479431266676E+03   -0.45045E-04   -0.27485E-04  1648   0.449E-02    0.258E-02
DAV:   6    -0.479431275614E+03   -0.89384E-05   -0.63888E-05  1272   0.213E-02
  28 F= -.47943128E+03 E0= -.47939889E+03  d E =-.121357E-01
       N       E                     dE             d eps       ncg     rms          rms(c)
DAV:   1    -0.479431430131E+03   -0.16345E-03   -0.77427E-01  1424   0.211E+00    0.140E-01
DAV:   2    -0.479432172095E+03   -0.74196E-03   -0.10018E-02  1616   0.266E-01    0.857E-02
DAV:   3    -0.479432143426E+03    0.28669E-04   -0.44290E-04  1720   0.586E-02    0.548E-02
DAV:   4    -0.479432144884E+03   -0.14579E-05   -0.88323E-05  1600   0.272E-02
  29 F= -.47943214E+03 E0= -.47939975E+03  d E =-.130049E-01
       N       E                     dE             d eps       ncg     rms          rms(c)
DAV:   1    -0.479437945874E+03   -0.58024E-02   -0.66764E+00  1424   0.611E+00    0.408E-01
DAV:   2    -0.479443707349E+03   -0.57615E-02   -0.83072E-02  1592   0.774E-01    0.250E-01
DAV:   3    -0.479443477459E+03    0.22989E-03   -0.36899E-03  1696   0.167E-01    0.150E-01
DAV:   4    -0.479443430506E+03    0.46953E-04   -0.86056E-04  1632   0.924E-02    0.662E-02
DAV:   5    -0.479443470271E+03   -0.39765E-04   -0.17204E-04  1624   0.377E-02    0.244E-02
DAV:   6    -0.479443484447E+03   -0.14176E-04   -0.23515E-05  1064   0.155E-02    0.123E-02
DAV:   7    -0.479443494627E+03   -0.10180E-04   -0.65370E-06   968   0.839E-03    0.518E-03
DAV:   8    -0.479443502847E+03   -0.82195E-05   -0.24411E-06   976   0.489E-03
  30 F= -.47944350E+03 E0= -.47941132E+03  d E =-.113580E-01
       N       E                     dE             d eps       ncg     rms          rms(c)
DAV:   1    -0.479443463909E+03    0.30719E-04   -0.29613E+00  1424   0.407E+00    0.269E-01
DAV:   2    -0.479446009371E+03   -0.25455E-02   -0.36821E-02  1592   0.516E-01    0.166E-01
DAV:   3    -0.479445907724E+03    0.10165E-03   -0.16294E-03  1704   0.111E-01    0.998E-02
DAV:   4    -0.479445886118E+03    0.21606E-04   -0.38576E-04  1640   0.619E-02    0.434E-02
DAV:   5    -0.479445905195E+03   -0.19078E-04   -0.74636E-05  1496   0.252E-02    0.161E-02
DAV:   6    -0.479445913500E+03   -0.83044E-05   -0.10539E-05   968   0.105E-02
  31 F= -.47944591E+03 E0= -.47941387E+03  d E =-.137686E-01
       N       E                     dE             d eps       ncg     rms          rms(c)
DAV:   1    -0.479452105321E+03   -0.62001E-02   -0.55751E+00  1440   0.558E+00    0.373E-01
DAV:   2    -0.479456724377E+03   -0.46191E-02   -0.69303E-02  1576   0.712E-01    0.228E-01
DAV:   3    -0.479456561395E+03    0.16298E-03   -0.29102E-03  1672   0.147E-01    0.138E-01
DAV:   4    -0.479456538436E+03    0.22959E-04   -0.72689E-04  1600   0.872E-02    0.579E-02
DAV:   5    -0.479456572297E+03   -0.33861E-04   -0.16313E-04  1608   0.360E-02    0.219E-02
DAV:   6    -0.479456582997E+03   -0.10699E-04   -0.26036E-05  1000   0.148E-02    0.110E-02
DAV:   7    -0.479456590121E+03   -0.71238E-05   -0.83574E-06   968   0.804E-03
  32 F= -.47945659E+03 E0= -.47942474E+03  d E =-.106766E-01
       N       E                     dE             d eps       ncg     rms          rms(c)
DAV:   1    -0.479455725855E+03    0.85714E-03   -0.67130E+00  1440   0.613E+00    0.410E-01
DAV:   2    -0.479461256189E+03   -0.55303E-02   -0.83278E-02  1568   0.781E-01    0.251E-01
DAV:   3    -0.479461057201E+03    0.19899E-03   -0.35596E-03  1672   0.162E-01    0.151E-01
DAV:   4    -0.479461026456E+03    0.30745E-04   -0.87913E-04  1632   0.960E-02    0.637E-02
DAV:   5    -0.479461066149E+03   -0.39693E-04   -0.19646E-04  1568   0.397E-02    0.241E-02
DAV:   6    -0.479461078625E+03   -0.12476E-04   -0.33772E-05  1088   0.163E-02    0.124E-02
DAV:   7    -0.479461086546E+03   -0.79211E-05   -0.98722E-06   960   0.855E-03
  33 F= -.47946109E+03 E0= -.47942944E+03  d E =-.151730E-01
       N       E                     dE             d eps       ncg     rms          rms(c)
DAV:   1    -0.479464319650E+03   -0.32410E-02   -0.80386E+00  1440   0.675E+00    0.430E-01
DAV:   2    -0.479471724838E+03   -0.74052E-02   -0.10043E-01  1624   0.837E-01    0.269E-01
DAV:   3    -0.479471390159E+03    0.33468E-03   -0.39030E-03  1712   0.174E-01    0.169E-01
DAV:   4    -0.479471380749E+03    0.94103E-05   -0.94688E-04  1640   0.914E-02    0.764E-02
DAV:   5    -0.479471432924E+03   -0.52175E-04   -0.28633E-04  1648   0.450E-02    0.267E-02
DAV:   6    -0.479471445426E+03   -0.12502E-04   -0.60407E-05  1256   0.211E-02    0.139E-02
DAV:   7    -0.479471451311E+03   -0.58845E-05   -0.10034E-05   952   0.948E-03
  34 F= -.47947145E+03 E0= -.47943981E+03  d E =-.103648E-01
       N       E                     dE             d eps       ncg     rms          rms(c)
DAV:   1    -0.479470575933E+03    0.86949E-03   -0.29428E+00  1440   0.409E+00    0.258E-01
DAV:   2    -0.479473279846E+03   -0.27039E-02   -0.36719E-02  1624   0.506E-01    0.162E-01
DAV:   3    -0.479473159346E+03    0.12050E-03   -0.14153E-03  1680   0.105E-01    0.101E-01
DAV:   4    -0.479473157409E+03    0.19367E-05   -0.35522E-04  1648   0.562E-02    0.455E-02
DAV:   5    -0.479473178963E+03   -0.21553E-04   -0.10091E-04  1552   0.269E-02    0.161E-02
DAV:   6    -0.479473185423E+03   -0.64605E-05   -0.19843E-05   952   0.125E-02
  35 F= -.47947319E+03 E0= -.47944155E+03  d E =-.120989E-01
       N       E                     dE             d eps       ncg     rms          rms(c)
DAV:   1    -0.479472812003E+03    0.36696E-03   -0.92185E+00  1440   0.728E+00    0.443E-01
DAV:   2    -0.479481622449E+03   -0.88104E-02   -0.11426E-01  1616   0.890E-01    0.280E-01
DAV:   3    -0.479481295501E+03    0.32695E-03   -0.38570E-03  1712   0.173E-01    0.176E-01
DAV:   4    -0.479481302976E+03   -0.74749E-05   -0.94078E-04  1632   0.947E-02    0.707E-02
DAV:   5    -0.479481365161E+03   -0.62185E-04   -0.20252E-04  1664   0.456E-02    0.256E-02
DAV:   6    -0.479481378031E+03   -0.12870E-04   -0.36799E-05  1208   0.185E-02    0.139E-02
DAV:   7    -0.479481385524E+03   -0.74929E-05   -0.64476E-06   976   0.827E-03
  36 F= -.47948139E+03 E0= -.47944994E+03  d E =-.820010E-02
       N       E                     dE             d eps       ncg     rms          rms(c)
DAV:   1    -0.479481226565E+03    0.15147E-03   -0.56022E-01  1440   0.179E+00    0.107E-01
DAV:   2    -0.479481760670E+03   -0.53410E-03   -0.69384E-03  1616   0.220E-01    0.690E-02
DAV:   3    -0.479481740712E+03    0.19957E-04   -0.23365E-04  1728   0.427E-02    0.429E-02
DAV:   4    -0.479481745029E+03   -0.43171E-05   -0.60172E-05  1576   0.241E-02
  37 F= -.47948175E+03 E0= -.47945035E+03  d E =-.855961E-02
       N       E                     dE             d eps       ncg     rms          rms(c)
DAV:   1    -0.479483559869E+03   -0.18192E-02   -0.55392E+00  1440   0.565E+00    0.379E-01
DAV:   2    -0.479488405938E+03   -0.48461E-02   -0.71112E-02  1600   0.720E-01    0.227E-01
DAV:   3    -0.479488241277E+03    0.16466E-03   -0.29662E-03  1656   0.157E-01    0.138E-01
DAV:   4    -0.479488239910E+03    0.13667E-05   -0.78419E-04  1624   0.849E-02    0.627E-02
DAV:   5    -0.479488276189E+03   -0.36279E-04   -0.15648E-04  1560   0.361E-02    0.244E-02
DAV:   6    -0.479488288061E+03   -0.11871E-04   -0.32449E-05  1032   0.159E-02    0.118E-02
DAV:   7    -0.479488293493E+03   -0.54326E-05   -0.84905E-06   968   0.783E-03
  38 F= -.47948829E+03 E0= -.47945708E+03  d E =-.654846E-02
       N       E                     dE             d eps       ncg     rms          rms(c)
DAV:   1    -0.479488313548E+03   -0.25488E-04   -0.63983E-01  1440   0.192E+00    0.128E-01
DAV:   2    -0.479488874112E+03   -0.56056E-03   -0.82423E-03  1632   0.246E-01    0.771E-02
DAV:   3    -0.479488855159E+03    0.18953E-04   -0.34312E-04  1648   0.536E-02    0.473E-02
DAV:   4    -0.479488857930E+03   -0.27709E-05   -0.94478E-05  1624   0.294E-02
  39 F= -.47948886E+03 E0= -.47945770E+03  d E =-.711290E-02
       N       E                     dE             d eps       ncg     rms          rms(c)
DAV:   1    -0.479490818316E+03   -0.19632E-02   -0.55705E+00  1440   0.562E+00    0.390E-01
DAV:   2    -0.479495562867E+03   -0.47446E-02   -0.69957E-02  1616   0.716E-01    0.223E-01
DAV:   3    -0.479495374930E+03    0.18794E-03   -0.27072E-03  1680   0.150E-01    0.138E-01
DAV:   4    -0.479495357732E+03    0.17198E-04   -0.69460E-04  1632   0.864E-02    0.607E-02
DAV:   5    -0.479495385866E+03   -0.28134E-04   -0.12601E-04  1600   0.363E-02    0.227E-02
DAV:   6    -0.479495396412E+03   -0.10545E-04   -0.24090E-05  1008   0.155E-02    0.107E-02
DAV:   7    -0.479495401586E+03   -0.51746E-05   -0.63060E-06   952   0.792E-03
  40 F= -.47949540E+03 E0= -.47946428E+03  d E =-.654366E-02
       N       E                     dE             d eps       ncg     rms          rms(c)
DAV:   1    -0.479495372300E+03    0.24111E-04   -0.85051E-01  1440   0.220E+00    0.151E-01
DAV:   2    -0.479496096203E+03   -0.72390E-03   -0.10683E-02  1616   0.280E-01    0.868E-02
DAV:   3    -0.479496066498E+03    0.29704E-04   -0.41026E-04  1672   0.587E-02    0.536E-02
DAV:   4    -0.479496065429E+03    0.10698E-05   -0.10979E-04  1616   0.344E-02    0.231E-02
DAV:   5    -0.479496072098E+03   -0.66691E-05   -0.17675E-05  1016   0.142E-02
  41 F= -.47949607E+03 E0= -.47946497E+03  d E =-.721417E-02
       N       E                     dE             d eps       ncg     rms          rms(c)
DAV:   1    -0.479498391188E+03   -0.23258E-02   -0.41983E+00  1424   0.483E+00    0.316E-01
DAV:   2    -0.479502143861E+03   -0.37527E-02   -0.51215E-02  1584   0.598E-01    0.184E-01
DAV:   3    -0.479502004767E+03    0.13909E-03   -0.17360E-03  1704   0.119E-01    0.115E-01
DAV:   4    -0.479501998162E+03    0.66048E-05   -0.43737E-04  1648   0.662E-02    0.479E-02
DAV:   5    -0.479502019828E+03   -0.21666E-04   -0.75224E-05  1440   0.305E-02    0.179E-02
DAV:   6    -0.479502027396E+03   -0.75680E-05   -0.14559E-05   960   0.127E-02
  42 F= -.47950203E+03 E0= -.47947100E+03  d E =-.595530E-02
       N       E                     dE             d eps       ncg     rms          rms(c)
DAV:   1    -0.479499590083E+03    0.24297E-02   -0.57821E+00  1424   0.566E+00    0.372E-01
DAV:   2    -0.479504763196E+03   -0.51731E-02   -0.70742E-02  1576   0.703E-01    0.216E-01
DAV:   3    -0.479504574145E+03    0.18905E-03   -0.23911E-03  1712   0.139E-01    0.136E-01
DAV:   4    -0.479504563807E+03    0.10338E-04   -0.60161E-04  1648   0.776E-02    0.563E-02
DAV:   5    -0.479504594248E+03   -0.30440E-04   -0.10529E-04  1576   0.362E-02    0.210E-02
DAV:   6    -0.479504604930E+03   -0.10682E-04   -0.18689E-05   944   0.145E-02    0.990E-03
DAV:   7    -0.479504612138E+03   -0.72076E-05   -0.46650E-06   944   0.696E-03
  43 F= -.47950461E+03 E0= -.47947368E+03  d E =-.854004E-02
       N       E                     dE             d eps       ncg     rms          rms(c)
DAV:   1    -0.479505348109E+03   -0.74318E-03   -0.57209E+00  1408   0.561E+00    0.380E-01
DAV:   2    -0.479510326287E+03   -0.49782E-02   -0.71147E-02  1560   0.711E-01    0.218E-01
DAV:   3    -0.479510136010E+03    0.19028E-03   -0.28101E-03  1680   0.148E-01    0.135E-01
DAV:   4    -0.479510107631E+03    0.28379E-04   -0.69927E-04  1632   0.800E-02    0.583E-02
DAV:   5    -0.479510137959E+03   -0.30327E-04   -0.15898E-04  1584   0.363E-02    0.217E-02
DAV:   6    -0.479510148385E+03   -0.10426E-04   -0.27414E-05  1000   0.154E-02    0.106E-02
DAV:   7    -0.479510155050E+03   -0.66651E-05   -0.67988E-06   952   0.766E-03
  44 F= -.47951016E+03 E0= -.47947952E+03  d E =-.554291E-02
       N       E                     dE             d eps       ncg     rms          rms(c)
DAV:   1    -0.479509588359E+03    0.56003E-03   -0.16378E+00  1408   0.300E+00    0.202E-01
DAV:   2    -0.479511007130E+03   -0.14188E-02   -0.20337E-02  1584   0.381E-01    0.117E-01
DAV:   3    -0.479510954626E+03    0.52504E-04   -0.80186E-04  1648   0.790E-02    0.724E-02
DAV:   4    -0.479510949018E+03    0.56081E-05   -0.20393E-04  1624   0.434E-02    0.309E-02
DAV:   5    -0.479510960281E+03   -0.11262E-04   -0.41806E-05  1176   0.193E-02    0.114E-02
DAV:   6    -0.479510965589E+03   -0.53086E-05   -0.85046E-06   968   0.855E-03
  45 F= -.47951097E+03 E0= -.47948049E+03  d E =-.635345E-02
       N       E                     dE             d eps       ncg     rms          rms(c)
DAV:   1    -0.479511967493E+03   -0.10072E-02   -0.53268E+00  1408   0.536E+00    0.363E-01
DAV:   2    -0.479516418198E+03   -0.44507E-02   -0.64453E-02  1576   0.685E-01    0.208E-01
DAV:   3    -0.479516263533E+03    0.15467E-03   -0.25042E-03  1712   0.140E-01    0.128E-01
DAV:   4    -0.479516237254E+03    0.26279E-04   -0.62150E-04  1592   0.827E-02    0.536E-02
DAV:   5    -0.479516262394E+03   -0.25140E-04   -0.11408E-04  1576   0.345E-02    0.212E-02
DAV:   6    -0.479516272444E+03   -0.10049E-04   -0.18229E-05   960   0.141E-02    0.986E-03
DAV:   7    -0.479516277858E+03   -0.54144E-05   -0.52667E-06   976   0.755E-03
  46 F= -.47951628E+03 E0= -.47948591E+03  d E =-.531227E-02
       N       E                     dE             d eps       ncg     rms          rms(c)
DAV:   1    -0.479514767897E+03    0.15045E-02   -0.35317E+00  1408   0.437E+00    0.296E-01
DAV:   2    -0.479517701695E+03   -0.29338E-02   -0.42692E-02  1568   0.558E-01    0.170E-01
DAV:   3    -0.479517597082E+03    0.10461E-03   -0.16585E-03  1712   0.114E-01    0.104E-01
DAV:   4    -0.479517579388E+03    0.17694E-04   -0.42049E-04  1600   0.679E-02    0.435E-02
DAV:   5    -0.479517597457E+03   -0.18069E-04   -0.76056E-05  1408   0.281E-02    0.173E-02
DAV:   6    -0.479517605616E+03   -0.81594E-05   -0.12895E-05   960   0.117E-02
  47 F= -.47951761E+03 E0= -.47948733E+03  d E =-.664003E-02
       N       E                     dE             d eps       ncg     rms          rms(c)
DAV:   1    -0.479519069086E+03   -0.14716E-02   -0.38674E+00  1408   0.453E+00    0.284E-01
DAV:   2    -0.479522325871E+03   -0.32568E-02   -0.44909E-02  1560   0.566E-01    0.170E-01
DAV:   3    -0.479522232626E+03    0.93245E-04   -0.16781E-03  1720   0.116E-01    0.106E-01
DAV:   4    -0.479522229854E+03    0.27716E-05   -0.39990E-04  1616   0.646E-02    0.467E-02
DAV:   5    -0.479522252960E+03   -0.23105E-04   -0.77246E-05  1424   0.288E-02    0.172E-02
DAV:   6    -0.479522261402E+03   -0.84421E-05   -0.13487E-05   952   0.122E-02
  48 F= -.47952226E+03 E0= -.47949192E+03  d E =-.465579E-02
       N       E                     dE             d eps       ncg     rms          rms(c)
DAV:   1    -0.479519839653E+03    0.24133E-02   -0.62366E+00  1408   0.575E+00    0.362E-01
DAV:   2    -0.479525115621E+03   -0.52760E-02   -0.72576E-02  1576   0.719E-01    0.216E-01
DAV:   3    -0.479524947125E+03    0.16850E-03   -0.26479E-03  1720   0.146E-01    0.135E-01
DAV:   4    -0.479524938581E+03    0.85435E-05   -0.63738E-04  1624   0.810E-02    0.591E-02
DAV:   5    -0.479524974504E+03   -0.35923E-04   -0.12293E-04  1584   0.364E-02    0.217E-02
DAV:   6    -0.479524986807E+03   -0.12303E-04   -0.19930E-05   960   0.148E-02    0.103E-02
DAV:   7    -0.479524994441E+03   -0.76336E-05   -0.55435E-06   952   0.771E-03
  49 F= -.47952499E+03 E0= -.47949455E+03  d E =-.738882E-02
       N       E                     dE             d eps       ncg     rms          rms(c)
DAV:   1    -0.479527164638E+03   -0.21778E-02   -0.25997E+00  1424   0.369E+00    0.214E-01
DAV:   2    -0.479529513219E+03   -0.23486E-02   -0.29830E-02  1608   0.463E-01    0.135E-01
DAV:   3    -0.479529452790E+03    0.60429E-04   -0.11062E-03  1672   0.950E-02    0.858E-02
DAV:   4    -0.479529451210E+03    0.15806E-05   -0.25914E-04  1584   0.522E-02    0.406E-02
DAV:   5    -0.479529469322E+03   -0.18113E-04   -0.55207E-05  1344   0.253E-02    0.140E-02
DAV:   6    -0.479529475901E+03   -0.65783E-05   -0.11069E-05   960   0.111E-02
  50 F= -.47952948E+03 E0= -.47949914E+03  d E =-.448146E-02
       N       E                     dE             d eps       ncg     rms          rms(c)
DAV:   1    -0.479528311736E+03    0.11576E-02   -0.31816E+00  1424   0.408E+00    0.238E-01
DAV:   2    -0.479531202369E+03   -0.28906E-02   -0.36572E-02  1592   0.512E-01    0.149E-01
DAV:   3    -0.479531129792E+03    0.72576E-04   -0.13480E-03  1680   0.105E-01    0.947E-02
DAV:   4    -0.479531129696E+03    0.96243E-07   -0.31497E-04  1592   0.576E-02    0.452E-02
DAV:   5    -0.479531150363E+03   -0.20667E-04   -0.67344E-05  1392   0.281E-02    0.156E-02
DAV:   6    -0.479531157300E+03   -0.69370E-05   -0.12954E-05   960   0.121E-02
  51 F= -.47953116E+03 E0= -.47950094E+03  d E =-.616286E-02
       N       E                     dE             d eps       ncg     rms          rms(c)
DAV:   1    -0.479532966180E+03   -0.18158E-02   -0.19312E+00  1424   0.310E+00    0.169E-01
DAV:   2    -0.479534621947E+03   -0.16558E-02   -0.20223E-02  1576   0.378E-01    0.108E-01
DAV:   3    -0.479534597599E+03    0.24349E-04   -0.68446E-04  1688   0.733E-02    0.686E-02
DAV:   4    -0.479534608359E+03   -0.10761E-04   -0.16860E-04  1584   0.439E-02    0.305E-02
DAV:   5    -0.479534622085E+03   -0.13726E-04   -0.41306E-05  1256   0.209E-02    0.109E-02
DAV:   6    -0.479534626730E+03   -0.46450E-05   -0.70096E-06   968   0.851E-03
  52 F= -.47953463E+03 E0= -.47950442E+03  d E =-.346943E-02
       N       E                     dE             d eps       ncg     rms          rms(c)
DAV:   1    -0.479525698547E+03    0.89235E-02   -0.17401E+01  1424   0.930E+00    0.513E-01
DAV:   2    -0.479540758255E+03   -0.15060E-01   -0.18295E-01  1576   0.114E+00    0.324E-01
DAV:   3    -0.479540410746E+03    0.34751E-03   -0.61328E-03  1688   0.220E-01    0.207E-01
DAV:   4    -0.479540436715E+03   -0.25969E-04   -0.14667E-03  1600   0.128E-01    0.933E-02
DAV:   5    -0.479540542095E+03   -0.10538E-03   -0.38493E-04  1584   0.639E-02    0.329E-02
DAV:   6    -0.479540564442E+03   -0.22347E-04   -0.66839E-05  1368   0.248E-02    0.182E-02
DAV:   7    -0.479540570499E+03   -0.60562E-05   -0.13026E-05   992   0.118E-02
  53 F= -.47954057E+03 E0= -.47951039E+03  d E =-.941320E-02
       N       E                     dE             d eps       ncg     rms          rms(c)
DAV:   1    -0.479543802099E+03   -0.32377E-02   -0.41629E+00  1408   0.452E+00    0.258E-01
DAV:   2    -0.479547366387E+03   -0.35643E-02   -0.44686E-02  1592   0.565E-01    0.162E-01
DAV:   3    -0.479547280313E+03    0.86074E-04   -0.16534E-03  1736   0.112E-01    0.102E-01
DAV:   4    -0.479547272910E+03    0.74030E-05   -0.36035E-04  1624   0.641E-02    0.446E-02
DAV:   5    -0.479547297208E+03   -0.24298E-04   -0.92465E-05  1480   0.309E-02    0.166E-02
DAV:   6    -0.479547304813E+03   -0.76045E-05   -0.13165E-05   952   0.121E-02
  54 F= -.47954730E+03 E0= -.47951699E+03  d E =-.673431E-02
       N       E                     dE             d eps       ncg     rms          rms(c)
DAV:   1    -0.479546412101E+03    0.88511E-03   -0.46522E+00  1408   0.478E+00    0.274E-01
DAV:   2    -0.479550407359E+03   -0.39953E-02   -0.49977E-02  1568   0.598E-01    0.171E-01
DAV:   3    -0.479550318128E+03    0.89232E-04   -0.18419E-03  1736   0.118E-01    0.108E-01
DAV:   4    -0.479550311814E+03    0.63134E-05   -0.40089E-04  1600   0.674E-02    0.472E-02
DAV:   5    -0.479550337848E+03   -0.26034E-04   -0.10304E-04  1544   0.326E-02    0.176E-02
DAV:   6    -0.479550345411E+03   -0.75630E-05   -0.14378E-05   960   0.126E-02
  55 F= -.47955035E+03 E0= -.47951988E+03  d E =-.977491E-02
       N       E                     dE             d eps       ncg     rms          rms(c)
DAV:   1    -0.479552394212E+03   -0.20564E-02   -0.53153E+00  1408   0.496E+00    0.270E-01
DAV:   2    -0.479556697000E+03   -0.43028E-02   -0.52893E-02  1584   0.610E-01    0.170E-01
DAV:   3    -0.479556604606E+03    0.92395E-04   -0.18230E-03  1688   0.119E-01    0.107E-01
DAV:   4    -0.479556602413E+03    0.21922E-05   -0.44240E-04  1592   0.701E-02    0.478E-02
DAV:   5    -0.479556627803E+03   -0.25390E-04   -0.11521E-04  1544   0.336E-02    0.177E-02
DAV:   6    -0.479556635953E+03   -0.81498E-05   -0.19481E-05   968   0.134E-02
  56 F= -.47955664E+03 E0= -.47952620E+03  d E =-.629054E-02
       N       E                     dE             d eps       ncg     rms          rms(c)
DAV:   1    -0.479547974159E+03    0.86536E-02   -0.15921E+01  1408   0.857E+00    0.470E-01
DAV:   2    -0.479560943035E+03   -0.12969E-01   -0.15916E-01  1576   0.106E+00    0.293E-01
DAV:   3    -0.479560632875E+03    0.31016E-03   -0.54470E-03  1688   0.206E-01    0.185E-01
DAV:   4    -0.479560606089E+03    0.26786E-04   -0.12873E-03  1600   0.119E-01    0.838E-02
DAV:   5    -0.479560675294E+03   -0.69205E-04   -0.34873E-04  1584   0.585E-02    0.302E-02
DAV:   6    -0.479560695297E+03   -0.20003E-04   -0.68528E-05  1376   0.236E-02    0.175E-02
DAV:   7    -0.479560703397E+03   -0.80995E-05   -0.11751E-05   952   0.105E-02
  57 F= -.47956070E+03 E0= -.47953029E+03  d E =-.103580E-01
       N       E                     dE             d eps       ncg     rms          rms(c)
DAV:   1    -0.479562641532E+03   -0.19462E-02   -0.23969E+00  1424   0.324E+00    0.167E-01
DAV:   2    -0.479564499211E+03   -0.18577E-02   -0.22298E-02  1560   0.393E-01    0.107E-01
DAV:   3    -0.479564463248E+03    0.35963E-04   -0.70253E-04  1704   0.731E-02    0.675E-02
DAV:   4    -0.479564468615E+03   -0.53667E-05   -0.18924E-04  1608   0.455E-02    0.281E-02
DAV:   5    -0.479564481980E+03   -0.13365E-04   -0.46596E-05  1288   0.213E-02    0.103E-02
DAV:   6    -0.479564487984E+03   -0.60040E-05   -0.70893E-06   960   0.810E-03
  58 F= -.47956449E+03 E0= -.47953405E+03  d E =-.378459E-02
       N       E                     dE             d eps       ncg     rms          rms(c)
DAV:   1    -0.479556572028E+03    0.79100E-02   -0.21626E+01  1424   0.974E+00    0.510E-01
DAV:   2    -0.479573499173E+03   -0.16927E-01   -0.20271E-01  1568   0.118E+00    0.320E-01
DAV:   3    -0.479573136904E+03    0.36227E-03   -0.63029E-03  1712   0.220E-01    0.203E-01
DAV:   4    -0.479573152461E+03   -0.15558E-04   -0.15964E-03  1600   0.130E-01    0.872E-02
DAV:   5    -0.479573236564E+03   -0.84103E-04   -0.43740E-04  1592   0.647E-02    0.307E-02
DAV:   6    -0.479573259596E+03   -0.23032E-04   -0.74471E-05  1400   0.244E-02    0.179E-02
DAV:   7    -0.479573268293E+03   -0.86970E-05   -0.12804E-05   952   0.108E-02
  59 F= -.47957327E+03 E0= -.47954275E+03  d E =-.125649E-01
       N       E                     dE             d eps       ncg     rms          rms(c)
DAV:   1    -0.479509853671E+03    0.63406E-01   -0.87462E+01  1440   0.196E+01    0.107E+00
DAV:   2    -0.479580437023E+03   -0.70583E-01   -0.83854E-01  1560   0.239E+00    0.647E-01
DAV:   3    -0.479578555292E+03    0.18817E-02   -0.25234E-02  1704   0.448E-01    0.416E-01
DAV:   4    -0.479578196357E+03    0.35894E-03   -0.60497E-03  1600   0.244E-01    0.191E-01
DAV:   5    -0.479578536809E+03   -0.34045E-03   -0.18937E-03  1592   0.134E-01    0.626E-02
DAV:   6    -0.479578627694E+03   -0.90884E-04   -0.38346E-04  1552   0.543E-02    0.361E-02
DAV:   7    -0.479578655931E+03   -0.28237E-04   -0.60753E-05  1376   0.209E-02    0.170E-02
DAV:   8    -0.479578701746E+03   -0.45815E-04   -0.10711E-05  1032   0.122E-02    0.555E-03
DAV:   9    -0.479578725062E+03   -0.23316E-04   -0.48543E-06  1016   0.580E-03    0.325E-03
DAV:  10    -0.479578745348E+03   -0.20286E-04   -0.15523E-06  1000   0.407E-03    0.161E-03
DAV:  11    -0.479578767763E+03   -0.22415E-04   -0.23266E-06  1040   0.299E-03    0.114E-03
DAV:  12    -0.479578773071E+03   -0.53082E-05   -0.15559E-06  1032   0.249E-03
  60 F= -.47957877E+03 E0= -.47954811E+03  d E =-.180697E-01
       N       E                     dE             d eps       ncg     rms          rms(c)
DAV:   1    -0.479580941303E+03   -0.21735E-02   -0.50472E+00  1440   0.462E+00    0.239E-01
DAV:   2    -0.479584760692E+03   -0.38194E-02   -0.45732E-02  1568   0.562E-01    0.152E-01
DAV:   3    -0.479584684755E+03    0.75937E-04   -0.13844E-03  1672   0.103E-01    0.953E-02
DAV:   4    -0.479584692723E+03   -0.79680E-05   -0.36568E-04  1568   0.614E-02    0.417E-02
DAV:   5    -0.479584712629E+03   -0.19906E-04   -0.87046E-05  1424   0.294E-02    0.150E-02
DAV:   6    -0.479584718466E+03   -0.58370E-05   -0.13619E-05   936   0.110E-02
  61 F= -.47958472E+03 E0= -.47955402E+03  d E =-.594540E-02
       N       E                     dE             d eps       ncg     rms          rms(c)
DAV:   1    -0.479562909793E+03    0.21803E-01   -0.45735E+01  1440   0.139E+01    0.741E-01
DAV:   2    -0.479598526939E+03   -0.35617E-01   -0.42293E-01  1536   0.169E+00    0.454E-01
DAV:   3    -0.479597709591E+03    0.81735E-03   -0.12575E-02  1688   0.311E-01    0.290E-01
DAV:   4    -0.479597659571E+03    0.50020E-04   -0.30226E-03  1600   0.175E-01    0.131E-01
DAV:   5    -0.479597838124E+03   -0.17855E-03   -0.82606E-04  1576   0.907E-02    0.446E-02
DAV:   6    -0.479597884342E+03   -0.46218E-04   -0.16303E-04  1584   0.351E-02    0.253E-02
DAV:   7    -0.479597896495E+03   -0.12154E-04   -0.29503E-05  1008   0.147E-02    0.121E-02
DAV:   8    -0.479597914509E+03   -0.18014E-04   -0.88629E-06  1016   0.873E-03    0.407E-03
DAV:   9    -0.479597923240E+03   -0.87307E-05   -0.23684E-06   968   0.424E-03
  62 F= -.47959792E+03 E0= -.47956709E+03  d E =-.191502E-01
       N       E                     dE             d eps       ncg     rms          rms(c)
DAV:   1    -0.479449103823E+03    0.14881E+00   -0.18746E+02  1440   0.280E+01    0.161E+00
DAV:   2    -0.479606095672E+03   -0.15699E+00   -0.18380E+00  1544   0.348E+00    0.946E-01
DAV:   3    -0.479601936782E+03    0.41589E-02   -0.52982E-02  1680   0.660E-01    0.616E-01
DAV:   4    -0.479600881424E+03    0.10554E-02   -0.11079E-02  1568   0.318E-01    0.313E-01
DAV:   5    -0.479601553255E+03   -0.67183E-03   -0.35530E-03  1576   0.187E-01    0.941E-02
DAV:   6    -0.479601741939E+03   -0.18868E-03   -0.82951E-04  1576   0.790E-02    0.519E-02
DAV:   7    -0.479601785049E+03   -0.43110E-04   -0.15073E-04  1568   0.312E-02    0.258E-02
DAV:   8    -0.479601839015E+03   -0.53966E-04   -0.26133E-05  1008   0.149E-02    0.779E-03
DAV:   9    -0.479601871939E+03   -0.32923E-04   -0.82856E-06  1048   0.734E-03    0.429E-03
DAV:  10    -0.479601895952E+03   -0.24013E-04   -0.31857E-06  1024   0.471E-03    0.193E-03
DAV:  11    -0.479601923407E+03   -0.27455E-04   -0.23246E-06  1040   0.273E-03    0.143E-03
DAV:  12    -0.479601940797E+03   -0.17390E-04   -0.11492E-06  1016   0.213E-03    0.112E-03
DAV:  13    -0.479601946125E+03   -0.53271E-05   -0.20288E-06  1016   0.179E-03
  63 F= -.47960195E+03 E0= -.47957089E+03  d E =-.231731E-01
       N       E                     dE             d eps       ncg     rms          rms(c)
DAV:   1    -0.479584223269E+03    0.17718E-01   -0.26066E+01  1440   0.105E+01    0.544E-01
DAV:   2    -0.479604391589E+03   -0.20168E-01   -0.23841E-01  1528   0.128E+00    0.360E-01
DAV:   3    -0.479603962374E+03    0.42922E-03   -0.72886E-03  1648   0.243E-01    0.223E-01
DAV:   4    -0.479603857795E+03    0.10458E-03   -0.21370E-03  1584   0.142E-01    0.939E-02
DAV:   5    -0.479603954209E+03   -0.96414E-04   -0.45995E-04  1592   0.650E-02    0.362E-02
DAV:   6    -0.479603975667E+03   -0.21458E-04   -0.73932E-05  1424   0.239E-02    0.208E-02
DAV:   7    -0.479603979784E+03   -0.41172E-05   -0.16997E-05   960   0.121E-02
  64 F= -.47960398E+03 E0= -.47957301E+03  d E =-.252067E-01
       N       E                     dE             d eps       ncg     rms          rms(c)
DAV:   1    -0.479609149313E+03   -0.51736E-02   -0.10383E+01  1440   0.653E+00    0.352E-01
DAV:   2    -0.479616796585E+03   -0.76473E-02   -0.94155E-02  1544   0.805E-01    0.217E-01
DAV:   3    -0.479616639885E+03    0.15670E-03   -0.31409E-03  1672   0.154E-01    0.137E-01
DAV:   4    -0.479616627206E+03    0.12679E-04   -0.76293E-04  1576   0.839E-02    0.656E-02
DAV:   5    -0.479616672595E+03   -0.45389E-04   -0.22020E-04  1576   0.429E-02    0.220E-02
DAV:   6    -0.479616682722E+03   -0.10127E-04   -0.39559E-05  1120   0.176E-02    0.116E-02
DAV:   7    -0.479616684658E+03   -0.19364E-05   -0.89710E-06   944   0.798E-03
  65 F= -.47961668E+03 E0= -.47958572E+03  d E =-.127049E-01
       N       E                     dE             d eps       ncg     rms          rms(c)
DAV:   1    -0.479584140179E+03    0.32543E-01   -0.60981E+01  1440   0.158E+01    0.878E-01
DAV:   2    -0.479630661743E+03   -0.46522E-01   -0.56724E-01  1568   0.196E+00    0.522E-01
DAV:   3    -0.479629381133E+03    0.12806E-02   -0.18453E-02  1680   0.373E-01    0.336E-01
DAV:   4    -0.479629165204E+03    0.21593E-03   -0.41527E-03  1552   0.194E-01    0.167E-01
DAV:   5    -0.479629384525E+03   -0.21932E-03   -0.13412E-03  1584   0.106E-01    0.536E-02
DAV:   6    -0.479629455244E+03   -0.70720E-04   -0.27585E-04  1568   0.449E-02    0.285E-02
DAV:   7    -0.479629477194E+03   -0.21950E-04   -0.45286E-05  1208   0.179E-02    0.144E-02
DAV:   8    -0.479629505975E+03   -0.28780E-04   -0.94931E-06   968   0.881E-03    0.457E-03
DAV:   9    -0.479629520200E+03   -0.14225E-04   -0.24872E-06   992   0.429E-03    0.248E-03
DAV:  10    -0.479629534061E+03   -0.13861E-04   -0.14049E-06   984   0.258E-03    0.120E-03
DAV:  11    -0.479629535578E+03   -0.15173E-05   -0.16832E-06  1024   0.204E-03
  66 F= -.47962954E+03 E0= -.47959859E+03  d E =-.255558E-01
       N       E                     dE             d eps       ncg     rms          rms(c)
DAV:   1    -0.479632230982E+03   -0.26969E-02   -0.18793E+01  1456   0.860E+00    0.455E-01
DAV:   2    -0.479645623534E+03   -0.13393E-01   -0.16338E-01  1544   0.105E+00    0.275E-01
DAV:   3    -0.479645336164E+03    0.28737E-03   -0.49426E-03  1640   0.192E-01    0.175E-01
DAV:   4    -0.479645306308E+03    0.29855E-04   -0.10141E-03  1600   0.102E-01    0.776E-02
DAV:   5    -0.479645375917E+03   -0.69609E-04   -0.24105E-04  1584   0.517E-02    0.273E-02
DAV:   6    -0.479645393253E+03   -0.17336E-04   -0.44303E-05  1320   0.206E-02    0.137E-02
DAV:   7    -0.479645402119E+03   -0.88663E-05   -0.86318E-06   976   0.934E-03
  67 F= -.47964540E+03 E0= -.47961441E+03  d E =-.158665E-01
       N       E                     dE             d eps       ncg     rms          rms(c)
DAV:   1    -0.479614257725E+03    0.31136E-01   -0.58679E+01  1456   0.152E+01    0.822E-01
DAV:   2    -0.479657350158E+03   -0.43092E-01   -0.52089E-01  1552   0.186E+00    0.485E-01
DAV:   3    -0.479656239617E+03    0.11105E-02   -0.15489E-02  1648   0.343E-01    0.313E-01
DAV:   4    -0.479656046205E+03    0.19341E-03   -0.29742E-03  1568   0.172E-01    0.141E-01
DAV:   5    -0.479656248364E+03   -0.20216E-03   -0.75300E-04  1600   0.925E-02    0.479E-02
DAV:   6    -0.479656300787E+03   -0.52423E-04   -0.15059E-04  1576   0.378E-02    0.241E-02
DAV:   7    -0.479656320353E+03   -0.19566E-04   -0.26344E-05  1048   0.149E-02    0.123E-02
DAV:   8    -0.479656354257E+03   -0.33904E-04   -0.11121E-05  1040   0.873E-03    0.464E-03
DAV:   9    -0.479656372673E+03   -0.18416E-04   -0.31252E-06   984   0.451E-03    0.295E-03
DAV:  10    -0.479656397164E+03   -0.24492E-04   -0.22147E-06  1016   0.299E-03    0.141E-03
DAV:  11    -0.479656409177E+03   -0.12013E-04   -0.27284E-06  1000   0.261E-03    0.108E-03
DAV:  12    -0.479656420116E+03   -0.10939E-04   -0.91453E-07  1008   0.176E-03    0.860E-04
DAV:  13    -0.479656428269E+03   -0.81522E-05   -0.84026E-07   968   0.130E-03
  68 F= -.47965643E+03 E0= -.47962534E+03  d E =-.268927E-01
       N       E                     dE             d eps       ncg     rms          rms(c)
DAV:   1    -0.479655771633E+03    0.64848E-03   -0.26439E+01  1424   0.993E+00    0.523E-01
DAV:   2    -0.479674816438E+03   -0.19045E-01   -0.22460E-01  1560   0.122E+00    0.310E-01
DAV:   3    -0.479674443070E+03    0.37337E-03   -0.65301E-03  1632   0.219E-01    0.202E-01
DAV:   4    -0.479674400172E+03    0.42899E-04   -0.13825E-03  1592   0.113E-01    0.876E-02
DAV:   5    -0.479674474522E+03   -0.74350E-04   -0.33265E-04  1576   0.593E-02    0.322E-02
DAV:   6    -0.479674496039E+03   -0.21517E-04   -0.72791E-05  1376   0.248E-02    0.158E-02
DAV:   7    -0.479674502567E+03   -0.65287E-05   -0.13474E-05   952   0.102E-02
  69 F= -.47967450E+03 E0= -.47964351E+03  d E =-.180743E-01
       N       E                     dE             d eps       ncg     rms          rms(c)
DAV:   1    -0.479620153210E+03    0.54343E-01   -0.91954E+01  1424   0.185E+01    0.101E+00
DAV:   2    -0.479689330937E+03   -0.69178E-01   -0.80776E-01  1568   0.228E+00    0.587E-01
DAV:   3    -0.479687712042E+03    0.16189E-02   -0.23202E-02  1680   0.420E-01    0.384E-01
DAV:   4    -0.479687327268E+03    0.38477E-03   -0.44457E-03  1576   0.197E-01    0.178E-01
DAV:   5    -0.479687600882E+03   -0.27361E-03   -0.11048E-03  1584   0.108E-01    0.590E-02
DAV:   6    -0.479687678465E+03   -0.77583E-04   -0.23179E-04  1552   0.453E-02    0.292E-02
DAV:   7    -0.479687706325E+03   -0.27860E-04   -0.43507E-05  1160   0.182E-02    0.166E-02
DAV:   8    -0.479687735407E+03   -0.29082E-04   -0.14378E-05   984   0.109E-02    0.499E-03
DAV:   9    -0.479687757617E+03   -0.22210E-04   -0.43944E-06  1024   0.543E-03    0.337E-03
DAV:  10    -0.479687784794E+03   -0.27177E-04   -0.22708E-06   992   0.334E-03    0.165E-03
DAV:  11    -0.479687808257E+03   -0.23463E-04   -0.16654E-06  1040   0.219E-03    0.121E-03
DAV:  12    -0.479687810037E+03   -0.17802E-05   -0.16491E-06   984   0.211E-03
  70 F= -.47968781E+03 E0= -.47965702E+03  d E =-.313818E-01
       N       E                     dE             d eps       ncg     rms          rms(c)
DAV:   1    -0.479679048075E+03    0.87602E-02   -0.42775E+01  1408   0.124E+01    0.641E-01
DAV:   2    -0.479709770330E+03   -0.30722E-01   -0.35672E-01  1552   0.151E+00    0.387E-01
DAV:   3    -0.479709093931E+03    0.67640E-03   -0.10167E-02  1696   0.271E-01    0.251E-01
DAV:   4    -0.479708936134E+03    0.15780E-03   -0.18578E-03  1600   0.132E-01    0.105E-01
DAV:   5    -0.479709044677E+03   -0.10854E-03   -0.45507E-04  1576   0.714E-02    0.367E-02
DAV:   6    -0.479709071409E+03   -0.26732E-04   -0.76006E-05  1472   0.283E-02    0.179E-02
DAV:   7    -0.479709074118E+03   -0.27096E-05   -0.10880E-05  1008   0.109E-02
  71 F= -.47970907E+03 E0= -.47967820E+03  d E =-.212641E-01
       N       E                     dE             d eps       ncg     rms          rms(c)
DAV:   1    -0.479666362344E+03    0.42709E-01   -0.71706E+01  1408   0.160E+01    0.842E-01
DAV:   2    -0.479718871432E+03   -0.52509E-01   -0.60752E-01  1552   0.196E+00    0.506E-01
DAV:   3    -0.479717660273E+03    0.12112E-02   -0.17287E-02  1720   0.356E-01    0.329E-01
DAV:   4    -0.479717330205E+03    0.33007E-03   -0.30182E-03  1584   0.164E-01    0.143E-01
DAV:   5    -0.479717518649E+03   -0.18844E-03   -0.76253E-04  1576   0.909E-02    0.468E-02
DAV:   6    -0.479717569944E+03   -0.51295E-04   -0.12636E-04  1600   0.358E-02    0.231E-02
DAV:   7    -0.479717599217E+03   -0.29273E-04   -0.16012E-05  1056   0.135E-02    0.125E-02
DAV:   8    -0.479717634557E+03   -0.35340E-04   -0.73224E-06  1008   0.862E-03    0.412E-03
DAV:   9    -0.479717642513E+03   -0.79552E-05   -0.28181E-06   992   0.405E-03
  72 F= -.47971764E+03 E0= -.47968667E+03  d E =-.298325E-01
       N       E                     dE             d eps       ncg     rms          rms(c)
DAV:   1    -0.479690936736E+03    0.26698E-01   -0.67082E+01  1408   0.153E+01    0.772E-01
DAV:   2    -0.479739197399E+03   -0.48261E-01   -0.55864E-01  1592   0.188E+00    0.467E-01
DAV:   3    -0.479738363354E+03    0.83404E-03   -0.17112E-02  1696   0.352E-01    0.308E-01
DAV:   4    -0.479738055990E+03    0.30736E-03   -0.28070E-03  1592   0.155E-01    0.154E-01
DAV:   5    -0.479738227242E+03   -0.17125E-03   -0.10750E-03  1544   0.931E-02    0.490E-02
DAV:   6    -0.479738270745E+03   -0.43504E-04   -0.26226E-04  1592   0.425E-02    0.267E-02
DAV:   7    -0.479738293548E+03   -0.22802E-04   -0.37587E-05  1112   0.162E-02    0.144E-02
DAV:   8    -0.479738316376E+03   -0.22828E-04   -0.11944E-05   984   0.918E-03    0.506E-03
DAV:   9    -0.479738337136E+03   -0.20761E-04   -0.26873E-06  1008   0.436E-03    0.289E-03
DAV:  10    -0.479738358337E+03   -0.21201E-04   -0.16781E-06  1016   0.267E-03    0.129E-03
DAV:  11    -0.479738380314E+03   -0.21977E-04   -0.17454E-06  1040   0.220E-03    0.122E-03
DAV:  12    -0.479738389396E+03   -0.90819E-05   -0.60274E-07   976   0.144E-03
  73 F= -.47973839E+03 E0= -.47970746E+03  d E =-.207469E-01
       N       E                     dE             d eps       ncg     rms          rms(c)
DAV:   1    -0.479729870687E+03    0.85096E-02   -0.16290E+01  1408   0.752E+00    0.373E-01
DAV:   2    -0.479741208649E+03   -0.11338E-01   -0.13210E-01  1592   0.919E-01    0.229E-01
DAV:   3    -0.479741037851E+03    0.17080E-03   -0.40826E-03  1688   0.170E-01    0.151E-01
DAV:   4    -0.479740983713E+03    0.54138E-04   -0.74042E-04  1584   0.804E-02    0.722E-02
DAV:   5    -0.479741024374E+03   -0.40660E-04   -0.26611E-04  1552   0.460E-02    0.245E-02
DAV:   6    -0.479741034782E+03   -0.10408E-04   -0.63440E-05  1240   0.210E-02    0.131E-02
DAV:   7    -0.479741040263E+03   -0.54817E-05   -0.10024E-05   936   0.850E-03
  74 F= -.47974104E+03 E0= -.47971012E+03  d E =-.233978E-01
       N       E                     dE             d eps       ncg     rms          rms(c)
DAV:   1    -0.479737968940E+03    0.30658E-02   -0.30750E+01  1424   0.103E+01    0.525E-01
DAV:   2    -0.479759979794E+03   -0.22011E-01   -0.25125E-01  1592   0.126E+00    0.326E-01
DAV:   3    -0.479759396054E+03    0.58374E-03   -0.72416E-03  1640   0.240E-01    0.215E-01
DAV:   4    -0.479759222618E+03    0.17344E-03   -0.16070E-03  1592   0.119E-01    0.105E-01
DAV:   5    -0.479759284659E+03   -0.62041E-04   -0.46489E-04  1584   0.659E-02    0.352E-02
DAV:   6    -0.479759312081E+03   -0.27422E-04   -0.98611E-05  1456   0.285E-02    0.185E-02
DAV:   7    -0.479759323900E+03   -0.11819E-04   -0.16372E-05  1000   0.114E-02    0.101E-02
DAV:   8    -0.479759329832E+03   -0.59325E-05   -0.71043E-06   984   0.723E-03
  75 F= -.47975933E+03 E0= -.47972842E+03  d E =-.182896E-01
       N       E                     dE             d eps       ncg     rms          rms(c)
DAV:   1    -0.479755388436E+03    0.39355E-02   -0.10155E+01  1424   0.591E+00    0.298E-01
DAV:   2    -0.479762544679E+03   -0.71562E-02   -0.81970E-02  1592   0.723E-01    0.186E-01
DAV:   3    -0.479762357358E+03    0.18732E-03   -0.23690E-03  1640   0.136E-01    0.123E-01
DAV:   4    -0.479762309425E+03    0.47933E-04   -0.54555E-04  1568   0.697E-02    0.583E-02
DAV:   5    -0.479762335570E+03   -0.26145E-04   -0.15011E-04  1568   0.380E-02    0.201E-02
DAV:   6    -0.479762348848E+03   -0.13279E-04   -0.28323E-05  1024   0.161E-02    0.103E-02
DAV:   7    -0.479762357186E+03   -0.83372E-05   -0.61277E-06   976   0.693E-03
  76 F= -.47976236E+03 E0= -.47973145E+03  d E =-.213169E-01
       N       E                     dE             d eps       ncg     rms          rms(c)
DAV:   1    -0.479754700111E+03    0.76487E-02   -0.36747E+01  1416   0.111E+01    0.539E-01
DAV:   2    -0.479780736375E+03   -0.26036E-01   -0.29518E-01  1592   0.136E+00    0.342E-01
DAV:   3    -0.479780204219E+03    0.53216E-03   -0.84685E-03  1632   0.256E-01    0.226E-01
DAV:   4    -0.479779978186E+03    0.22603E-03   -0.15797E-03  1592   0.124E-01    0.114E-01
DAV:   5    -0.479780055065E+03   -0.76879E-04   -0.47445E-04  1584   0.688E-02    0.352E-02
DAV:   6    -0.479780082152E+03   -0.27088E-04   -0.77250E-05  1488   0.272E-02    0.192E-02
DAV:   7    -0.479780094583E+03   -0.12431E-04   -0.99321E-06  1024   0.106E-02    0.101E-02
DAV:   8    -0.479780101059E+03   -0.64761E-05   -0.72966E-06   984   0.759E-03
  77 F= -.47978010E+03 E0= -.47974921E+03  d E =-.177439E-01
       N       E                     dE             d eps       ncg     rms          rms(c)
DAV:   1    -0.479776563916E+03    0.35307E-02   -0.84823E+00  1416   0.533E+00    0.256E-01
DAV:   2    -0.479782462741E+03   -0.58988E-02   -0.66966E-02  1568   0.649E-01    0.162E-01
DAV:   3    -0.479782345712E+03    0.11703E-03   -0.19267E-03  1632   0.120E-01    0.108E-01
DAV:   4    -0.479782292935E+03    0.52777E-04   -0.37446E-04  1520   0.609E-02    0.523E-02
DAV:   5    -0.479782316501E+03   -0.23566E-04   -0.10749E-04  1576   0.332E-02    0.170E-02
DAV:   6    -0.479782326991E+03   -0.10490E-04   -0.16382E-05   968   0.137E-02    0.900E-03
DAV:   7    -0.479782334540E+03   -0.75484E-05   -0.36740E-06   976   0.592E-03
  78 F= -.47978233E+03 E0= -.47975146E+03  d E =-.199774E-01
       N       E                     dE             d eps       ncg     rms          rms(c)
DAV:   1    -0.479774069405E+03    0.82576E-02   -0.33447E+01  1408   0.104E+01    0.521E-01
DAV:   2    -0.479797376855E+03   -0.23307E-01   -0.26386E-01  1600   0.128E+00    0.325E-01
DAV:   3    -0.479796931326E+03    0.44553E-03   -0.78463E-03  1624   0.246E-01    0.216E-01
DAV:   4    -0.479796731246E+03    0.20008E-03   -0.14061E-03  1600   0.116E-01    0.117E-01
DAV:   5    -0.479796778583E+03   -0.47336E-04   -0.44204E-04  1584   0.653E-02    0.348E-02
DAV:   6    -0.479796822084E+03   -0.43501E-04   -0.75026E-05  1424   0.272E-02    0.197E-02
DAV:   7    -0.479796832729E+03   -0.10645E-04   -0.10423E-05  1032   0.106E-02    0.106E-02
DAV:   8    -0.479796849797E+03   -0.17068E-04   -0.68097E-06  1032   0.737E-03    0.397E-03
DAV:   9    -0.479796858833E+03   -0.90364E-05   -0.17012E-06   976   0.373E-03
  79 F= -.47979686E+03 E0= -.47976581E+03  d E =-.145243E-01
       N       E                     dE             d eps       ncg     rms          rms(c)
DAV:   1    -0.479796011813E+03    0.83798E-03   -0.22235E+00  1408   0.268E+00    0.133E-01
DAV:   2    -0.479797511844E+03   -0.15000E-02   -0.17233E-02  1568   0.329E-01    0.827E-02
DAV:   3    -0.479797484906E+03    0.26938E-04   -0.51435E-04  1632   0.622E-02    0.555E-02
DAV:   4    -0.479797474957E+03    0.99486E-05   -0.94284E-05  1568   0.303E-02
  80 F= -.47979747E+03 E0= -.47976639E+03  d E =-.151404E-01
       N       E                     dE             d eps       ncg     rms          rms(c)
DAV:   1    -0.479792510550E+03    0.49744E-02   -0.27336E+01  1424   0.917E+00    0.427E-01
DAV:   2    -0.479810742892E+03   -0.18232E-01   -0.20380E-01  1616   0.111E+00    0.273E-01
DAV:   3    -0.479810423043E+03    0.31985E-03   -0.56151E-03  1624   0.204E-01    0.179E-01
DAV:   4    -0.479810297358E+03    0.12568E-03   -0.10564E-03  1592   0.100E-01    0.889E-02
DAV:   5    -0.479810350205E+03   -0.52847E-04   -0.34995E-04  1568   0.566E-02    0.274E-02
DAV:   6    -0.479810388334E+03   -0.38129E-04   -0.56401E-05  1344   0.223E-02    0.160E-02
DAV:   7    -0.479810398783E+03   -0.10449E-04   -0.10454E-05  1024   0.980E-03    0.832E-03
DAV:   8    -0.479810414281E+03   -0.15498E-04   -0.56365E-06  1016   0.616E-03    0.336E-03
DAV:   9    -0.479810422279E+03   -0.79983E-05   -0.13239E-06   968   0.308E-03
  81 F= -.47981042E+03 E0= -.47977955E+03  d E =-.129473E-01
       N       E                     dE             d eps       ncg     rms          rms(c)
DAV:   1    -0.479808108395E+03    0.23059E-02   -0.59925E+00  1424   0.430E+00    0.194E-01
DAV:   2    -0.479812028556E+03   -0.39202E-02   -0.44023E-02  1600   0.518E-01    0.126E-01
DAV:   3    -0.479811958528E+03    0.70028E-04   -0.12064E-03  1632   0.927E-02    0.824E-02
DAV:   4    -0.479811931929E+03    0.26599E-04   -0.23244E-04  1592   0.471E-02    0.392E-02
DAV:   5    -0.479811946707E+03   -0.14778E-04   -0.73426E-05  1368   0.258E-02    0.127E-02
DAV:   6    -0.479811953244E+03   -0.65372E-05   -0.10725E-05   952   0.105E-02
  82 F= -.47981195E+03 E0= -.47978119E+03  d E =-.144783E-01
       N       E                     dE             d eps       ncg     rms          rms(c)
DAV:   1    -0.479806347986E+03    0.55987E-02   -0.25912E+01  1448   0.895E+00    0.420E-01
DAV:   2    -0.479823595718E+03   -0.17248E-01   -0.19377E-01  1608   0.109E+00    0.265E-01
DAV:   3    -0.479823248569E+03    0.34715E-03   -0.55783E-03  1664   0.201E-01    0.169E-01
DAV:   4    -0.479823073278E+03    0.17529E-03   -0.96974E-04  1584   0.982E-02    0.764E-02
DAV:   5    -0.479823103866E+03   -0.30589E-04   -0.28945E-04  1584   0.529E-02    0.260E-02
DAV:   6    -0.479823118893E+03   -0.15027E-04   -0.40992E-05  1272   0.205E-02    0.144E-02
DAV:   7    -0.479823130202E+03   -0.11310E-04   -0.72426E-06  1008   0.900E-03    0.766E-03
DAV:   8    -0.479823144688E+03   -0.14486E-04   -0.40635E-06  1032   0.542E-03    0.335E-03
DAV:   9    -0.479823154531E+03   -0.98430E-05   -0.11884E-06   968   0.279E-03
  83 F= -.47982315E+03 E0= -.47979241E+03  d E =-.112013E-01
       N       E                     dE             d eps       ncg     rms          rms(c)
DAV:   1    -0.479822562083E+03    0.58261E-03   -0.17182E+00  1448   0.231E+00    0.106E-01
DAV:   2    -0.479823681861E+03   -0.11198E-02   -0.12600E-02  1600   0.281E-01    0.685E-02
DAV:   3    -0.479823660854E+03    0.21007E-04   -0.36808E-04  1672   0.508E-02    0.435E-02
DAV:   4    -0.479823651420E+03    0.94337E-05   -0.66138E-05  1328   0.259E-02
  84 F= -.47982365E+03 E0= -.47979291E+03  d E =-.116982E-01
       N       E                     dE             d eps       ncg     rms          rms(c)
DAV:   1    -0.479818158848E+03    0.55020E-02   -0.24164E+01  1432   0.865E+00    0.396E-01
DAV:   2    -0.479834169524E+03   -0.16011E-01   -0.17938E-01  1592   0.105E+00    0.256E-01
DAV:   3    -0.479833841857E+03    0.32767E-03   -0.49362E-03  1648   0.188E-01    0.164E-01
DAV:   4    -0.479833655816E+03    0.18604E-03   -0.10053E-03  1568   0.971E-02    0.707E-02
DAV:   5    -0.479833679893E+03   -0.24077E-04   -0.27356E-04  1592   0.521E-02    0.250E-02
DAV:   6    -0.479833694077E+03   -0.14184E-04   -0.40904E-05  1248   0.191E-02    0.141E-02
DAV:   7    -0.479833703687E+03   -0.96102E-05   -0.70562E-06   968   0.827E-03
  85 F= -.47983370E+03 E0= -.47980292E+03  d E =-.100523E-01
       N       E                     dE             d eps       ncg     rms          rms(c)
DAV:   1    -0.479832651188E+03    0.10429E-02   -0.29306E+00  1432   0.302E+00    0.135E-01
DAV:   2    -0.479834566587E+03   -0.19154E-02   -0.21469E-02  1600   0.365E-01    0.894E-02
DAV:   3    -0.479834527770E+03    0.38817E-04   -0.59560E-04  1680   0.640E-02    0.573E-02
DAV:   4    -0.479834508127E+03    0.19643E-04   -0.12996E-04  1544   0.344E-02    0.233E-02
DAV:   5    -0.479834516247E+03   -0.81204E-05   -0.31307E-05  1184   0.177E-02
  86 F= -.47983452E+03 E0= -.47980371E+03  d E =-.108648E-01
       N       E                     dE             d eps       ncg     rms          rms(c)
DAV:   1    -0.479830485887E+03    0.40222E-02   -0.19103E+01  1416   0.789E+00    0.368E-01
DAV:   2    -0.479843865672E+03   -0.13380E-01   -0.14792E-01  1600   0.965E-01    0.242E-01
DAV:   3    -0.479843563206E+03    0.30247E-03   -0.46152E-03  1632   0.185E-01    0.158E-01
DAV:   4    -0.479843403462E+03    0.15974E-03   -0.10305E-03  1560   0.901E-02    0.752E-02
DAV:   5    -0.479843438712E+03   -0.35250E-04   -0.32822E-04  1560   0.504E-02    0.249E-02
DAV:   6    -0.479843452571E+03   -0.13859E-04   -0.54129E-05  1328   0.209E-02    0.142E-02
DAV:   7    -0.479843460807E+03   -0.82362E-05   -0.93002E-06   952   0.892E-03
  87 F= -.47984346E+03 E0= -.47981266E+03  d E =-.894456E-02
       N       E                     dE             d eps       ncg     rms          rms(c)
DAV:   1    -0.479843083033E+03    0.36954E-03   -0.13130E+00  1440   0.207E+00    0.959E-02
DAV:   2    -0.479843991510E+03   -0.90848E-03   -0.10052E-02  1616   0.253E-01    0.633E-02
DAV:   3    -0.479843971578E+03    0.19932E-04   -0.31303E-04  1624   0.473E-02    0.417E-02
DAV:   4    -0.479843964070E+03    0.75075E-05   -0.73947E-05  1536   0.240E-02
  88 F= -.47984396E+03 E0= -.47981316E+03  d E =-.944782E-02
       N       E                     dE             d eps       ncg     rms          rms(c)
DAV:   1    -0.479839074184E+03    0.48974E-02   -0.20890E+01  1424   0.839E+00    0.406E-01
DAV:   2    -0.479853825522E+03   -0.14751E-01   -0.16409E-01  1600   0.103E+00    0.264E-01
DAV:   3    -0.479853480941E+03    0.34458E-03   -0.49864E-03  1632   0.201E-01    0.175E-01
DAV:   4    -0.479853310846E+03    0.17010E-03   -0.10440E-03  1584   0.981E-02    0.851E-02
DAV:   5    -0.479853329081E+03   -0.18236E-04   -0.27486E-04  1568   0.503E-02    0.286E-02
DAV:   6    -0.479853343704E+03   -0.14623E-04   -0.44440E-05  1352   0.204E-02    0.155E-02
DAV:   7    -0.479853349559E+03   -0.58546E-05   -0.92083E-06   960   0.973E-03
  89 F= -.47985335E+03 E0= -.47982234E+03  d E =-.938549E-02
       N       E                     dE             d eps       ncg     rms          rms(c)
DAV:   1    -0.479851949773E+03    0.13939E-02   -0.35741E+00  1424   0.348E+00    0.165E-01
DAV:   2    -0.479854455250E+03   -0.25055E-02   -0.27882E-02  1600   0.423E-01    0.108E-01
DAV:   3    -0.479854394731E+03    0.60519E-04   -0.83553E-04  1624   0.810E-02    0.720E-02
DAV:   4    -0.479854370705E+03    0.24025E-04   -0.17828E-04  1568   0.406E-02    0.337E-02
DAV:   5    -0.479854377876E+03   -0.71706E-05   -0.46032E-05  1296   0.208E-02
  90 F= -.47985438E+03 E0= -.47982329E+03  d E =-.104138E-01
       N       E                     dE             d eps       ncg     rms          rms(c)
DAV:   1    -0.479848942597E+03    0.54281E-02   -0.19355E+01  1424   0.821E+00    0.402E-01
DAV:   2    -0.479862686736E+03   -0.13744E-01   -0.15677E-01  1592   0.100E+00    0.259E-01
DAV:   3    -0.479862391820E+03    0.29492E-03   -0.52107E-03  1632   0.200E-01    0.170E-01
DAV:   4    -0.479862233683E+03    0.15814E-03   -0.10623E-03  1568   0.948E-02    0.858E-02
DAV:   5    -0.479862257048E+03   -0.23366E-04   -0.36039E-04  1552   0.510E-02    0.280E-02
DAV:   6    -0.479862269906E+03   -0.12858E-04   -0.70557E-05  1400   0.229E-02    0.147E-02
DAV:   7    -0.479862277126E+03   -0.72194E-05   -0.11864E-05   960   0.996E-03
  91 F= -.47986228E+03 E0= -.47983120E+03  d E =-.789925E-02
       N       E                     dE             d eps       ncg     rms          rms(c)
DAV:   1    -0.479861766357E+03    0.50355E-03   -0.13821E+00  1424   0.220E+00    0.107E-01
DAV:   2    -0.479862742904E+03   -0.97655E-03   -0.11136E-02  1592   0.268E-01    0.688E-02
DAV:   3    -0.479862722986E+03    0.19919E-04   -0.36580E-04  1624   0.522E-02    0.459E-02
DAV:   4    -0.479862715413E+03    0.75731E-05   -0.77290E-05  1560   0.253E-02
  92 F= -.47986272E+03 E0= -.47983164E+03  d E =-.833754E-02
       N       E                     dE             d eps       ncg     rms          rms(c)
DAV:   1    -0.479860327970E+03    0.23950E-02   -0.12548E+01  1424   0.675E+00    0.356E-01
DAV:   2    -0.479869397840E+03   -0.90699E-02   -0.10391E-01  1584   0.824E-01    0.216E-01
[...]
DAV:   4    -0.479874632141E+03    0.96121E-04   -0.71672E-04  1608   0.802E-02    0.728E-02
DAV:   5    -0.479874648451E+03   -0.16310E-04   -0.17538E-04  1560   0.411E-02    0.231E-02
DAV:   6    -0.479874658515E+03   -0.10064E-04   -0.35113E-05  1280   0.166E-02    0.124E-02
DAV:   7    -0.479874662687E+03   -0.41722E-05   -0.74940E-06   952   0.792E-03
  95 F= -.47987466E+03 E0= -.47984356E+03  d E =-.482977E-02
       N       E                     dE             d eps       ncg     rms          rms(c)
DAV:   1    -0.479874670446E+03   -0.11931E-04   -0.52754E-03  1480   0.145E-01    0.854E-03
DAV:   2    -0.479874677757E+03   -0.73107E-05   -0.49900E-05  1352   0.187E-02
  96 F= -.47987468E+03 E0= -.47984358E+03  d E =-.484484E-02
       N       E                     dE             d eps       ncg     rms          rms(c)
DAV:   1    -0.479873284733E+03    0.13857E-02   -0.78728E+00  1440   0.575E+00    0.314E-01
DAV:   2    -0.479879265672E+03   -0.59809E-02   -0.72512E-02  1576   0.706E-01    0.202E-01
DAV:   3    -0.479879134700E+03    0.13097E-03   -0.26143E-03  1632   0.147E-01    0.128E-01
DAV:   4    -0.479879065463E+03    0.69237E-04   -0.62713E-04  1592   0.755E-02    0.574E-02
DAV:   5    -0.479879081139E+03   -0.15677E-04   -0.15055E-04  1568   0.371E-02    0.203E-02
DAV:   6    -0.479879087731E+03   -0.65915E-05   -0.26351E-05  1056   0.149E-02
  97 F= -.47987909E+03 E0= -.47984796E+03  d E =-.440997E-02
       N       E                     dE             d eps       ncg     rms          rms(c)
DAV:   1    -0.479878939766E+03    0.14137E-03   -0.62349E-01  1440   0.162E+00    0.890E-02
DAV:   2    -0.479879425096E+03   -0.48533E-03   -0.57886E-03  1592   0.199E-01    0.557E-02
DAV:   3    -0.479879418086E+03    0.70098E-05   -0.20544E-04  1632   0.405E-02    0.358E-02
DAV:   4    -0.479879416680E+03    0.14058E-05   -0.47725E-05  1312   0.210E-02
  98 F= -.47987942E+03 E0= -.47984828E+03  d E =-.473892E-02
       N       E                     dE             d eps       ncg     rms          rms(c)
DAV:   1    -0.479878054333E+03    0.13638E-02   -0.66020E+00  1440   0.547E+00    0.301E-01
DAV:   2    -0.479883589392E+03   -0.55351E-02   -0.65407E-02  1576   0.670E-01    0.192E-01
DAV:   3    -0.479883452108E+03    0.13728E-03   -0.23105E-03  1704   0.135E-01    0.124E-01
DAV:   4    -0.479883401097E+03    0.51010E-04   -0.44979E-04  1600   0.665E-02    0.580E-02
DAV:   5    -0.479883417690E+03   -0.16593E-04   -0.11638E-04  1608   0.367E-02    0.182E-02
DAV:   6    -0.479883423020E+03   -0.53296E-05   -0.22109E-05  1048   0.156E-02
  99 F= -.47988342E+03 E0= -.47985227E+03  d E =-.400634E-02
       N       E                     dE             d eps       ncg     rms          rms(c)
DAV:   1    -0.479883314785E+03    0.10291E-03   -0.27080E-01  1440   0.111E+00    0.626E-02
DAV:   2    -0.479883550074E+03   -0.23529E-03   -0.27174E-03  1600   0.136E-01    0.385E-02
DAV:   3    -0.479883546987E+03    0.30875E-05   -0.92215E-05  1632   0.271E-02
 100 F= -.47988355E+03 E0= -.47985239E+03  d E =-.413031E-02
       N       E                     dE             d eps       ncg     rms          rms(c)
DAV:   1    -0.479882653255E+03    0.89682E-03   -0.52866E+00  1440   0.497E+00    0.266E-01
DAV:   2    -0.479887034342E+03   -0.43811E-02   -0.52556E-02  1592   0.601E-01    0.176E-01
DAV:   3    -0.479886958306E+03    0.76036E-04   -0.18976E-03  1680   0.123E-01    0.113E-01
DAV:   4    -0.479886940757E+03    0.17548E-04   -0.37336E-04  1608   0.587E-02    0.549E-02
DAV:   5    -0.479886961413E+03   -0.20655E-04   -0.11830E-04  1576   0.346E-02    0.159E-02
DAV:   6    -0.479886966136E+03   -0.47229E-05   -0.28374E-05  1032   0.149E-02
 101 F= -.47988697E+03 E0= -.47985576E+03  d E =-.341915E-02
       N       E                     dE             d eps       ncg     rms          rms(c)
DAV:   1    -0.479885991711E+03    0.96970E-03   -0.17438E+00  1440   0.285E+00    0.152E-01
DAV:   2    -0.479887468660E+03   -0.14769E-02   -0.17469E-02  1592   0.346E-01    0.983E-02
DAV:   3    -0.479887448781E+03    0.19880E-04   -0.61312E-04  1672   0.698E-02    0.637E-02
DAV:   4    -0.479887445044E+03    0.37370E-05   -0.11762E-04  1592   0.332E-02    0.315E-02
DAV:   5    -0.479887453652E+03   -0.86081E-05   -0.36394E-05  1144   0.198E-02
 102 F= -.47988745E+03 E0= -.47985623E+03  d E =-.390666E-02
       N       E                     dE             d eps       ncg     rms          rms(c)
DAV:   1    -0.479885877748E+03    0.15673E-02   -0.58744E+00  1448   0.532E+00    0.287E-01
DAV:   2    -0.479891011467E+03   -0.51337E-02   -0.61022E-02  1600   0.653E-01    0.189E-01
DAV:   3    -0.479890949150E+03    0.62316E-04   -0.21134E-03  1640   0.130E-01    0.121E-01
DAV:   4    -0.479890923580E+03    0.25571E-04   -0.41804E-04  1616   0.643E-02    0.574E-02
DAV:   5    -0.479890946540E+03   -0.22960E-04   -0.10455E-04  1584   0.351E-02    0.176E-02
DAV:   6    -0.479890952146E+03   -0.56061E-05   -0.18389E-05  1000   0.135E-02
 103 F= -.47989095E+03 E0= -.47985959E+03  d E =-.349849E-02
       N       E                     dE             d eps       ncg     rms          rms(c)
DAV:   1    -0.479890587632E+03    0.35891E-03   -0.81501E-01  1448   0.198E+00    0.108E-01
DAV:   2    -0.479891311724E+03   -0.72409E-03   -0.85122E-03  1576   0.243E-01    0.699E-02
DAV:   3    -0.479891302138E+03    0.95858E-05   -0.28943E-04  1696   0.479E-02    0.451E-02
DAV:   4    -0.479891302213E+03   -0.74891E-07   -0.57768E-05  1432   0.240E-02
 104 F= -.47989130E+03 E0= -.47985989E+03  d E =-.384856E-02
       N       E                     dE             d eps       ncg     rms          rms(c)
DAV:   1    -0.479890756744E+03    0.54539E-03   -0.46154E+00  1440   0.480E+00    0.273E-01
DAV:   2    -0.479894946719E+03   -0.41900E-02   -0.50168E-02  1568   0.589E-01    0.173E-01
DAV:   3    -0.479894850029E+03    0.96690E-04   -0.16918E-03  1680   0.119E-01    0.112E-01
DAV:   4    -0.479894844752E+03    0.52773E-05   -0.36831E-04  1592   0.581E-02    0.529E-02
DAV:   5    -0.479894866625E+03   -0.21873E-04   -0.78568E-05  1616   0.306E-02    0.158E-02
DAV:   6    -0.479894870970E+03   -0.43447E-05   -0.17631E-05   960   0.133E-02
 105 F= -.47989487E+03 E0= -.47986347E+03  d E =-.356876E-02
       N       E                     dE             d eps       ncg     rms          rms(c)
DAV:   1    -0.479894215470E+03    0.65116E-03   -0.15124E+00  1440   0.275E+00    0.156E-01
DAV:   2    -0.479895615630E+03   -0.14002E-02   -0.16542E-02  1560   0.338E-01    0.979E-02
DAV:   3    -0.479895585026E+03    0.30604E-04   -0.54860E-04  1680   0.675E-02    0.638E-02
DAV:   4    -0.479895584330E+03    0.69629E-06   -0.12032E-04  1600   0.330E-02    0.299E-02
DAV:   5    -0.479895592669E+03   -0.83393E-05   -0.23786E-05  1064   0.170E-02
 106 F= -.47989559E+03 E0= -.47986420E+03  d E =-.429046E-02
       N       E                     dE             d eps       ncg     rms          rms(c)
DAV:   1    -0.479894726059E+03    0.85827E-03   -0.43919E+00  1424   0.475E+00    0.277E-01
DAV:   2    -0.479898927956E+03   -0.42019E-02   -0.50597E-02  1608   0.589E-01    0.176E-01
DAV:   3    -0.479898806024E+03    0.12193E-03   -0.18025E-03  1640   0.124E-01    0.114E-01
DAV:   4    -0.479898799654E+03    0.63707E-05   -0.53675E-04  1608   0.627E-02    0.592E-02
DAV:   5    -0.479898819458E+03   -0.19805E-04   -0.18751E-04  1600   0.360E-02    0.194E-02
DAV:   6    -0.479898825984E+03   -0.65256E-05   -0.43212E-05  1112   0.172E-02
 107 F= -.47989883E+03 E0= -.47986755E+03  d E =-.323332E-02
       N       E                     dE             d eps       ncg     rms          rms(c)
DAV:   1    -0.479898552702E+03    0.26676E-03   -0.63539E-01  1432   0.181E+00    0.106E-01
DAV:   2    -0.479899164543E+03   -0.61184E-03   -0.73142E-03  1616   0.224E-01    0.664E-02
DAV:   3    -0.479899148835E+03    0.15708E-04   -0.25242E-04  1648   0.465E-02    0.434E-02
DAV:   4    -0.479899151542E+03   -0.27076E-05   -0.78023E-05  1568   0.238E-02
 108 F= -.47989915E+03 E0= -.47986791E+03  d E =-.355887E-02
       N       E                     dE             d eps       ncg     rms          rms(c)
DAV:   1    -0.479898334716E+03    0.81412E-03   -0.33018E+00  1440   0.417E+00    0.254E-01
DAV:   2    -0.479901492971E+03   -0.31583E-02   -0.38720E-02  1584   0.522E-01    0.160E-01
DAV:   3    -0.479901407078E+03    0.85893E-04   -0.14171E-03  1664   0.111E-01    0.104E-01
DAV:   4    -0.479901399437E+03    0.76405E-05   -0.30615E-04  1592   0.538E-02    0.547E-02
DAV:   5    -0.479901419068E+03   -0.19631E-04   -0.67407E-05  1440   0.285E-02    0.151E-02
DAV:   6    -0.479901423748E+03   -0.46799E-05   -0.14542E-05   960   0.118E-02
 109 F= -.47990142E+03 E0= -.47987016E+03  d E =-.227221E-02
       N       E                     dE             d eps       ncg     rms          rms(c)
DAV:   1    -0.479901311871E+03    0.10720E-03   -0.28032E-01  1440   0.122E+00    0.748E-02
DAV:   2    -0.479901588586E+03   -0.27671E-03   -0.33306E-03  1608   0.153E-01    0.458E-02
DAV:   3    -0.479901582829E+03    0.57564E-05   -0.11828E-04  1656   0.322E-02    0.298E-02
DAV:   4    -0.479901583846E+03   -0.10172E-05   -0.23266E-05  1056   0.155E-02
 110 F= -.47990158E+03 E0= -.47987031E+03  d E =-.243230E-02
       N       E                     dE             d eps       ncg     rms          rms(c)
DAV:   1    -0.479901419162E+03    0.16367E-03   -0.22177E+00  1440   0.346E+00    0.204E-01
DAV:   2    -0.479903565828E+03   -0.21467E-02   -0.26291E-02  1592   0.429E-01    0.129E-01
DAV:   3    -0.479903506476E+03    0.59352E-04   -0.95126E-04  1672   0.895E-02    0.835E-02
DAV:   4    -0.479903503491E+03    0.29846E-05   -0.22329E-04  1592   0.448E-02    0.428E-02
DAV:   5    -0.479903517360E+03   -0.13869E-04   -0.73346E-05  1424   0.250E-02    0.134E-02
DAV:   6    -0.479903520577E+03   -0.32176E-05   -0.18998E-05   944   0.117E-02
 111 F= -.47990352E+03 E0= -.47987221E+03  d E =-.193673E-02
       N       E                     dE             d eps       ncg     rms          rms(c)
DAV:   1    -0.479903005114E+03    0.51225E-03   -0.87906E-01  1440   0.218E+00    0.129E-01
DAV:   2    -0.479903870900E+03   -0.86579E-03   -0.10503E-02  1568   0.270E-01    0.804E-02
DAV:   3    -0.479903848359E+03    0.22541E-04   -0.36507E-04  1664   0.556E-02    0.522E-02
DAV:   4    -0.479903848767E+03   -0.40868E-06   -0.87773E-05  1600   0.278E-02
 112 F= -.47990385E+03 E0= -.47987250E+03  d E =-.226492E-02
       N       E                     dE             d eps       ncg     rms          rms(c)
DAV:   1    -0.479904164555E+03   -0.31620E-03   -0.14217E+00  1472   0.277E+00    0.159E-01
DAV:   2    -0.479905495087E+03   -0.13305E-02   -0.16222E-02  1560   0.337E-01    0.102E-01
DAV:   3    -0.479905449106E+03    0.45981E-04   -0.47825E-04  1704   0.650E-02    0.642E-02
DAV:   4    -0.479905454891E+03   -0.57848E-05   -0.15993E-04  1584   0.380E-02    0.266E-02
DAV:   5    -0.479905462151E+03   -0.72594E-05   -0.35976E-05  1072   0.189E-02
 113 F= -.47990546E+03 E0= -.47987412E+03  d E =-.161338E-02
       N       E                     dE             d eps       ncg     rms          rms(c)
DAV:   1    -0.479905325120E+03    0.12977E-03   -0.93611E-01  1472   0.224E+00    0.128E-01
DAV:   2    -0.479906223281E+03   -0.89816E-03   -0.10756E-02  1568   0.274E-01    0.808E-02
DAV:   3    -0.479906193540E+03    0.29742E-04   -0.30416E-04  1712   0.517E-02    0.510E-02
DAV:   4    -0.479906196884E+03   -0.33444E-05   -0.95951E-05  1592   0.299E-02
 114 F= -.47990620E+03 E0= -.47987483E+03  d E =-.234812E-02
       N       E                     dE             d eps       ncg     rms          rms(c)
DAV:   1    -0.479902616558E+03    0.35770E-02   -0.37464E+00  1456   0.449E+00    0.257E-01
DAV:   2    -0.479906199282E+03   -0.35827E-02   -0.43272E-02  1568   0.550E-01    0.165E-01
DAV:   3    -0.479906069790E+03    0.12949E-03   -0.12736E-03  1704   0.106E-01    0.104E-01
DAV:   4    -0.479906071596E+03   -0.18062E-05   -0.40586E-04  1600   0.610E-02    0.431E-02
DAV:   5    -0.479906090267E+03   -0.18671E-04   -0.87839E-05  1528   0.300E-02    0.162E-02
DAV:   6    -0.479906094993E+03   -0.47258E-05   -0.18825E-05   936   0.117E-02
 115 F= -.47990609E+03 E0= -.47987471E+03  d E =-.224623E-02
       N       E                     dE             d eps       ncg     rms          rms(c)
DAV:   1    -0.479905050953E+03    0.10393E-02   -0.14772E+00  1456   0.282E+00    0.159E-01
DAV:   2    -0.479906453151E+03   -0.14022E-02   -0.17071E-02  1592   0.345E-01    0.102E-01
DAV:   3    -0.479906402351E+03    0.50799E-04   -0.49945E-04  1736   0.646E-02    0.648E-02
DAV:   4    -0.479906403949E+03   -0.15977E-05   -0.15129E-04  1592   0.374E-02    0.258E-02
DAV:   5    -0.479906412814E+03   -0.88654E-05   -0.29654E-05  1096   0.179E-02
 116 F= -.47990641E+03 E0= -.47987504E+03  d E =-.256405E-02
       N       E                     dE             d eps       ncg     rms          rms(c)
DAV:   1    -0.479906608901E+03   -0.20495E-03   -0.20720E+00  1472   0.334E+00    0.190E-01
DAV:   2    -0.479908553096E+03   -0.19442E-02   -0.23801E-02  1528   0.413E-01    0.122E-01
DAV:   3    -0.479908477822E+03    0.75274E-04   -0.72721E-04  1728   0.780E-02    0.767E-02
DAV:   4    -0.479908473578E+03    0.42444E-05   -0.21414E-04  1592   0.451E-02    0.301E-02
DAV:   5    -0.479908482493E+03   -0.89158E-05   -0.40898E-05  1272   0.211E-02
 117 F= -.47990848E+03 E0= -.47987711E+03  d E =-.206968E-02
       N       E                     dE             d eps       ncg     rms          rms(c)
DAV:   1    -0.479907107014E+03    0.13666E-02   -0.24313E+00  1472   0.362E+00    0.208E-01
DAV:   2    -0.479909415402E+03   -0.23084E-02   -0.27920E-02  1560   0.447E-01    0.132E-01
DAV:   3    -0.479909341419E+03    0.73983E-04   -0.86306E-04  1728   0.847E-02    0.825E-02
DAV:   4    -0.479909344123E+03   -0.27038E-05   -0.24573E-04  1600   0.483E-02    0.330E-02
DAV:   5    -0.479909356040E+03   -0.11917E-04   -0.46931E-05  1328   0.225E-02    0.125E-02
DAV:   6    -0.479909359542E+03   -0.35025E-05   -0.82205E-06   920   0.847E-03
 118 F= -.47990936E+03 E0= -.47987798E+03  d E =-.294673E-02
       N       E                     dE             d eps       ncg     rms          rms(c)
DAV:   1    -0.479909294327E+03    0.61713E-04   -0.22684E+00  1472   0.349E+00    0.188E-01
DAV:   2    -0.479911444927E+03   -0.21506E-02   -0.25662E-02  1584   0.424E-01    0.123E-01
DAV:   3    -0.479911379823E+03    0.65104E-04   -0.76884E-04  1704   0.785E-02    0.772E-02
DAV:   4    -0.479911385740E+03   -0.59165E-05   -0.20854E-04  1608   0.438E-02    0.307E-02
DAV:   5    -0.479911397396E+03   -0.11656E-04   -0.61696E-05  1344   0.226E-02    0.114E-02
DAV:   6    -0.479911400112E+03   -0.27161E-05   -0.13101E-05   928   0.101E-02
 119 F= -.47991140E+03 E0= -.47988001E+03  d E =-.204057E-02
       N       E                     dE             d eps       ncg     rms          rms(c)
DAV:   1    -0.479910756387E+03    0.64101E-03   -0.14996E+00  1472   0.284E+00    0.153E-01
DAV:   2    -0.479912181459E+03   -0.14251E-02   -0.16966E-02  1560   0.345E-01    0.998E-02
DAV:   3    -0.479912139688E+03    0.41772E-04   -0.51015E-04  1704   0.637E-02    0.627E-02
DAV:   4    -0.479912145381E+03   -0.56931E-05   -0.13953E-04  1592   0.357E-02    0.250E-02
DAV:   5    -0.479912153533E+03   -0.81522E-05   -0.40574E-05  1104   0.184E-02
 120 F= -.47991215E+03 E0= -.47988077E+03  d E =-.279399E-02
       N       E                     dE             d eps       ncg     rms          rms(c)
DAV:   1    -0.479911992990E+03    0.15239E-03   -0.24889E-01  1472   0.116E+00    0.639E-02
DAV:   2    -0.479912231545E+03   -0.23855E-03   -0.28058E-03  1552   0.140E-01    0.403E-02
DAV:   3    -0.479912227363E+03    0.41821E-05   -0.83082E-05  1624   0.258E-02
 121 F= -.47991223E+03 E0= -.47988084E+03  d E =-.286782E-02
       N       E                     dE             d eps       ncg     rms          rms(c)
DAV:   1    -0.479911052998E+03    0.11785E-02   -0.31946E+00  1472   0.412E+00    0.229E-01
DAV:   2    -0.479913980237E+03   -0.29272E-02   -0.35822E-02  1568   0.506E-01    0.149E-01
DAV:   3    -0.479913893213E+03    0.87025E-04   -0.12341E-03  1688   0.997E-02    0.940E-02
DAV:   4    -0.479913895691E+03   -0.24786E-05   -0.26528E-04  1616   0.517E-02    0.399E-02
DAV:   5    -0.479913913028E+03   -0.17336E-04   -0.62784E-05  1472   0.253E-02    0.129E-02
DAV:   6    -0.479913915792E+03   -0.27640E-05   -0.10636E-05   944   0.108E-02
 122 F= -.47991392E+03 E0= -.47988246E+03  d E =-.168843E-02
       N       E                     dE             d eps       ncg     rms          rms(c)
DAV:   1    -0.479913698751E+03    0.21428E-03   -0.36467E-01  1472   0.139E+00    0.770E-02
DAV:   2    -0.479914045678E+03   -0.34693E-03   -0.41517E-03  1584   0.172E-01    0.493E-02
DAV:   3    -0.479914037171E+03    0.85069E-05   -0.13789E-04  1688   0.334E-02    0.315E-02
DAV:   4    -0.479914038379E+03   -0.12084E-05   -0.27829E-05  1112   0.176E-02
 123 F= -.47991404E+03 E0= -.47988256E+03  d E =-.181102E-02
       N       E                     dE             d eps       ncg     rms          rms(c)
DAV:   1    -0.479914123956E+03   -0.86785E-04   -0.12688E+00  1472   0.260E+00    0.149E-01
DAV:   2    -0.479915292490E+03   -0.11685E-02   -0.14194E-02  1608   0.321E-01    0.928E-02
DAV:   3    -0.479915261271E+03    0.31219E-04   -0.48159E-04  1672   0.635E-02    0.590E-02
DAV:   4    -0.479915263232E+03   -0.19617E-05   -0.11544E-04  1592   0.335E-02    0.265E-02
DAV:   5    -0.479915271125E+03   -0.78925E-05   -0.27720E-05  1136   0.170E-02
 124 F= -.47991527E+03 E0= -.47988381E+03  d E =-.123275E-02
       N       E                     dE             d eps       ncg     rms          rms(c)
DAV:   1    -0.479914948300E+03    0.31493E-03   -0.62287E-01  1472   0.182E+00    0.105E-01
DAV:   2    -0.479915530026E+03   -0.58173E-03   -0.69921E-03  1608   0.225E-01    0.643E-02
DAV:   3    -0.479915516481E+03    0.13544E-04   -0.23312E-04  1680   0.439E-02    0.408E-02
DAV:   4    -0.479915518940E+03   -0.24590E-05   -0.53733E-05  1568   0.229E-02
 125 F= -.47991552E+03 E0= -.47988405E+03  d E =-.148056E-02
       N       E                     dE             d eps       ncg     rms          rms(c)
DAV:   1    -0.479915484258E+03    0.32223E-04   -0.13363E+00  1472   0.266E+00    0.143E-01
DAV:   2    -0.479916691488E+03   -0.12072E-02   -0.14560E-02  1544   0.321E-01    0.932E-02
DAV:   3    -0.479916662784E+03    0.28704E-04   -0.50540E-04  1696   0.628E-02    0.585E-02
DAV:   4    -0.479916669314E+03   -0.65305E-05   -0.15511E-04  1576   0.349E-02    0.241E-02
DAV:   5    -0.479916676034E+03   -0.67200E-05   -0.48274E-05  1112   0.183E-02
 126 F= -.47991668E+03 E0= -.47988524E+03  d E =-.115709E-02
       N       E                     dE             d eps       ncg     rms          rms(c)
DAV:   1    -0.479916614421E+03    0.54893E-04   -0.31089E-01  1472   0.128E+00    0.691E-02
DAV:   2    -0.479916903733E+03   -0.28931E-03   -0.34064E-03  1560   0.155E-01    0.440E-02
DAV:   3    -0.479916898729E+03    0.50040E-05   -0.11264E-04  1672   0.297E-02    0.278E-02
DAV:   4    -0.479916901452E+03   -0.27232E-05   -0.31645E-05  1056   0.164E-02
 127 F= -.47991690E+03 E0= -.47988546E+03  d E =-.138251E-02
       N       E                     dE             d eps       ncg     rms          rms(c)
DAV:   1    -0.479917322193E+03   -0.42346E-03   -0.44519E-01  1472   0.156E+00    0.960E-02
DAV:   2    -0.479917743054E+03   -0.42086E-03   -0.53828E-03  1648   0.198E-01    0.602E-02
DAV:   3    -0.479917723261E+03    0.19793E-04   -0.21828E-04  1656   0.415E-02    0.380E-02
DAV:   4    -0.479917720827E+03    0.24344E-05   -0.50614E-05  1504   0.213E-02
 128 F= -.47991772E+03 E0= -.47988626E+03  d E =-.819375E-03
