  59  59   0   0
  0.3948347E+02  0.1375970E-08  0.1128670E-08  0.1500000E-08  0.1000000E-15
  1.000000000000000E-004
  CAR 
 slab_Cel1-OPT                           
      4.18414991    -27.45638161  301     -1.72806111      1.00000000
    -27.456  0.0000E+00  0.0000E+00
    -27.351  0.0000E+00  0.0000E+00
    -27.245  0.0000E+00  0.0000E+00
    -27.140  0.0000E+00  0.0000E+00
    -27.035  0.0000E+00  0.0000E+00
    -26.929  0.0000E+00  0.0000E+00
    -26.824  0.0000E+00  0.0000E+00
    -26.718  0.0000E+00  0.0000E+00
    -26.613  0.0000E+00  0.0000E+00
    -26.507  0.1131E-13  0.1192E-14
    -26.402  0.1454E-09  0.1533E-10
    -26.296  0.2237E-06  0.2361E-07
    -26.191  0.4505E-04  0.4775E-05
    -26.085  0.1421E-02  0.1546E-03
    -25.980  0.9482E-02  0.1155E-02
    -25.874  0.2009E-01  0.3273E-02
    -25.769  0.2480E-01  0.5889E-02
    -25.663  0.1678E-01  0.7659E-02
    -25.558  0.3116E-02  0.7988E-02
    -25.452  0.1173E-03  0.8000E-02
    -25.347  0.7287E-06  0.8000E-02
    -25.242  0.1256E-07  0.8000E-02
    -25.136  0.7056E-05  0.8001E-02
    -25.031  0.5336E-03  0.8057E-02
    -24.925  0.5933E-02  0.8683E-02
    -24.820  0.1351E-01  0.1011E-01
    -24.714  0.1414E-01  0.1160E-01
    -24.609  0.1126E-01  0.1279E-01
    -24.503  0.8953E-02  0.1373E-01
    -24.398  0.9274E-02  0.1471E-01
    -24.292  0.6424E-02  0.1539E-01
    -24.187  0.1046E-02  0.1550E-01
    -24.081  0.3710E-04  0.1550E-01
    -23.976  0.3860E-03  0.1554E-01
    -23.870  0.2427E-02  0.1580E-01
    -23.765  0.7458E-02  0.1658E-01
    -23.660  0.2422E-01  0.1914E-01
    -23.554  0.3026E-01  0.2233E-01
    -23.449  0.1653E-01  0.2407E-01
    -23.343  0.3778E-02  0.2447E-01
    -23.238  0.2681E-03  0.2450E-01
    -23.132  0.3223E-03  0.2453E-01
    -23.027  0.4102E-02  0.2497E-01
    -22.921  0.1005E-01  0.2603E-01
    -22.816  0.8314E-02  0.2690E-01
    -22.710  0.8544E-02  0.2780E-01
    -22.605  0.1305E-01  0.2918E-01
    -22.499  0.1320E-01  0.3057E-01
    -22.394  0.1009E-01  0.3164E-01
    -22.288  0.3175E-02  0.3197E-01
    -22.183  0.2673E-03  0.3200E-01
    -22.077  0.4300E-05  0.3200E-01
    -21.972  0.5593E-04  0.3201E-01
    -21.867  0.1655E-02  0.3218E-01
    -21.761  0.1150E-01  0.3339E-01
    -21.656  0.3120E-01  0.3668E-01
    -21.550  0.3741E-01  0.4063E-01
    -21.445  0.3091E-01  0.4389E-01
    -21.339  0.2625E-01  0.4666E-01
    -21.234  0.1142E-01  0.4786E-01
    -21.128  0.1305E-02  0.4800E-01
    -21.023  0.8856E-03  0.4809E-01
    -20.917  0.4589E-02  0.4858E-01
    -20.812  0.1232E-01  0.4988E-01
    -20.706  0.2038E-01  0.5203E-01
    -20.601  0.1930E-01  0.5406E-01
    -20.495  0.1354E-01  0.5549E-01
    -20.390  0.4978E-02  0.5602E-01
    -20.285  0.8146E-02  0.5688E-01
    -20.179  0.1935E-01  0.5892E-01
    -20.074  0.2008E-01  0.6103E-01
    -19.968  0.1952E-01  0.6309E-01
    -19.863  0.7820E-02  0.6392E-01
    -19.757  0.7649E-03  0.6400E-01
    -19.652  0.1465E-04  0.6400E-01
    -19.546  0.4301E-07  0.6400E-01
    -19.441  0.1632E-10  0.6400E-01
    -19.335  0.7337E-15  0.6400E-01
    -19.230  0.0000E+00  0.6400E-01
    -19.124  0.0000E+00  0.6400E-01
    -19.019  0.0000E+00  0.6400E-01
    -18.913  0.0000E+00  0.6400E-01
    -18.808  0.0000E+00  0.6400E-01
    -18.703  0.0000E+00  0.6400E-01
    -18.597  0.0000E+00  0.6400E-01
    -18.492  0.0000E+00  0.6400E-01
    -18.386  0.0000E+00  0.6400E-01
    -18.281  0.0000E+00  0.6400E-01
    -18.175  0.0000E+00  0.6400E-01
    -18.070  0.0000E+00  0.6400E-01
    -17.964  0.0000E+00  0.6400E-01
    -17.859  0.1842E-17  0.6400E-01
    -17.753  0.1328E-12  0.6400E-01
    -17.648  0.1128E-08  0.6400E-01
    -17.542  0.1149E-05  0.6400E-01
    -17.437  0.1500E-03  0.6402E-01
    -17.331  0.2883E-02  0.6432E-01
    -17.226  0.1076E-01  0.6546E-01
    -17.120  0.1355E-01  0.6688E-01
    -17.015  0.1262E-01  0.6822E-01
    -16.910  0.1399E-01  0.6969E-01
    -16.804  0.2002E-01  0.7180E-01
    -16.699  0.2218E-01  0.7414E-01
    -16.593  0.1656E-01  0.7589E-01
    -16.488  0.1131E-01  0.7708E-01
    -16.382  0.1147E-01  0.7829E-01
    -16.277  0.9255E-02  0.7927E-01
    -16.171  0.2135E-02  0.7949E-01
    -16.066  0.1482E-03  0.7951E-01
    -15.960  0.1070E-02  0.7962E-01
    -15.855  0.2578E-02  0.7989E-01
    -15.749  0.9724E-03  0.7999E-01
    -15.644  0.5427E-04  0.8000E-01
    -15.538  0.8230E-04  0.8001E-01
    -15.433  0.2428E-02  0.8026E-01
    -15.328  0.1559E-01  0.8191E-01
    -15.222  0.3040E-01  0.8511E-01
    -15.117  0.1959E-01  0.8718E-01
    -15.011  0.5099E-02  0.8772E-01
    -14.906  0.2467E-02  0.8798E-01
    -14.800  0.2099E-02  0.8820E-01
    -14.695  0.2545E-02  0.8847E-01
    -14.589  0.2256E-02  0.8871E-01
    -14.484  0.2309E-02  0.8895E-01
    -14.378  0.7740E-03  0.8903E-01
    -14.273  0.4865E-02  0.8954E-01
    -14.167  0.1403E-01  0.9102E-01
    -14.062  0.1172E-01  0.9226E-01
    -13.956  0.1098E-01  0.9342E-01
    -13.851  0.1342E-01  0.9484E-01
    -13.745  0.1502E-01  0.9642E-01
    -13.640  0.2450E-01  0.9900E-01
    -13.535  0.2603E-01  0.1017E+00
    -13.429  0.2555E-01  0.1044E+00
    -13.324  0.3063E-01  0.1077E+00
    -13.218  0.2426E-01  0.1102E+00
    -13.113  0.1924E-01  0.1123E+00
    -13.007  0.1610E-01  0.1140E+00
    -12.902  0.7052E-02  0.1147E+00
    -12.796  0.5999E-02  0.1153E+00
    -12.691  0.6708E-02  0.1160E+00
    -12.585  0.9164E-02  0.1170E+00
    -12.480  0.7644E-02  0.1178E+00
    -12.374  0.5632E-02  0.1184E+00
    -12.269  0.6006E-02  0.1190E+00
    -12.163  0.8173E-02  0.1199E+00
    -12.058  0.5297E-02  0.1205E+00
    -11.953  0.4657E-02  0.1210E+00
    -11.847  0.8208E-02  0.1218E+00
    -11.742  0.1389E-01  0.1233E+00
    -11.636  0.1747E-01  0.1251E+00
    -11.531  0.1926E-01  0.1272E+00
    -11.425  0.2366E-01  0.1297E+00
    -11.320  0.2090E-01  0.1319E+00
    -11.214  0.1848E-01  0.1338E+00
    -11.109  0.2002E-01  0.1359E+00
    -11.003  0.2016E-01  0.1380E+00
    -10.898  0.1208E-01  0.1393E+00
    -10.792  0.8995E-02  0.1403E+00
    -10.687  0.6311E-02  0.1409E+00
    -10.581  0.4886E-02  0.1415E+00
    -10.476  0.1005E-01  0.1425E+00
    -10.370  0.1730E-01  0.1443E+00
    -10.265  0.1896E-01  0.1463E+00
    -10.160  0.1822E-01  0.1483E+00
    -10.054  0.1617E-01  0.1500E+00
     -9.949  0.1300E-01  0.1513E+00
     -9.843  0.5632E-02  0.1519E+00
     -9.738  0.1474E-02  0.1521E+00
     -9.632  0.3254E-02  0.1524E+00
     -9.527  0.6898E-02  0.1532E+00
     -9.421  0.1085E-01  0.1543E+00
     -9.316  0.1489E-01  0.1559E+00
     -9.210  0.2212E-01  0.1582E+00
     -9.105  0.1643E-01  0.1599E+00
     -8.999  0.2079E-01  0.1621E+00
     -8.894  0.2990E-01  0.1653E+00
     -8.788  0.3029E-01  0.1685E+00
     -8.683  0.1300E-01  0.1698E+00
     -8.578  0.1441E-02  0.1700E+00
     -8.472  0.1532E-03  0.1700E+00
     -8.367  0.2869E-02  0.1703E+00
     -8.261  0.1113E-01  0.1715E+00
     -8.156  0.9229E-02  0.1725E+00
     -8.050  0.1002E-01  0.1735E+00
     -7.945  0.2189E-01  0.1758E+00
     -7.839  0.1914E-01  0.1778E+00
     -7.734  0.1741E-01  0.1797E+00
     -7.628  0.1665E-01  0.1814E+00
     -7.523  0.4926E-02  0.1820E+00
     -7.417  0.7757E-03  0.1820E+00
     -7.312  0.7068E-02  0.1828E+00
     -7.206  0.2749E-01  0.1857E+00
     -7.101  0.3623E-01  0.1895E+00
     -6.996  0.3206E-01  0.1929E+00
     -6.890  0.3484E-01  0.1966E+00
     -6.785  0.3928E-01  0.2007E+00
     -6.679  0.3495E-01  0.2044E+00
     -6.574  0.2079E-01  0.2066E+00
     -6.468  0.1155E-01  0.2078E+00
     -6.363  0.1359E-01  0.2092E+00
     -6.257  0.3099E-01  0.2125E+00
     -6.152  0.3677E-01  0.2164E+00
     -6.046  0.2827E-01  0.2194E+00
     -5.941  0.1960E-01  0.2214E+00
     -5.835  0.2352E-01  0.2239E+00
     -5.730  0.2489E-01  0.2265E+00
     -5.624  0.1657E-01  0.2283E+00
     -5.519  0.2209E-01  0.2306E+00
     -5.413  0.3573E-01  0.2344E+00
     -5.308  0.3108E-01  0.2377E+00
     -5.203  0.3148E-01  0.2410E+00
     -5.097  0.4008E-01  0.2452E+00
     -4.992  0.3987E-01  0.2494E+00
     -4.886  0.3908E-01  0.2535E+00
     -4.781  0.3501E-01  0.2572E+00
     -4.675  0.2551E-01  0.2599E+00
     -4.570  0.2452E-01  0.2625E+00
     -4.464  0.2843E-01  0.2655E+00
     -4.359  0.2032E-01  0.2676E+00
     -4.253  0.1240E-01  0.2690E+00
     -4.148  0.1144E-01  0.2702E+00
     -4.042  0.1568E-01  0.2718E+00
     -3.937  0.2244E-01  0.2742E+00
     -3.831  0.2428E-01  0.2767E+00
     -3.726  0.2396E-01  0.2793E+00
     -3.621  0.2567E-01  0.2820E+00
     -3.515  0.1718E-01  0.2838E+00
     -3.410  0.8679E-02  0.2847E+00
     -3.304  0.9800E-02  0.2857E+00
     -3.199  0.2406E-02  0.2860E+00
     -3.093  0.1410E-03  0.2860E+00
     -2.988  0.1909E-02  0.2862E+00
     -2.882  0.9242E-02  0.2872E+00
     -2.777  0.6949E-02  0.2879E+00
     -2.671  0.7953E-03  0.2880E+00
     -2.566  0.1245E-04  0.2880E+00
     -2.460  0.2420E-07  0.2880E+00
     -2.355  0.5523E-11  0.2880E+00
     -2.249  0.1520E-13  0.2880E+00
     -2.144  0.1806E-09  0.2880E+00
     -2.038  0.2600E-06  0.2880E+00
     -1.933  0.4967E-04  0.2880E+00
     -1.828  0.1493E-02  0.2882E+00
     -1.722  0.8655E-02  0.2891E+00
     -1.617  0.1301E-01  0.2904E+00
     -1.511  0.1114E-01  0.2916E+00
     -1.406  0.1269E-01  0.2930E+00
     -1.300  0.1132E-01  0.2942E+00
     -1.195  0.8719E-02  0.2951E+00
     -1.089  0.9429E-02  0.2961E+00
     -0.984  0.1563E-01  0.2977E+00
     -0.878  0.2197E-01  0.3000E+00
     -0.773  0.2389E-01  0.3026E+00
     -0.667  0.1746E-01  0.3044E+00
     -0.562  0.1464E-01  0.3059E+00
     -0.456  0.1110E-01  0.3071E+00
     -0.351  0.1825E-01  0.3090E+00
     -0.246  0.2581E-01  0.3118E+00
     -0.140  0.1910E-01  0.3138E+00
     -0.035  0.1292E-01  0.3151E+00
      0.071  0.7317E-02  0.3159E+00
      0.176  0.8858E-03  0.3160E+00
      0.282  0.1593E-04  0.3160E+00
      0.387  0.6384E-04  0.3160E+00
      0.493  0.1968E-02  0.3162E+00
      0.598  0.9124E-02  0.3172E+00
      0.704  0.6942E-02  0.3179E+00
      0.809  0.8857E-03  0.3180E+00
      0.915  0.7996E-03  0.3181E+00
      1.020  0.2900E-02  0.3184E+00
      1.126  0.4475E-02  0.3189E+00
      1.231  0.8972E-02  0.3198E+00
      1.337  0.1436E-01  0.3213E+00
      1.442  0.1507E-01  0.3229E+00
      1.547  0.2064E-01  0.3251E+00
      1.653  0.2386E-01  0.3276E+00
      1.758  0.2434E-01  0.3302E+00
      1.864  0.2097E-01  0.3324E+00
      1.969  0.2458E-01  0.3350E+00
      2.075  0.3155E-01  0.3383E+00
      2.180  0.2835E-01  0.3413E+00
      2.286  0.1844E-01  0.3432E+00
      2.391  0.1572E-01  0.3449E+00
      2.497  0.1956E-01  0.3470E+00
      2.602  0.1996E-01  0.3491E+00
      2.708  0.1801E-01  0.3510E+00
      2.813  0.8425E-02  0.3519E+00
      2.919  0.1322E-02  0.3520E+00
      3.024  0.4385E-04  0.3520E+00
      3.129  0.2218E-06  0.3520E+00
      3.235  0.1450E-09  0.3520E+00
      3.340  0.1130E-13  0.3520E+00
      3.446  0.0000E+00  0.3520E+00
      3.551  0.0000E+00  0.3520E+00
      3.657  0.0000E+00  0.3520E+00
      3.762  0.0000E+00  0.3520E+00
      3.868  0.0000E+00  0.3520E+00
      3.973  0.0000E+00  0.3520E+00
      4.079  0.0000E+00  0.3520E+00
      4.184  0.0000E+00  0.3520E+00
