       N       E                     dE             d eps       ncg     rms          rms(c)
DAV:   1     0.266100096803E+04    0.26610E+04   -0.10299E+05  1600   0.105E+03
DAV:   2     0.188738052615E+02   -0.26421E+04   -0.25130E+04  2000   0.299E+02
DAV:   3    -0.484813749124E+03   -0.50369E+03   -0.49629E+03  1728   0.143E+02
DAV:   4    -0.514702532460E+03   -0.29889E+02   -0.29084E+02  2104   0.541E+01
DAV:   5    -0.515510255003E+03   -0.80772E+00   -0.77685E+00  1832   0.502E+00    0.623E+01
DAV:   6    -0.563745127429E+03   -0.48235E+02   -0.60825E+02  1936   0.182E+02    0.426E+01
DAV:   7    -0.500174868931E+03    0.63570E+02   -0.18053E+02  1904   0.349E+01    0.282E+01
DAV:   8    -0.478577067126E+03    0.21598E+02   -0.11439E+02  1936   0.714E+01    0.974E+00
DAV:   9    -0.491650374551E+03   -0.13073E+02   -0.24084E+01  2168   0.232E+01    0.742E+01
DAV:  10    -0.479505402163E+03    0.12145E+02   -0.65614E+01  2128   0.219E+01    0.759E+00
DAV:  11    -0.478927551473E+03    0.57785E+00   -0.40004E+00  2232   0.208E+01    0.361E+00
DAV:  12    -0.478836624236E+03    0.90927E-01   -0.30285E-01  2016   0.195E+00    0.327E+00
DAV:  13    -0.478783411447E+03    0.53213E-01   -0.55414E-02  1952   0.941E-01    0.323E+00
DAV:  14    -0.478704160824E+03    0.79251E-01   -0.16956E-02  2160   0.221E+00    0.286E+00
DAV:  15    -0.478572052124E+03    0.13211E+00   -0.92773E-02  2184   0.449E+00    0.200E+00
DAV:  16    -0.478507514553E+03    0.64538E-01   -0.62297E-02  2208   0.283E+00    0.138E+00
DAV:  17    -0.478474427343E+03    0.33087E-01   -0.35086E-02  2184   0.199E+00    0.859E-01
DAV:  18    -0.478467969050E+03    0.64583E-02   -0.17464E-02  2112   0.783E-01    0.635E-01
DAV:  19    -0.478465049151E+03    0.29199E-02   -0.36794E-03  2256   0.565E-01    0.433E-01
DAV:  20    -0.478463480757E+03    0.15684E-02   -0.35074E-03  2088   0.583E-01    0.207E-01
DAV:  21    -0.478464052558E+03   -0.57180E-03   -0.18739E-03  2144   0.228E-01    0.111E-01
DAV:  22    -0.478464447593E+03   -0.39503E-03   -0.37147E-04  1656   0.173E-01    0.399E-02
DAV:  23    -0.478464968920E+03   -0.52133E-03   -0.20074E-04  1680   0.420E-02    0.274E-02
DAV:  24    -0.478465100091E+03   -0.13117E-03   -0.21180E-05  1152   0.386E-02    0.979E-03
DAV:  25    -0.478465324145E+03   -0.22405E-03   -0.33248E-05  1072   0.309E-02    0.490E-03
DAV:  26    -0.478465364590E+03   -0.40445E-04   -0.95406E-06  1040   0.128E-02    0.187E-03
DAV:  27    -0.478465429977E+03   -0.65387E-04   -0.74309E-06  1024   0.124E-02    0.433E-03
DAV:  28    -0.478465457974E+03   -0.27997E-04   -0.65422E-06  1032   0.743E-03    0.715E-03
DAV:  29    -0.478465468550E+03   -0.10577E-04   -0.29991E-06   968   0.129E-02    0.327E-03
DAV:  30    -0.478465474826E+03   -0.62762E-05   -0.11808E-06   968   0.506E-03
   1 F= -.47846547E+03 E0= -.47843112E+03  d E =-.478465E+03
       N       E                     dE             d eps       ncg     rms          rms(c)
DAV:   1    -0.478789079737E+03   -0.32361E+00   -0.23638E+01  1408   0.970E+00    0.132E+00
DAV:   2    -0.478821623859E+03   -0.32544E-01   -0.38222E-01  1944   0.226E+00    0.114E+00
DAV:   3    -0.478821631316E+03   -0.74567E-05   -0.35382E-02  2104   0.132E+00    0.691E-01
DAV:   4    -0.478822376514E+03   -0.74520E-03   -0.32099E-02  2064   0.155E+00    0.464E-01
DAV:   5    -0.478819406076E+03    0.29704E-02   -0.10469E-02  2056   0.930E-01    0.107E-01
DAV:   6    -0.478819459976E+03   -0.53900E-04   -0.10506E-03  2024   0.965E-02    0.374E-02
DAV:   7    -0.478819451413E+03    0.85629E-05   -0.12262E-04  1824   0.523E-02    0.169E-02
DAV:   8    -0.478819452089E+03   -0.67644E-06   -0.16524E-05  1016   0.185E-02
   2 F= -.47881945E+03 E0= -.47878569E+03  d E =-.353977E+00
       N       E                     dE             d eps       ncg     rms          rms(c)
DAV:   1    -0.478953306213E+03   -0.13385E+00   -0.21887E+02  1408   0.297E+01    0.323E+00
DAV:   2    -0.479298514450E+03   -0.34521E+00   -0.38871E+00  1952   0.632E+00    0.297E+00
DAV:   3    -0.479291132007E+03    0.73824E-02   -0.16906E-01  2128   0.238E+00    0.184E+00
DAV:   4    -0.479303235817E+03   -0.12104E-01   -0.16591E-01  2064   0.330E+00    0.130E+00
DAV:   5    -0.479281981071E+03    0.21255E-01   -0.93874E-02  2056   0.285E+00    0.305E-01
DAV:   6    -0.479282201362E+03   -0.22029E-03   -0.63100E-03  1728   0.188E-01    0.118E-01
DAV:   7    -0.479282093242E+03    0.10812E-03   -0.10770E-03  1840   0.101E-01    0.530E-02
DAV:   8    -0.479282083601E+03    0.96414E-05   -0.17712E-04  2008   0.703E-02    0.297E-02
DAV:   9    -0.479282107444E+03   -0.23842E-04   -0.59351E-05  1488   0.198E-02    0.183E-02
DAV:  10    -0.479282121933E+03   -0.14489E-04   -0.74521E-06  1000   0.136E-02    0.969E-03
DAV:  11    -0.479282145997E+03   -0.24065E-04   -0.66662E-06   944   0.872E-03    0.315E-03
DAV:  12    -0.479282156821E+03   -0.10823E-04   -0.24733E-06   992   0.726E-03    0.175E-03
DAV:  13    -0.479282167604E+03   -0.10783E-04   -0.15489E-06   936   0.516E-03    0.140E-03
DAV:  14    -0.479282180363E+03   -0.12760E-04   -0.15494E-06   960   0.460E-03    0.103E-03
DAV:  15    -0.479282186977E+03   -0.66133E-05   -0.11670E-06   960   0.348E-03
   3 F= -.47928219E+03 E0= -.47924992E+03  d E =-.816712E+00
       N       E                     dE             d eps       ncg     rms          rms(c)
DAV:   1    -0.479503732235E+03   -0.22155E+00   -0.48669E+01  1424   0.145E+01    0.137E+00
DAV:   2    -0.479558671408E+03   -0.54939E-01   -0.68001E-01  1992   0.264E+00    0.812E-01
DAV:   3    -0.479553022548E+03    0.56489E-02   -0.31432E-02  1904   0.602E-01    0.476E-01
DAV:   4    -0.479551826701E+03    0.11958E-02   -0.11646E-02  1896   0.524E-01    0.255E-01
DAV:   5    -0.479551699989E+03    0.12671E-03   -0.54315E-03  2088   0.578E-01    0.157E-01
DAV:   6    -0.479551531979E+03    0.16801E-03   -0.19501E-03  2152   0.367E-01    0.788E-02
DAV:   7    -0.479551516264E+03    0.15715E-04   -0.27608E-04  1776   0.982E-02    0.369E-02
DAV:   8    -0.479551537930E+03   -0.21666E-04   -0.84588E-05  1616   0.270E-02    0.153E-02
DAV:   9    -0.479551560609E+03   -0.22678E-04   -0.14824E-05  1048   0.132E-02    0.707E-03
DAV:  10    -0.479551578384E+03   -0.17775E-04   -0.45866E-06   952   0.103E-02    0.405E-03
DAV:  11    -0.479551599792E+03   -0.21408E-04   -0.32407E-06   968   0.643E-03    0.194E-03
DAV:  12    -0.479551617930E+03   -0.18138E-04   -0.28434E-06   984   0.668E-03    0.156E-03
DAV:  13    -0.479551628118E+03   -0.10189E-04   -0.17053E-06   944   0.452E-03    0.908E-04
DAV:  14    -0.479551637166E+03   -0.90474E-05   -0.15255E-06   920   0.438E-03
   4 F= -.47955164E+03 E0= -.47951864E+03  d E =-.269450E+00
       N       E                     dE             d eps       ncg     rms          rms(c)
DAV:   1    -0.479580726896E+03   -0.29099E-01   -0.22345E+01  1432   0.976E+00    0.909E-01
DAV:   2    -0.479605521374E+03   -0.24794E-01   -0.30305E-01  1960   0.173E+00    0.526E-01
DAV:   3    -0.479603062237E+03    0.24591E-02   -0.13322E-02  1752   0.366E-01    0.309E-01
DAV:   4    -0.479602456420E+03    0.60582E-03   -0.42334E-03  1816   0.218E-01    0.137E-01
DAV:   5    -0.479602436783E+03    0.19638E-04   -0.95501E-04  2048   0.187E-01    0.706E-02
DAV:   6    -0.479602445023E+03   -0.82408E-05   -0.51198E-04  1904   0.179E-01    0.515E-02
DAV:   7    -0.479602427935E+03    0.17089E-04   -0.12889E-04  1400   0.941E-02    0.223E-02
DAV:   8    -0.479602440333E+03   -0.12399E-04   -0.28502E-05  1080   0.189E-02    0.918E-03
DAV:   9    -0.479602453913E+03   -0.13580E-04   -0.10673E-05   976   0.127E-02    0.409E-03
DAV:  10    -0.479602463376E+03   -0.94633E-05   -0.38144E-06   952   0.853E-03
   5 F= -.47960246E+03 E0= -.47956897E+03  d E =-.320276E+00
       N       E                     dE             d eps       ncg     rms          rms(c)
DAV:   1    -0.479755970940E+03   -0.15352E+00   -0.56169E+01  1432   0.145E+01    0.131E+00
DAV:   2    -0.479802215646E+03   -0.46245E-01   -0.63348E-01  1928   0.249E+00    0.737E-01
DAV:   3    -0.479800535251E+03    0.16804E-02   -0.50412E-02  2240   0.140E+00    0.538E-01
DAV:   4    -0.479798923423E+03    0.16118E-02   -0.22257E-02  2120   0.112E+00    0.337E-01
DAV:   5    -0.479798240954E+03    0.68247E-03   -0.46814E-03  2120   0.524E-01    0.116E-01
DAV:   6    -0.479798315097E+03   -0.74143E-04   -0.73382E-04  1952   0.790E-02    0.485E-02
DAV:   7    -0.479798325726E+03   -0.10629E-04   -0.15768E-04  1568   0.327E-02    0.224E-02
DAV:   8    -0.479798347490E+03   -0.21764E-04   -0.27273E-05  1088   0.154E-02    0.973E-03
DAV:   9    -0.479798368927E+03   -0.21437E-04   -0.71669E-06   976   0.119E-02    0.418E-03
DAV:  10    -0.479798386859E+03   -0.17932E-04   -0.34744E-06   968   0.827E-03    0.210E-03
DAV:  11    -0.479798402583E+03   -0.15724E-04   -0.25092E-06   976   0.509E-03    0.142E-03
DAV:  12    -0.479798421183E+03   -0.18600E-04   -0.23689E-06   976   0.549E-03    0.112E-03
DAV:  13    -0.479798430143E+03   -0.89599E-05   -0.16222E-06   984   0.423E-03
   6 F= -.47979843E+03 E0= -.47976529E+03  d E =-.195967E+00
       N       E                     dE             d eps       ncg     rms          rms(c)
DAV:   1    -0.479817657666E+03   -0.19236E-01   -0.78208E+01  1424   0.170E+01    0.149E+00
DAV:   2    -0.479881879343E+03   -0.64222E-01   -0.88181E-01  1968   0.292E+00    0.834E-01
DAV:   3    -0.479879101190E+03    0.27782E-02   -0.65949E-02  2240   0.162E+00    0.614E-01
DAV:   4    -0.479876813268E+03    0.22879E-02   -0.27322E-02  2104   0.123E+00    0.382E-01
DAV:   5    -0.479876004788E+03    0.80848E-03   -0.57967E-03  2112   0.563E-01    0.135E-01
DAV:   6    -0.479876103695E+03   -0.98906E-04   -0.93005E-04  1928   0.884E-02    0.538E-02
DAV:   7    -0.479876121302E+03   -0.17607E-04   -0.21433E-04  1712   0.398E-02    0.261E-02
DAV:   8    -0.479876151356E+03   -0.30054E-04   -0.31374E-05  1032   0.189E-02    0.113E-02
DAV:   9    -0.479876182593E+03   -0.31237E-04   -0.10436E-05   984   0.148E-02    0.460E-03
DAV:  10    -0.479876207961E+03   -0.25368E-04   -0.50120E-06  1008   0.990E-03    0.235E-03
DAV:  11    -0.479876229925E+03   -0.21964E-04   -0.36572E-06   968   0.625E-03    0.160E-03
DAV:  12    -0.479876254777E+03   -0.24852E-04   -0.35573E-06   976   0.659E-03    0.141E-03
DAV:  13    -0.479876267197E+03   -0.12420E-04   -0.24249E-06   976   0.569E-03    0.749E-04
DAV:  14    -0.479876274993E+03   -0.77963E-05   -0.19569E-06   952   0.411E-03
   7 F= -.47987627E+03 E0= -.47984351E+03  d E =-.273812E+00
       N       E                     dE             d eps       ncg     rms          rms(c)
DAV:   1    -0.480012589274E+03   -0.13632E+00   -0.59482E+01  1424   0.144E+01    0.112E+00
DAV:   2    -0.480061189845E+03   -0.48601E-01   -0.59816E-01  1872   0.225E+00    0.687E-01
DAV:   3    -0.480059833328E+03    0.13565E-02   -0.29289E-02  2056   0.643E-01    0.416E-01
DAV:   4    -0.480059910423E+03   -0.77095E-04   -0.10313E-02  2040   0.662E-01    0.282E-01
DAV:   5    -0.480059345218E+03    0.56521E-03   -0.53538E-03  2064   0.587E-01    0.115E-01
DAV:   6    -0.480059329033E+03    0.16185E-04   -0.88687E-04  2104   0.197E-01    0.445E-02
DAV:   7    -0.480059335570E+03   -0.65376E-05   -0.17564E-04  1784   0.469E-02    0.232E-02
DAV:   8    -0.480059348493E+03   -0.12923E-04   -0.31287E-05  1008   0.176E-02    0.103E-02
DAV:   9    -0.480059363436E+03   -0.14943E-04   -0.79984E-06   960   0.141E-02    0.375E-03
DAV:  10    -0.480059373685E+03   -0.10249E-04   -0.31591E-06   976   0.780E-03    0.194E-03
DAV:  11    -0.480059383612E+03   -0.99268E-05   -0.18785E-06   952   0.571E-03
   8 F= -.48005938E+03 E0= -.48002685E+03  d E =-.183109E+00
       N       E                     dE             d eps       ncg     rms          rms(c)
DAV:   1    -0.480023343770E+03    0.36030E-01   -0.17268E+02  1424   0.244E+01    0.182E+00
DAV:   2    -0.480180552867E+03   -0.15721E+00   -0.19120E+00  1928   0.409E+00    0.114E+00
DAV:   3    -0.480174479736E+03    0.60731E-02   -0.68283E-02  2136   0.119E+00    0.719E-01
DAV:   4    -0.480174458632E+03    0.21104E-04   -0.31322E-02  2064   0.121E+00    0.532E-01
DAV:   5    -0.480172264634E+03    0.21940E-02   -0.15701E-02  2096   0.985E-01    0.197E-01
DAV:   6    -0.480172349314E+03   -0.84679E-04   -0.20681E-03  2056   0.247E-01    0.653E-02
DAV:   7    -0.480172382770E+03   -0.33457E-04   -0.42622E-04  1880   0.609E-02    0.397E-02
DAV:   8    -0.480172421802E+03   -0.39031E-04   -0.79717E-05  1440   0.270E-02    0.166E-02
DAV:   9    -0.480172463736E+03   -0.41934E-04   -0.15331E-05  1032   0.176E-02    0.665E-03
DAV:  10    -0.480172494741E+03   -0.31005E-04   -0.63571E-06  1040   0.101E-02    0.341E-03
DAV:  11    -0.480172528517E+03   -0.33776E-04   -0.47678E-06  1000   0.642E-03    0.185E-03
DAV:  12    -0.480172555184E+03   -0.26666E-04   -0.31294E-06  1008   0.644E-03    0.135E-03
DAV:  13    -0.480172574078E+03   -0.18895E-04   -0.33781E-06  1008   0.478E-03    0.933E-04
DAV:  14    -0.480172582723E+03   -0.86443E-05   -0.17270E-06   968   0.487E-03
   9 F= -.48017258E+03 E0= -.48014056E+03  d E =-.296308E+00
       N       E                     dE             d eps       ncg     rms          rms(c)
DAV:   1    -0.480245389251E+03   -0.72815E-01   -0.91235E+01  1408   0.182E+01    0.131E+00
DAV:   2    -0.480328708619E+03   -0.83319E-01   -0.10163E+00  2016   0.315E+00    0.732E-01
DAV:   3    -0.480324780561E+03    0.39281E-02   -0.37164E-02  1960   0.735E-01    0.468E-01
DAV:   4    -0.480324106739E+03    0.67382E-03   -0.11594E-02  1944   0.612E-01    0.300E-01
DAV:   5    -0.480323713821E+03    0.39292E-03   -0.60268E-03  2176   0.600E-01    0.162E-01
DAV:   6    -0.480323596304E+03    0.11752E-03   -0.16144E-03  2152   0.283E-01    0.505E-02
DAV:   7    -0.480323621811E+03   -0.25507E-04   -0.21518E-04  1872   0.583E-02    0.304E-02
DAV:   8    -0.480323647311E+03   -0.25500E-04   -0.30257E-05  1088   0.166E-02    0.137E-02
DAV:   9    -0.480323670840E+03   -0.23529E-04   -0.10411E-05  1016   0.114E-02    0.523E-03
DAV:  10    -0.480323687337E+03   -0.16497E-04   -0.37659E-06   992   0.821E-03    0.299E-03
DAV:  11    -0.480323707388E+03   -0.20051E-04   -0.28973E-06   944   0.590E-03    0.156E-03
DAV:  12    -0.480323723104E+03   -0.15716E-04   -0.22049E-06   976   0.522E-03    0.143E-03
DAV:  13    -0.480323731036E+03   -0.79316E-05   -0.13280E-06   984   0.385E-03
  10 F= -.48032373E+03 E0= -.48029203E+03  d E =-.151148E+00
       N       E                     dE             d eps       ncg     rms          rms(c)
DAV:   1    -0.480325507125E+03   -0.17840E-02   -0.14144E+01  1408   0.714E+00    0.502E-01
DAV:   2    -0.480337713586E+03   -0.12206E-01   -0.14943E-01  1920   0.119E+00    0.270E-01
DAV:   3    -0.480337376528E+03    0.33706E-03   -0.78812E-03  1968   0.286E-01    0.175E-01
DAV:   4    -0.480337238661E+03    0.13787E-03   -0.15767E-03  1904   0.200E-01    0.103E-01
DAV:   5    -0.480337224581E+03    0.14080E-04   -0.80357E-04  2136   0.213E-01    0.633E-02
DAV:   6    -0.480337195190E+03    0.29391E-04   -0.28580E-04  1632   0.127E-01    0.213E-02
DAV:   7    -0.480337200533E+03   -0.53428E-05   -0.30452E-05  1016   0.290E-02
  11 F= -.48033720E+03 E0= -.48030561E+03  d E =-.164618E+00
       N       E                     dE             d eps       ncg     rms          rms(c)
DAV:   1    -0.480394276436E+03   -0.57081E-01   -0.38811E+01  1408   0.124E+01    0.877E-01
DAV:   2    -0.480428245250E+03   -0.33969E-01   -0.45178E-01  2056   0.232E+00    0.499E-01
DAV:   3    -0.480426165622E+03    0.20796E-02   -0.34610E-02  2240   0.121E+00    0.378E-01
DAV:   4    -0.480424901090E+03    0.12645E-02   -0.77346E-03  2160   0.600E-01    0.211E-01
DAV:   5    -0.480424725012E+03    0.17608E-03   -0.16538E-03  2088   0.220E-01    0.896E-02
DAV:   6    -0.480424754754E+03   -0.29742E-04   -0.43651E-04  2040   0.963E-02    0.282E-02
DAV:   7    -0.480424774176E+03   -0.19422E-04   -0.56520E-05  1344   0.245E-02    0.157E-02
DAV:   8    -0.480424794712E+03   -0.20536E-04   -0.10405E-05   992   0.126E-02    0.690E-03
DAV:   9    -0.480424813196E+03   -0.18484E-04   -0.59013E-06   984   0.909E-03    0.274E-03
DAV:  10    -0.480424827777E+03   -0.14580E-04   -0.28973E-06   992   0.685E-03    0.181E-03
DAV:  11    -0.480424846941E+03   -0.19165E-04   -0.33010E-06   984   0.524E-03    0.126E-03
DAV:  12    -0.480424857801E+03   -0.10859E-04   -0.14702E-06  1000   0.419E-03    0.847E-04
DAV:  13    -0.480424864807E+03   -0.70063E-05   -0.14520E-06   944   0.287E-03
  12 F= -.48042486E+03 E0= -.48039268E+03  d E =-.876643E-01
       N       E                     dE             d eps       ncg     rms          rms(c)
DAV:   1    -0.480427606269E+03   -0.27485E-02   -0.14467E+01  1408   0.756E+00    0.512E-01
DAV:   2    -0.480440413231E+03   -0.12807E-01   -0.16516E-01  2000   0.130E+00    0.266E-01
DAV:   3    -0.480439889493E+03    0.52374E-03   -0.81921E-03  2056   0.338E-01    0.183E-01
DAV:   4    -0.480439711317E+03    0.17818E-03   -0.19689E-03  2008   0.257E-01    0.112E-01
DAV:   5    -0.480439667726E+03    0.43591E-04   -0.10177E-03  2120   0.247E-01    0.689E-02
DAV:   6    -0.480439637384E+03    0.30343E-04   -0.30353E-04  1776   0.127E-01    0.193E-02
DAV:   7    -0.480439644626E+03   -0.72421E-05   -0.36795E-05  1048   0.222E-02
  13 F= -.48043964E+03 E0= -.48040710E+03  d E =-.102444E+00
       N       E                     dE             d eps       ncg     rms          rms(c)
DAV:   1    -0.480473564122E+03   -0.33927E-01   -0.46728E+01  1448   0.137E+01    0.876E-01
DAV:   2    -0.480526690649E+03   -0.53127E-01   -0.63504E-01  2072   0.300E+00    0.669E-01
DAV:   3    -0.480521473268E+03    0.52174E-02   -0.46426E-02  2216   0.156E+00    0.389E-01
DAV:   4    -0.480520134970E+03    0.13383E-02   -0.65838E-03  2080   0.501E-01    0.230E-01
DAV:   5    -0.480519898092E+03    0.23688E-03   -0.24550E-03  1936   0.177E-01    0.704E-02
DAV:   6    -0.480519946647E+03   -0.48555E-04   -0.41277E-04  1960   0.615E-02    0.337E-02
DAV:   7    -0.480519963899E+03   -0.17252E-04   -0.62287E-05  1304   0.269E-02    0.209E-02
DAV:   8    -0.480519995135E+03   -0.31236E-04   -0.19634E-05  1056   0.169E-02    0.869E-03
DAV:   9    -0.480520026783E+03   -0.31647E-04   -0.10696E-05   992   0.116E-02    0.424E-03
DAV:  10    -0.480520053304E+03   -0.26521E-04   -0.47393E-06  1024   0.860E-03    0.265E-03
DAV:  11    -0.480520088354E+03   -0.35050E-04   -0.46124E-06  1024   0.624E-03    0.146E-03
DAV:  12    -0.480520109422E+03   -0.21068E-04   -0.26840E-06   992   0.520E-03    0.109E-03
DAV:  13    -0.480520123480E+03   -0.14058E-04   -0.30117E-06  1000   0.422E-03    0.589E-04
DAV:  14    -0.480520129754E+03   -0.62736E-05   -0.12801E-06   992   0.377E-03
  14 F= -.48052013E+03 E0= -.48048773E+03  d E =-.804851E-01
       N       E                     dE             d eps       ncg     rms          rms(c)
DAV:   1    -0.480515929356E+03    0.41941E-02   -0.22193E+01  1440   0.940E+00    0.587E-01
DAV:   2    -0.480539019765E+03   -0.23090E-01   -0.27739E-01  2072   0.193E+00    0.430E-01
DAV:   3    -0.480537018453E+03    0.20013E-02   -0.19483E-02  2208   0.981E-01    0.266E-01
DAV:   4    -0.480536388034E+03    0.63042E-03   -0.31940E-03  2088   0.364E-01    0.154E-01
DAV:   5    -0.480536292251E+03    0.95783E-04   -0.11058E-03  1952   0.129E-01    0.480E-02
DAV:   6    -0.480536312502E+03   -0.20251E-04   -0.18575E-04  1880   0.441E-02    0.226E-02
DAV:   7    -0.480536318098E+03   -0.55959E-05   -0.23999E-05  1024   0.186E-02
  15 F= -.48053632E+03 E0= -.48050402E+03  d E =-.966735E-01
       N       E                     dE             d eps       ncg     rms          rms(c)
DAV:   1    -0.480549159489E+03   -0.12847E-01   -0.43819E+01  1440   0.136E+01    0.776E-01
DAV:   2    -0.480608338238E+03   -0.59179E-01   -0.67144E-01  2080   0.295E+00    0.632E-01
DAV:   3    -0.480604579172E+03    0.37591E-02   -0.32425E-02  2192   0.118E+00    0.383E-01
DAV:   4    -0.480603590794E+03    0.98838E-03   -0.64191E-03  2112   0.528E-01    0.269E-01
DAV:   5    -0.480603228187E+03    0.36261E-03   -0.31255E-03  2072   0.296E-01    0.896E-02
DAV:   6    -0.480603293203E+03   -0.65016E-04   -0.70179E-04  1992   0.851E-02    0.378E-02
DAV:   7    -0.480603312241E+03   -0.19038E-04   -0.98723E-05  1560   0.323E-02    0.247E-02
DAV:   8    -0.480603333010E+03   -0.20769E-04   -0.23568E-05  1000   0.173E-02    0.104E-02
DAV:   9    -0.480603355904E+03   -0.22894E-04   -0.10269E-05   976   0.113E-02    0.462E-03
DAV:  10    -0.480603373320E+03   -0.17416E-04   -0.36170E-06   968   0.940E-03    0.270E-03
DAV:  11    -0.480603396785E+03   -0.23464E-04   -0.34600E-06  1008   0.560E-03    0.140E-03
DAV:  12    -0.480603412505E+03   -0.15721E-04   -0.16988E-06   984   0.555E-03    0.132E-03
DAV:  13    -0.480603422938E+03   -0.10432E-04   -0.13952E-06   952   0.357E-03    0.712E-04
DAV:  14    -0.480603430857E+03   -0.79193E-05   -0.18201E-06   984   0.383E-03
  16 F= -.48060343E+03 E0= -.48057196E+03  d E =-.671128E-01
       N       E                     dE             d eps       ncg     rms          rms(c)
DAV:   1    -0.480598817069E+03    0.46059E-02   -0.12787E+01  1432   0.733E+00    0.414E-01
DAV:   2    -0.480614503715E+03   -0.15687E-01   -0.18090E-01  2072   0.155E+00    0.345E-01
DAV:   3    -0.480613354226E+03    0.11495E-02   -0.99299E-03  2200   0.646E-01    0.204E-01
DAV:   4    -0.480613069165E+03    0.28506E-03   -0.18064E-03  2104   0.275E-01    0.139E-01
DAV:   5    -0.480612988599E+03    0.80566E-04   -0.84826E-04  2064   0.145E-01    0.456E-02
DAV:   6    -0.480613006075E+03   -0.17476E-04   -0.18157E-04  1888   0.414E-02    0.199E-02
DAV:   7    -0.480613009281E+03   -0.32065E-05   -0.22856E-05  1048   0.164E-02
  17 F= -.48061301E+03 E0= -.48058199E+03  d E =-.766912E-01
       N       E                     dE             d eps       ncg     rms          rms(c)
DAV:   1    -0.480621758186E+03   -0.87521E-02   -0.25198E+01  1408   0.108E+01    0.671E-01
DAV:   2    -0.480657560929E+03   -0.35803E-01   -0.41118E-01  2056   0.227E+00    0.518E-01
DAV:   3    -0.480655349904E+03    0.22110E-02   -0.18592E-02  2136   0.850E-01    0.332E-01
DAV:   4    -0.480654670074E+03    0.67983E-03   -0.59169E-03  2120   0.534E-01    0.243E-01
DAV:   5    -0.480654229894E+03    0.44018E-03   -0.24165E-03  2048   0.297E-01    0.772E-02
DAV:   6    -0.480654276779E+03   -0.46885E-04   -0.45501E-04  1856   0.606E-02    0.352E-02
DAV:   7    -0.480654287255E+03   -0.10477E-04   -0.87544E-05  1592   0.267E-02    0.212E-02
DAV:   8    -0.480654299983E+03   -0.12727E-04   -0.14578E-05   928   0.128E-02    0.910E-03
DAV:   9    -0.480654314615E+03   -0.14632E-04   -0.64703E-06   976   0.903E-03    0.450E-03
DAV:  10    -0.480654326196E+03   -0.11581E-04   -0.24567E-06   952   0.635E-03    0.253E-03
DAV:  11    -0.480654338265E+03   -0.12069E-04   -0.17330E-06   960   0.459E-03    0.118E-03
DAV:  12    -0.480654348941E+03   -0.10676E-04   -0.14990E-06   984   0.384E-03    0.101E-03
DAV:  13    -0.480654355105E+03   -0.61633E-05   -0.79115E-07   976   0.276E-03
  18 F= -.48065436E+03 E0= -.48062292E+03  d E =-.413458E-01
       N       E                     dE             d eps       ncg     rms          rms(c)
DAV:   1    -0.480654032273E+03    0.31667E-03   -0.24011E+00  1408   0.331E+00    0.205E-01
DAV:   2    -0.480657156468E+03   -0.31242E-02   -0.36462E-02  2048   0.696E-01    0.163E-01
DAV:   3    -0.480656929388E+03    0.22708E-03   -0.19894E-03  2184   0.284E-01    0.102E-01
DAV:   4    -0.480656854975E+03    0.74413E-04   -0.53557E-04  2104   0.161E-01    0.705E-02
DAV:   5    -0.480656824070E+03    0.30904E-04   -0.20594E-04  1888   0.790E-02    0.219E-02
DAV:   6    -0.480656828389E+03   -0.43187E-05   -0.33892E-05  1112   0.165E-02
  19 F= -.48065683E+03 E0= -.48062526E+03  d E =-.438191E-01
       N       E                     dE             d eps       ncg     rms          rms(c)
DAV:   1    -0.480667966660E+03   -0.11143E-01   -0.17554E+01  1408   0.904E+00    0.597E-01
DAV:   2    -0.480690032613E+03   -0.22066E-01   -0.26223E-01  2096   0.207E+00    0.472E-01
DAV:   3    -0.480687876276E+03    0.21563E-02   -0.22605E-02  2152   0.102E+00    0.283E-01
DAV:   4    -0.480687312090E+03    0.56419E-03   -0.32329E-03  2160   0.363E-01    0.173E-01
DAV:   5    -0.480687238083E+03    0.74007E-04   -0.10599E-03  2000   0.135E-01    0.614E-02
DAV:   6    -0.480687262496E+03   -0.24413E-04   -0.33699E-04  1960   0.509E-02    0.240E-02
DAV:   7    -0.480687265937E+03   -0.34415E-05   -0.57668E-05  1136   0.225E-02
  20 F= -.48068727E+03 E0= -.48065578E+03  d E =-.304375E-01
       N       E                     dE             d eps       ncg     rms          rms(c)
DAV:   1    -0.480687010583E+03    0.25191E-03   -0.31397E+00  1408   0.382E+00    0.245E-01
DAV:   2    -0.480690565209E+03   -0.35546E-02   -0.42060E-02  2080   0.768E-01    0.169E-01
DAV:   3    -0.480690356289E+03    0.20892E-03   -0.29759E-03  2144   0.342E-01    0.117E-01
DAV:   4    -0.480690267671E+03    0.88618E-04   -0.69690E-04  2200   0.183E-01    0.709E-02
DAV:   5    -0.480690259384E+03    0.82872E-05   -0.18725E-04  1880   0.752E-02    0.268E-02
DAV:   6    -0.480690269530E+03   -0.10146E-04   -0.55287E-05  1136   0.255E-02    0.935E-03
DAV:   7    -0.480690274543E+03   -0.50127E-05   -0.13617E-05   944   0.141E-02
  21 F= -.48069027E+03 E0= -.48065884E+03  d E =-.334462E-01
       N       E                     dE             d eps       ncg     rms          rms(c)
DAV:   1    -0.480697588873E+03   -0.73193E-02   -0.19057E+01  1408   0.954E+00    0.660E-01
DAV:   2    -0.480719480423E+03   -0.21892E-01   -0.27590E-01  2040   0.209E+00    0.465E-01
DAV:   3    -0.480717633193E+03    0.18472E-02   -0.26258E-02  2152   0.113E+00    0.308E-01
DAV:   4    -0.480716910370E+03    0.72282E-03   -0.43014E-03  2192   0.419E-01    0.167E-01
DAV:   5    -0.480716897997E+03    0.12374E-04   -0.10541E-03  2032   0.137E-01    0.575E-02
DAV:   6    -0.480716932930E+03   -0.34934E-04   -0.20609E-04  1912   0.524E-02    0.217E-02
DAV:   7    -0.480716942213E+03   -0.92825E-05   -0.36931E-05  1096   0.172E-02
  22 F= -.48071694E+03 E0= -.48068590E+03  d E =-.266677E-01
       N       E                     dE             d eps       ncg     rms          rms(c)
DAV:   1    -0.480716572549E+03    0.36038E-03   -0.20199E+00  1408   0.311E+00    0.200E-01
DAV:   2    -0.480718791348E+03   -0.22188E-02   -0.26932E-02  2064   0.541E-01    0.118E-01
DAV:   3    -0.480718701779E+03    0.89569E-04   -0.11394E-03  2120   0.160E-01    0.819E-02
DAV:   4    -0.480718692394E+03    0.93855E-05   -0.47018E-04  2128   0.145E-01    0.537E-02
DAV:   5    -0.480718678548E+03    0.13846E-04   -0.18771E-04  1448   0.109E-01    0.226E-02
DAV:   6    -0.480718687168E+03   -0.86200E-05   -0.30397E-05  1024   0.356E-02
  23 F= -.48071869E+03 E0= -.48068779E+03  d E =-.284126E-01
       N       E                     dE             d eps       ncg     rms          rms(c)
DAV:   1    -0.480721956462E+03   -0.32779E-02   -0.11870E+01  1408   0.781E+00    0.532E-01
DAV:   2    -0.480735848992E+03   -0.13893E-01   -0.17458E-01  2040   0.156E+00    0.350E-01
DAV:   3    -0.480735053944E+03    0.79505E-03   -0.12321E-02  2112   0.710E-01    0.246E-01
DAV:   4    -0.480734636834E+03    0.41711E-03   -0.34154E-03  2192   0.417E-01    0.149E-01
DAV:   5    -0.480734565810E+03    0.71025E-04   -0.96171E-04  2040   0.180E-01    0.488E-02
DAV:   6    -0.480734602149E+03   -0.36339E-04   -0.18073E-04  1944   0.427E-02    0.201E-02
DAV:   7    -0.480734611875E+03   -0.97259E-05   -0.21646E-05   992   0.141E-02
  24 F= -.48073461E+03 E0= -.48070355E+03  d E =-.159247E-01
       N       E                     dE             d eps       ncg     rms          rms(c)
DAV:   1    -0.480734635556E+03   -0.33407E-04   -0.83067E-02  1408   0.654E-01    0.432E-02
DAV:   2    -0.480734738965E+03   -0.10341E-03   -0.12093E-03  2080   0.114E-01    0.262E-02
DAV:   3    -0.480734737403E+03    0.15616E-05   -0.41069E-05  1296   0.196E-02
  25 F= -.48073474E+03 E0= -.48070366E+03  d E =-.160502E-01
       N       E                     dE             d eps       ncg     rms          rms(c)
DAV:   1    -0.480739009851E+03   -0.42709E-02   -0.73598E+00  1408   0.631E+00    0.418E-01
DAV:   2    -0.480747602888E+03   -0.85930E-02   -0.10688E-01  2064   0.108E+00    0.251E-01
DAV:   3    -0.480747134770E+03    0.46812E-03   -0.38736E-03  1872   0.195E-01    0.159E-01
DAV:   4    -0.480747083578E+03    0.51192E-04   -0.98206E-04  1896   0.115E-01    0.796E-02
DAV:   5    -0.480747117546E+03   -0.33968E-04   -0.44308E-04  2048   0.124E-01    0.392E-02
DAV:   6    -0.480747115811E+03    0.17349E-05   -0.16602E-04  1480   0.979E-02    0.209E-02
DAV:   7    -0.480747118674E+03   -0.28631E-05   -0.31159E-05  1000   0.457E-02
  26 F= -.48074712E+03 E0= -.48071603E+03  d E =-.123813E-01
       N       E                     dE             d eps       ncg     rms          rms(c)
DAV:   1    -0.480747089775E+03    0.26036E-04   -0.51708E-01  1408   0.167E+00    0.110E-01
DAV:   2    -0.480747749056E+03   -0.65928E-03   -0.79633E-03  2088   0.294E-01    0.686E-02
DAV:   3    -0.480747715386E+03    0.33670E-04   -0.30516E-04  2136   0.886E-02    0.448E-02
DAV:   4    -0.480747717796E+03   -0.24097E-05   -0.13780E-04  1568   0.843E-02    0.340E-02
DAV:   5    -0.480747713790E+03    0.40053E-05   -0.67444E-05  1168   0.669E-02
  27 F= -.48074771E+03 E0= -.48071662E+03  d E =-.129764E-01
       N       E                     dE             d eps       ncg     rms          rms(c)
DAV:   1    -0.480749780647E+03   -0.20629E-02   -0.75464E+00  1408   0.644E+00    0.419E-01
DAV:   2    -0.480758715891E+03   -0.89352E-02   -0.11248E-01  2056   0.112E+00    0.261E-01
DAV:   3    -0.480758236952E+03    0.47894E-03   -0.45800E-03  2120   0.327E-01    0.168E-01
DAV:   4    -0.480758292337E+03   -0.55384E-04   -0.21762E-03  2136   0.337E-01    0.133E-01
DAV:   5    -0.480758175863E+03    0.11647E-03   -0.10303E-03  2128   0.242E-01    0.430E-02
DAV:   6    -0.480758200625E+03   -0.24762E-04   -0.13236E-04  1680   0.467E-02    0.156E-02
DAV:   7    -0.480758206323E+03   -0.56977E-05   -0.20758E-05  1040   0.160E-02
  28 F= -.48075821E+03 E0= -.48072710E+03  d E =-.104925E-01
       N       E                     dE             d eps       ncg     rms          rms(c)
DAV:   1    -0.480758195592E+03    0.50330E-05   -0.24309E-01  1408   0.116E+00    0.747E-02
DAV:   2    -0.480758500287E+03   -0.30469E-03   -0.37509E-03  2112   0.205E-01    0.478E-02
DAV:   3    -0.480758484599E+03    0.15688E-04   -0.14564E-04  1928   0.659E-02    0.313E-02
DAV:   4    -0.480758486289E+03   -0.16891E-05   -0.67746E-05  1160   0.650E-02
  29 F= -.48075849E+03 E0= -.48072737E+03  d E =-.107725E-01
       N       E                     dE             d eps       ncg     rms          rms(c)
DAV:   1    -0.480760444500E+03   -0.19599E-02   -0.58727E+00  1408   0.567E+00    0.428E-01
DAV:   2    -0.480767043672E+03   -0.65992E-02   -0.96163E-02  1992   0.985E-01    0.247E-01
DAV:   3    -0.480766659072E+03    0.38460E-03   -0.47302E-03  2152   0.302E-01    0.158E-01
DAV:   4    -0.480766633342E+03    0.25729E-04   -0.19452E-03  2024   0.293E-01    0.102E-01
DAV:   5    -0.480766549786E+03    0.83556E-04   -0.88236E-04  2120   0.236E-01    0.435E-02
DAV:   6    -0.480766558769E+03   -0.89831E-05   -0.11520E-04  1448   0.667E-02    0.161E-02
DAV:   7    -0.480766568759E+03   -0.99893E-05   -0.27743E-05  1040   0.157E-02
  30 F= -.48076657E+03 E0= -.48073555E+03  d E =-.808247E-02
       N       E                     dE             d eps       ncg     rms          rms(c)
DAV:   1    -0.480766507255E+03    0.51514E-04   -0.25528E-01  1408   0.118E+00    0.889E-02
DAV:   2    -0.480766812114E+03   -0.30486E-03   -0.43314E-03  2000   0.211E-01    0.516E-02
DAV:   3    -0.480766799090E+03    0.13024E-04   -0.22125E-04  2072   0.704E-02    0.342E-02
DAV:   4    -0.480766800511E+03   -0.14210E-05   -0.85794E-05  1312   0.665E-02
  31 F= -.48076680E+03 E0= -.48073581E+03  d E =-.831422E-02
       N       E                     dE             d eps       ncg     rms          rms(c)
DAV:   1    -0.480767876850E+03   -0.10778E-02   -0.62266E+00  1440   0.580E+00    0.364E-01
DAV:   2    -0.480775023317E+03   -0.71465E-02   -0.91140E-02  2008   0.980E-01    0.234E-01
DAV:   3    -0.480774719999E+03    0.30332E-03   -0.36072E-03  2048   0.221E-01    0.141E-01
DAV:   4    -0.480774758073E+03   -0.38074E-04   -0.12489E-03  2024   0.232E-01    0.992E-02
DAV:   5    -0.480774719313E+03    0.38760E-04   -0.79373E-04  2112   0.209E-01    0.393E-02
DAV:   6    -0.480774725402E+03   -0.60888E-05   -0.10491E-04  1352   0.697E-02    0.150E-02
DAV:   7    -0.480774734303E+03   -0.89013E-05   -0.26683E-05  1056   0.177E-02
  32 F= -.48077473E+03 E0= -.48074375E+03  d E =-.793379E-02
       N       E                     dE             d eps       ncg     rms          rms(c)
DAV:   1    -0.480774426984E+03    0.29842E-03   -0.88568E-01  1440   0.219E+00    0.136E-01
DAV:   2    -0.480775460949E+03   -0.10340E-02   -0.13069E-02  2008   0.375E-01    0.884E-02
DAV:   3    -0.480775420704E+03    0.40245E-04   -0.51313E-04  2088   0.902E-02    0.537E-02
DAV:   4    -0.480775430889E+03   -0.10184E-04   -0.20584E-04  1976   0.983E-02    0.403E-02
DAV:   5    -0.480775424760E+03    0.61283E-05   -0.11534E-04  1296   0.826E-02    0.138E-02
DAV:   6    -0.480775430070E+03   -0.53100E-05   -0.15993E-05  1008   0.262E-02
  33 F= -.48077543E+03 E0= -.48074446E+03  d E =-.862956E-02
       N       E                     dE             d eps       ncg     rms          rms(c)
DAV:   1    -0.480776810902E+03   -0.13861E-02   -0.59866E+00  1456   0.571E+00    0.351E-01
DAV:   2    -0.480783181046E+03   -0.63701E-02   -0.79779E-02  2008   0.903E-01    0.227E-01
DAV:   3    -0.480782921087E+03    0.25996E-03   -0.30857E-03  2000   0.206E-01    0.143E-01
DAV:   4    -0.480782969733E+03   -0.48646E-04   -0.10561E-03  2016   0.200E-01    0.847E-02
DAV:   5    -0.480782968086E+03    0.16474E-05   -0.65240E-04  2112   0.200E-01    0.434E-02
DAV:   6    -0.480782966226E+03    0.18599E-05   -0.11562E-04  1376   0.832E-02    0.135E-02
DAV:   7    -0.480782971722E+03   -0.54965E-05   -0.20770E-05  1072   0.151E-02
  34 F= -.48078297E+03 E0= -.48075205E+03  d E =-.754165E-02
       N       E                     dE             d eps       ncg     rms          rms(c)
DAV:   1    -0.480782685594E+03    0.28063E-03   -0.94902E-01  1456   0.227E+00    0.139E-01
DAV:   2    -0.480783693956E+03   -0.10084E-02   -0.12612E-02  1944   0.358E-01    0.899E-02
DAV:   3    -0.480783660550E+03    0.33405E-04   -0.52115E-04  1784   0.690E-02    0.556E-02
DAV:   4    -0.480783662986E+03   -0.24359E-05   -0.11908E-04  1760   0.348E-02    0.238E-02
DAV:   5    -0.480783670610E+03   -0.76239E-05   -0.19051E-05  1040   0.189E-02
  35 F= -.48078367E+03 E0= -.48075278E+03  d E =-.824054E-02
       N       E                     dE             d eps       ncg     rms          rms(c)
DAV:   1    -0.480783518659E+03    0.14433E-03   -0.69322E+00  1456   0.615E+00    0.375E-01
DAV:   2    -0.480790670398E+03   -0.71517E-02   -0.90693E-02  1880   0.919E-01    0.240E-01
DAV:   3    -0.480790491334E+03    0.17906E-03   -0.40531E-03  2024   0.218E-01    0.150E-01
DAV:   4    -0.480790550756E+03   -0.59422E-04   -0.10021E-03  2048   0.184E-01    0.887E-02
DAV:   5    -0.480790574247E+03   -0.23491E-04   -0.72792E-04  2096   0.204E-01    0.487E-02
DAV:   6    -0.480790563647E+03    0.10600E-04   -0.16940E-04  1560   0.997E-02    0.148E-02
DAV:   7    -0.480790568185E+03   -0.45382E-05   -0.20342E-05  1040   0.164E-02
  36 F= -.48079057E+03 E0= -.48075994E+03  d E =-.689758E-02
       N       E                     dE             d eps       ncg     rms          rms(c)
DAV:   1    -0.480790357508E+03    0.20614E-03   -0.58617E-01  1440   0.179E+00    0.108E-01
DAV:   2    -0.480790989881E+03   -0.63237E-03   -0.79007E-03  1928   0.280E-01    0.706E-02
DAV:   3    -0.480790975764E+03    0.14117E-04   -0.37583E-04  2056   0.776E-02    0.454E-02
DAV:   4    -0.480790983754E+03   -0.79894E-05   -0.12472E-04  1736   0.777E-02    0.327E-02
DAV:   5    -0.480790980851E+03    0.29032E-05   -0.76349E-05  1224   0.712E-02
  37 F= -.48079098E+03 E0= -.48076044E+03  d E =-.731024E-02
       N       E                     dE             d eps       ncg     rms          rms(c)
DAV:   1    -0.480789599905E+03    0.13838E-02   -0.73122E+00  1440   0.633E+00    0.413E-01
DAV:   2    -0.480797286086E+03   -0.76862E-02   -0.99522E-02  1912   0.942E-01    0.250E-01
DAV:   3    -0.480797101997E+03    0.18409E-03   -0.44639E-03  1944   0.207E-01    0.158E-01
DAV:   4    -0.480797139799E+03   -0.37802E-04   -0.86212E-04  1968   0.121E-01    0.773E-02
DAV:   5    -0.480797202520E+03   -0.62721E-04   -0.40428E-04  2096   0.145E-01    0.457E-02
DAV:   6    -0.480797193348E+03    0.91718E-05   -0.20949E-04  1624   0.115E-01    0.190E-02
DAV:   7    -0.480797194215E+03   -0.86727E-06   -0.20939E-05   976   0.337E-02
  38 F= -.48079719E+03 E0= -.48076657E+03  d E =-.621336E-02
       N       E                     dE             d eps       ncg     rms          rms(c)
DAV:   1    -0.480797122798E+03    0.70550E-04   -0.18985E-01  1440   0.102E+00    0.659E-02
DAV:   2    -0.480797325458E+03   -0.20266E-03   -0.25847E-03  1904   0.149E-01    0.399E-02
DAV:   3    -0.480797322672E+03    0.27857E-05   -0.12001E-04  1944   0.375E-02    0.257E-02
DAV:   4    -0.480797325625E+03   -0.29527E-05   -0.23224E-05  1016   0.301E-02
  39 F= -.48079733E+03 E0= -.48076669E+03  d E =-.634477E-02
       N       E                     dE             d eps       ncg     rms          rms(c)
DAV:   1    -0.480796614118E+03    0.70855E-03   -0.56896E+00  1440   0.559E+00    0.379E-01
DAV:   2    -0.480802748985E+03   -0.61349E-02   -0.82229E-02  1952   0.893E-01    0.227E-01
DAV:   3    -0.480802625139E+03    0.12385E-03   -0.47087E-03  2248   0.370E-01    0.160E-01
DAV:   4    -0.480802633822E+03   -0.86823E-05   -0.17173E-03  2080   0.300E-01    0.105E-01
DAV:   5    -0.480802618206E+03    0.15615E-04   -0.62268E-04  2088   0.196E-01    0.399E-02
DAV:   6    -0.480802641516E+03   -0.23310E-04   -0.90990E-05  1544   0.520E-02    0.127E-02
DAV:   7    -0.480802646810E+03   -0.52941E-05   -0.19564E-05  1016   0.135E-02
  40 F= -.48080265E+03 E0= -.48077203E+03  d E =-.532119E-02
       N       E                     dE             d eps       ncg     rms          rms(c)
DAV:   1    -0.480802414000E+03    0.22752E-03   -0.53740E-01  1440   0.172E+00    0.115E-01
DAV:   2    -0.480802984970E+03   -0.57097E-03   -0.76245E-03  1904   0.266E-01    0.688E-02
DAV:   3    -0.480802975520E+03    0.94501E-05   -0.42219E-04  2208   0.104E-01    0.474E-02
DAV:   4    -0.480802980017E+03   -0.44969E-05   -0.14851E-04  1664   0.894E-02    0.319E-02
DAV:   5    -0.480802979610E+03    0.40769E-06   -0.60922E-05  1152   0.662E-02
  41 F= -.48080298E+03 E0= -.48077237E+03  d E =-.565398E-02
       N       E                     dE             d eps       ncg     rms          rms(c)
DAV:   1    -0.480802232741E+03    0.74728E-03   -0.57790E+00  1440   0.568E+00    0.382E-01
DAV:   2    -0.480808651075E+03   -0.64183E-02   -0.84094E-02  1928   0.909E-01    0.230E-01
DAV:   3    -0.480808461403E+03    0.18967E-03   -0.44010E-03  2240   0.365E-01    0.159E-01
DAV:   4    -0.480808484195E+03   -0.22792E-04   -0.18528E-03  2152   0.315E-01    0.105E-01
DAV:   5    -0.480808441704E+03    0.42491E-04   -0.64571E-04  2112   0.203E-01    0.347E-02
DAV:   6    -0.480808464134E+03   -0.22430E-04   -0.81437E-05  1568   0.406E-02    0.131E-02
DAV:   7    -0.480808469190E+03   -0.50558E-05   -0.14669E-05  1000   0.125E-02
  42 F= -.48080847E+03 E0= -.48077804E+03  d E =-.548958E-02
       N       E                     dE             d eps       ncg     rms          rms(c)
DAV:   1    -0.480807422879E+03    0.10413E-02   -0.14835E+00  1440   0.288E+00    0.192E-01
DAV:   2    -0.480809124152E+03   -0.17013E-02   -0.22059E-02  1952   0.468E-01    0.117E-01
DAV:   3    -0.480809062087E+03    0.62065E-04   -0.10739E-03  2232   0.178E-01    0.798E-02
DAV:   4    -0.480809071629E+03   -0.95419E-05   -0.48024E-04  2128   0.160E-01    0.531E-02
DAV:   5    -0.480809060379E+03    0.11250E-04   -0.16495E-04  1504   0.105E-01    0.172E-02
DAV:   6    -0.480809068571E+03   -0.81922E-05   -0.24535E-05  1104   0.247E-02
  43 F= -.48080907E+03 E0= -.48077875E+03  d E =-.608896E-02
       N       E                     dE             d eps       ncg     rms          rms(c)
DAV:   1    -0.480809190338E+03   -0.12996E-03   -0.39671E+00  1440   0.472E+00    0.324E-01
DAV:   2    -0.480813667460E+03   -0.44771E-02   -0.59294E-02  1920   0.765E-01    0.192E-01
DAV:   3    -0.480813495329E+03    0.17213E-03   -0.21716E-03  2032   0.160E-01    0.120E-01
DAV:   4    -0.480813524566E+03   -0.29237E-04   -0.63680E-04  1992   0.129E-01    0.621E-02
DAV:   5    -0.480813547333E+03   -0.22768E-04   -0.37459E-04  1824   0.152E-01    0.406E-02
DAV:   6    -0.480813540535E+03    0.67987E-05   -0.11661E-04  1296   0.881E-02    0.120E-02
DAV:   7    -0.480813545195E+03   -0.46599E-05   -0.15778E-05   968   0.187E-02
  44 F= -.48081355E+03 E0= -.48078320E+03  d E =-.447662E-02
       N       E                     dE             d eps       ncg     rms          rms(c)
DAV:   1    -0.480809638881E+03    0.39017E-02   -0.47281E+00  1440   0.516E+00    0.354E-01
DAV:   2    -0.480814855009E+03   -0.52161E-02   -0.69674E-02  1888   0.818E-01    0.209E-01
DAV:   3    -0.480814666812E+03    0.18820E-03   -0.26924E-03  2040   0.188E-01    0.132E-01
DAV:   4    -0.480814712225E+03   -0.45413E-04   -0.86524E-04  2056   0.167E-01    0.742E-02
DAV:   5    -0.480814721758E+03   -0.95333E-05   -0.52321E-04  1880   0.183E-01    0.442E-02
DAV:   6    -0.480814717501E+03    0.42569E-05   -0.12877E-04  1344   0.904E-02    0.128E-02
DAV:   7    -0.480814723487E+03   -0.59855E-05   -0.20226E-05  1000   0.180E-02
  45 F= -.48081472E+03 E0= -.48078436E+03  d E =-.565492E-02
       N       E                     dE             d eps       ncg     rms          rms(c)
DAV:   1    -0.480814690121E+03    0.27380E-04   -0.37146E+00  1440   0.459E+00    0.326E-01
DAV:   2    -0.480818890663E+03   -0.42005E-02   -0.58348E-02  1936   0.757E-01    0.186E-01
DAV:   3    -0.480818758530E+03    0.13213E-03   -0.25695E-03  2192   0.264E-01    0.127E-01
DAV:   4    -0.480818791770E+03   -0.33240E-04   -0.11375E-03  2088   0.244E-01    0.866E-02
DAV:   5    -0.480818767200E+03    0.24570E-04   -0.46807E-04  1824   0.177E-01    0.321E-02
DAV:   6    -0.480818782569E+03   -0.15369E-04   -0.58725E-05  1232   0.452E-02    0.105E-02
DAV:   7    -0.480818788577E+03   -0.60084E-05   -0.18444E-05  1080   0.134E-02
  46 F= -.48081879E+03 E0= -.48078851E+03  d E =-.406509E-02
       N       E                     dE             d eps       ncg     rms          rms(c)
DAV:   1    -0.480811935384E+03    0.68472E-02   -0.83280E+00  1440   0.688E+00    0.492E-01
DAV:   2    -0.480821368758E+03   -0.94334E-02   -0.13114E-01  1936   0.114E+00    0.279E-01
DAV:   3    -0.480821072723E+03    0.29604E-03   -0.59936E-03  2192   0.403E-01    0.192E-01
DAV:   4    -0.480821130325E+03   -0.57602E-04   -0.25682E-03  2088   0.367E-01    0.131E-01
DAV:   5    -0.480821072562E+03    0.57763E-04   -0.10501E-03  2136   0.264E-01    0.489E-02
DAV:   6    -0.480821105113E+03   -0.32551E-04   -0.13866E-04  1672   0.633E-02    0.166E-02
DAV:   7    -0.480821114410E+03   -0.92969E-05   -0.25673E-05  1008   0.147E-02
  47 F= -.48082111E+03 E0= -.48079096E+03  d E =-.639092E-02
       N       E                     dE             d eps       ncg     rms          rms(c)
DAV:   1    -0.480822329453E+03   -0.12243E-02   -0.24303E+00  1408   0.384E+00    0.294E-01
DAV:   2    -0.480825565026E+03   -0.32356E-02   -0.45606E-02  1912   0.712E-01    0.172E-01
DAV:   3    -0.480825466959E+03    0.98067E-04   -0.32195E-03  2256   0.350E-01    0.128E-01
DAV:   4    -0.480825403544E+03    0.63414E-04   -0.10523E-03  2112   0.239E-01    0.725E-02
DAV:   5    -0.480825399458E+03    0.40860E-05   -0.25981E-04  2024   0.116E-01    0.248E-02
DAV:   6    -0.480825412208E+03   -0.12750E-04   -0.35082E-05  1072   0.255E-02    0.881E-03
DAV:   7    -0.480825417598E+03   -0.53893E-05   -0.12093E-05  1040   0.127E-02
  48 F= -.48082542E+03 E0= -.48079532E+03  d E =-.430319E-02
       N       E                     dE             d eps       ncg     rms          rms(c)
DAV:   1    -0.480824971259E+03    0.44095E-03   -0.94247E-01  1408   0.239E+00    0.182E-01
DAV:   2    -0.480826221909E+03   -0.12506E-02   -0.17593E-02  1928   0.443E-01    0.107E-01
DAV:   3    -0.480826181559E+03    0.40350E-04   -0.12343E-03  2264   0.215E-01    0.792E-02
DAV:   4    -0.480826158264E+03    0.23294E-04   -0.40583E-04  2048   0.149E-01    0.451E-02
DAV:   5    -0.480826156827E+03    0.14368E-05   -0.90818E-05  1336   0.729E-02
  49 F= -.48082616E+03 E0= -.48079609E+03  d E =-.504242E-02
       N       E                     dE             d eps       ncg     rms          rms(c)
DAV:   1    -0.480827081183E+03   -0.92292E-03   -0.19029E+00  1408   0.342E+00    0.227E-01
DAV:   2    -0.480829673840E+03   -0.25927E-02   -0.32911E-02  1976   0.571E-01    0.139E-01
DAV:   3    -0.480829598269E+03    0.75571E-04   -0.12230E-03  2032   0.133E-01    0.911E-02
DAV:   4    -0.480829631528E+03   -0.33260E-04   -0.41545E-04  2024   0.118E-01    0.524E-02
DAV:   5    -0.480829640587E+03   -0.90582E-05   -0.24295E-04  1616   0.129E-01    0.313E-02
DAV:   6    -0.480829641493E+03   -0.90648E-06   -0.61207E-05  1208   0.646E-02
  50 F= -.48082964E+03 E0= -.48079953E+03  d E =-.348467E-02
       N       E                     dE             d eps       ncg     rms          rms(c)
DAV:   1    -0.480823536138E+03    0.61044E-02   -0.49231E+00  1408   0.551E+00    0.366E-01
DAV:   2    -0.480830385149E+03   -0.68490E-02   -0.86814E-02  1976   0.942E-01    0.224E-01
DAV:   3    -0.480830193768E+03    0.19138E-03   -0.31956E-03  2032   0.208E-01    0.146E-01
DAV:   4    -0.480830268795E+03   -0.75027E-04   -0.10327E-03  2000   0.181E-01    0.821E-02
DAV:   5    -0.480830295981E+03   -0.27186E-04   -0.61347E-04  1992   0.204E-01    0.509E-02
DAV:   6    -0.480830291597E+03    0.43845E-05   -0.16778E-04  1488   0.104E-01    0.139E-02
DAV:   7    -0.480830297107E+03   -0.55105E-05   -0.21713E-05  1040   0.175E-02
  51 F= -.48083030E+03 E0= -.48080009E+03  d E =-.414028E-02
       N       E                     dE             d eps       ncg     rms          rms(c)
DAV:   1    -0.480829726222E+03    0.56537E-03   -0.74707E-01  1408   0.215E+00    0.141E-01
DAV:   2    -0.480830788949E+03   -0.10627E-02   -0.13456E-02  2000   0.373E-01    0.884E-02
DAV:   3    -0.480830753582E+03    0.35366E-04   -0.47191E-04  2008   0.842E-02    0.572E-02
DAV:   4    -0.480830766404E+03   -0.12822E-04   -0.17084E-04  1896   0.775E-02    0.330E-02
DAV:   5    -0.480830768243E+03   -0.18385E-05   -0.93769E-05  1296   0.817E-02
  52 F= -.48083077E+03 E0= -.48080061E+03  d E =-.461142E-02
       N       E                     dE             d eps       ncg     rms          rms(c)
DAV:   1    -0.480831622777E+03   -0.85637E-03   -0.17695E+00  1424   0.331E+00    0.206E-01
DAV:   2    -0.480833943603E+03   -0.23208E-02   -0.28568E-02  1992   0.552E-01    0.132E-01
DAV:   3    -0.480833870465E+03    0.73138E-04   -0.95364E-04  2056   0.116E-01    0.875E-02
DAV:   4    -0.480833898327E+03   -0.27862E-04   -0.31408E-04  1992   0.108E-01    0.528E-02
DAV:   5    -0.480833907836E+03   -0.95087E-05   -0.21252E-04  1592   0.120E-01    0.282E-02
DAV:   6    -0.480833906294E+03    0.15421E-05   -0.52630E-05  1160   0.612E-02
  53 F= -.48083391E+03 E0= -.48080385E+03  d E =-.313805E-02
       N       E                     dE             d eps       ncg     rms          rms(c)
DAV:   1    -0.480831667293E+03    0.22405E-02   -0.25908E+00  1440   0.401E+00    0.253E-01
DAV:   2    -0.480835144899E+03   -0.34776E-02   -0.42613E-02  1992   0.700E-01    0.168E-01
DAV:   3    -0.480835055813E+03    0.89086E-04   -0.19524E-03  2192   0.261E-01    0.117E-01
DAV:   4    -0.480835081822E+03   -0.26009E-04   -0.83934E-04  2112   0.223E-01    0.859E-02
DAV:   5    -0.480835076739E+03    0.50833E-05   -0.31214E-04  1928   0.139E-01    0.274E-02
DAV:   6    -0.480835093190E+03   -0.16451E-04   -0.49966E-05  1240   0.282E-02    0.993E-03
DAV:   7    -0.480835094708E+03   -0.15187E-05   -0.13728E-05   984   0.130E-02
  54 F= -.48083509E+03 E0= -.48080515E+03  d E =-.432647E-02
       N       E                     dE             d eps       ncg     rms          rms(c)
DAV:   1    -0.480835433824E+03   -0.34063E-03   -0.14553E+00  1440   0.303E+00    0.193E-01
DAV:   2    -0.480837389015E+03   -0.19552E-02   -0.24128E-02  1984   0.501E-01    0.124E-01
DAV:   3    -0.480837317806E+03    0.71209E-04   -0.86439E-04  2112   0.125E-01    0.789E-02
DAV:   4    -0.480837350906E+03   -0.33100E-04   -0.35851E-04  2072   0.130E-01    0.550E-02
DAV:   5    -0.480837341636E+03    0.92698E-05   -0.22257E-04  1544   0.122E-01    0.226E-02
DAV:   6    -0.480837344301E+03   -0.26648E-05   -0.31743E-05  1048   0.405E-02
  55 F= -.48083734E+03 E0= -.48080741E+03  d E =-.224959E-02
       N       E                     dE             d eps       ncg     rms          rms(c)
DAV:   1    -0.480836996801E+03    0.34484E-03   -0.47311E-01  1440   0.173E+00    0.111E-01
DAV:   2    -0.480837640338E+03   -0.64354E-03   -0.78689E-03  1968   0.284E-01    0.703E-02
DAV:   3    -0.480837619228E+03    0.21110E-04   -0.28543E-04  2088   0.749E-02    0.448E-02
DAV:   4    -0.480837630906E+03   -0.11678E-04   -0.11775E-04  1712   0.775E-02    0.323E-02
DAV:   5    -0.480837627836E+03    0.30701E-05   -0.73227E-05  1192   0.735E-02
  56 F= -.48083763E+03 E0= -.48080770E+03  d E =-.253313E-02
       N       E                     dE             d eps       ncg     rms          rms(c)
DAV:   1    -0.480837938264E+03   -0.30736E-03   -0.14660E+00  1424   0.308E+00    0.204E-01
DAV:   2    -0.480840015668E+03   -0.20774E-02   -0.26600E-02  1968   0.513E-01    0.126E-01
DAV:   3    -0.480839953447E+03    0.62221E-04   -0.95844E-04  1792   0.983E-02    0.792E-02
DAV:   4    -0.480839973982E+03   -0.20535E-04   -0.21315E-04  1936   0.495E-02    0.359E-02
DAV:   5    -0.480839991387E+03   -0.17405E-04   -0.46546E-05  1224   0.476E-02    0.160E-02
DAV:   6    -0.480839993790E+03   -0.24029E-05   -0.36572E-05  1056   0.519E-02
  57 F= -.48083999E+03 E0= -.48081001E+03  d E =-.236595E-02
       N       E                     dE             d eps       ncg     rms          rms(c)
DAV:   1    -0.480839421265E+03    0.57012E-03   -0.78395E-01  1424   0.225E+00    0.149E-01
DAV:   2    -0.480840553785E+03   -0.11325E-02   -0.14424E-02  1984   0.378E-01    0.918E-02
DAV:   3    -0.480840523107E+03    0.30678E-04   -0.51104E-04  1912   0.738E-02    0.580E-02
DAV:   4    -0.480840535949E+03   -0.12843E-04   -0.11936E-04  1920   0.461E-02    0.274E-02
DAV:   5    -0.480840546314E+03   -0.10365E-04   -0.52081E-05  1136   0.585E-02    0.175E-02
DAV:   6    -0.480840545210E+03    0.11040E-05   -0.27893E-05  1008   0.479E-02
  58 F= -.48084055E+03 E0= -.48081051E+03  d E =-.291737E-02
       N       E                     dE             d eps       ncg     rms          rms(c)
DAV:   1    -0.480840683580E+03   -0.13727E-03   -0.13778E+00  1408   0.303E+00    0.208E-01
DAV:   2    -0.480842596438E+03   -0.19129E-02   -0.25441E-02  1968   0.494E-01    0.129E-01
DAV:   3    -0.480842512092E+03    0.84346E-04   -0.99589E-04  1960   0.104E-01    0.793E-02
DAV:   4    -0.480842524697E+03   -0.12605E-04   -0.23685E-04  1952   0.703E-02    0.392E-02
DAV:   5    -0.480842541941E+03   -0.17244E-04   -0.13276E-04  1520   0.900E-02    0.252E-02
DAV:   6    -0.480842536688E+03    0.52524E-05   -0.52567E-05  1112   0.641E-02
  59 F= -.48084254E+03 E0= -.48081251E+03  d E =-.199148E-02
       N       E                     dE             d eps       ncg     rms          rms(c)
DAV:   1    -0.480842440537E+03    0.10140E-03   -0.15748E-01  1408   0.102E+00    0.711E-02
DAV:   2    -0.480842656400E+03   -0.21586E-03   -0.28449E-03  2000   0.167E-01    0.429E-02
DAV:   3    -0.480842649291E+03    0.71087E-05   -0.11014E-04  1720   0.328E-02    0.265E-02
DAV:   4    -0.480842651427E+03   -0.21360E-05   -0.19464E-05   920   0.157E-02
  60 F= -.48084265E+03 E0= -.48081263E+03  d E =-.210622E-02
       N       E                     dE             d eps       ncg     rms          rms(c)
DAV:   1    -0.480842666791E+03   -0.17500E-04   -0.13542E+00  1440   0.302E+00    0.213E-01
DAV:   2    -0.480844452092E+03   -0.17853E-02   -0.24139E-02  1928   0.478E-01    0.128E-01
DAV:   3    -0.480844362415E+03    0.89677E-04   -0.85866E-04  2024   0.102E-01    0.799E-02
DAV:   4    -0.480844388111E+03   -0.25696E-04   -0.25797E-04  1960   0.787E-02    0.381E-02
DAV:   5    -0.480844403047E+03   -0.14936E-04   -0.13816E-04  1496   0.971E-02    0.263E-02
DAV:   6    -0.480844399854E+03    0.31938E-05   -0.49739E-05  1136   0.622E-02
  61 F= -.48084440E+03 E0= -.48081432E+03  d E =-.174843E-02
       N       E                     dE             d eps       ncg     rms          rms(c)
DAV:   1    -0.480844048183E+03    0.35486E-03   -0.45174E-01  1440   0.175E+00    0.123E-01
DAV:   2    -0.480844672933E+03   -0.62475E-03   -0.82763E-03  1976   0.281E-01    0.737E-02
DAV:   3    -0.480844643271E+03    0.29662E-04   -0.28784E-04  2040   0.605E-02    0.462E-02
DAV:   4    -0.480844653737E+03   -0.10466E-04   -0.89660E-05  1888   0.495E-02    0.229E-02
DAV:   5    -0.480844658504E+03   -0.47661E-05   -0.49007E-05  1104   0.597E-02
  62 F= -.48084466E+03 E0= -.48081454E+03  d E =-.200708E-02
       N       E                     dE             d eps       ncg     rms          rms(c)
DAV:   1    -0.480844934541E+03   -0.28080E-03   -0.10037E+00  1440   0.262E+00    0.196E-01
DAV:   2    -0.480846289678E+03   -0.13551E-02   -0.18790E-02  1944   0.425E-01    0.115E-01
DAV:   3    -0.480846233814E+03    0.55864E-04   -0.95860E-04  2224   0.177E-01    0.806E-02
DAV:   4    -0.480846251287E+03   -0.17473E-04   -0.44481E-04  2072   0.158E-01    0.532E-02
DAV:   5    -0.480846246417E+03    0.48703E-05   -0.15931E-04  1400   0.109E-01    0.192E-02
DAV:   6    -0.480846254323E+03   -0.79062E-05   -0.24459E-05  1048   0.286E-02
  63 F= -.48084625E+03 E0= -.48081613E+03  d E =-.159582E-02
       N       E                     dE             d eps       ncg     rms          rms(c)
DAV:   1    -0.480845682374E+03    0.56404E-03   -0.64432E-01  1440   0.210E+00    0.157E-01
DAV:   2    -0.480846629013E+03   -0.94664E-03   -0.12817E-02  1968   0.363E-01    0.926E-02
DAV:   3    -0.480846591322E+03    0.37691E-04   -0.64384E-04  2240   0.147E-01    0.654E-02
DAV:   4    -0.480846603198E+03   -0.11876E-04   -0.28961E-04  2040   0.128E-01    0.427E-02
DAV:   5    -0.480846601955E+03    0.12423E-05   -0.96803E-05  1336   0.863E-02
  64 F= -.48084660E+03 E0= -.48081647E+03  d E =-.194345E-02
       N       E                     dE             d eps       ncg     rms          rms(c)
DAV:   1    -0.480846774230E+03   -0.17103E-03   -0.93557E-01  1440   0.253E+00    0.176E-01
DAV:   2    -0.480847998445E+03   -0.12242E-02   -0.16566E-02  1992   0.380E-01    0.108E-01
DAV:   3    -0.480847953354E+03    0.45092E-04   -0.62968E-04  2016   0.898E-02    0.688E-02
DAV:   4    -0.480847983830E+03   -0.30476E-04   -0.17867E-04  1936   0.730E-02    0.365E-02
DAV:   5    -0.480847998717E+03   -0.14887E-04   -0.11356E-04  1320   0.910E-02    0.242E-02
DAV:   6    -0.480847997042E+03    0.16754E-05   -0.38897E-05  1072   0.560E-02
  65 F= -.48084800E+03 E0= -.48081782E+03  d E =-.139509E-02
       N       E                     dE             d eps       ncg     rms          rms(c)
DAV:   1    -0.480847544756E+03    0.45396E-03   -0.55678E-01  1440   0.195E+00    0.135E-01
DAV:   2    -0.480848318487E+03   -0.77373E-03   -0.10299E-02  2008   0.312E-01    0.828E-02
DAV:   3    -0.480848291626E+03    0.26861E-04   -0.36932E-04  1800   0.628E-02    0.523E-02
DAV:   4    -0.480848308162E+03   -0.16536E-04   -0.90627E-05  1888   0.374E-02    0.246E-02
DAV:   5    -0.480848318525E+03   -0.10364E-04   -0.32330E-05  1040   0.476E-02    0.145E-02
DAV:   6    -0.480848318063E+03    0.46273E-06   -0.20421E-05   920   0.415E-02
  66 F= -.48084832E+03 E0= -.48081810E+03  d E =-.171611E-02
       N       E                     dE             d eps       ncg     rms          rms(c)
DAV:   1    -0.480848456006E+03   -0.13748E-03   -0.11185E+00  1440   0.276E+00    0.183E-01
DAV:   2    -0.480849947075E+03   -0.14911E-02   -0.19479E-02  1944   0.452E-01    0.119E-01
DAV:   3    -0.480849889934E+03    0.57141E-04   -0.78099E-04  2136   0.149E-01    0.781E-02
DAV:   4    -0.480849939081E+03   -0.49147E-04   -0.40855E-04  2064   0.159E-01    0.602E-02
DAV:   5    -0.480849932091E+03    0.69896E-05   -0.20098E-04  1472   0.118E-01    0.188E-02
DAV:   6    -0.480849940990E+03   -0.88993E-05   -0.25889E-05  1016   0.260E-02
  67 F= -.48084994E+03 E0= -.48081965E+03  d E =-.162293E-02
       N       E                     dE             d eps       ncg     rms          rms(c)
DAV:   1    -0.480848316858E+03    0.16152E-02   -0.17011E+00  1440   0.340E+00    0.226E-01
DAV:   2    -0.480850536140E+03   -0.22193E-02   -0.28989E-02  1944   0.528E-01    0.145E-01
DAV:   3    -0.480850448299E+03    0.87840E-04   -0.11031E-03  2104   0.166E-01    0.944E-02
DAV:   4    -0.480850520960E+03   -0.72661E-04   -0.57016E-04  2112   0.184E-01    0.715E-02
DAV:   5    -0.480850512194E+03    0.87663E-05   -0.31109E-04  1656   0.146E-01    0.238E-02
DAV:   6    -0.480850524316E+03   -0.12122E-04   -0.35118E-05  1032   0.340E-02    0.743E-03
DAV:   7    -0.480850526532E+03   -0.22162E-05   -0.12883E-05   968   0.141E-02
  68 F= -.48085053E+03 E0= -.48082015E+03  d E =-.220847E-02
       N       E                     dE             d eps       ncg     rms          rms(c)
DAV:   1    -0.480850784096E+03   -0.25978E-03   -0.62734E-01  1440   0.207E+00    0.138E-01
DAV:   2    -0.480851676282E+03   -0.89219E-03   -0.11465E-02  1960   0.332E-01    0.874E-02
DAV:   3    -0.480851645849E+03    0.30433E-04   -0.38631E-04  1776   0.642E-02    0.560E-02
DAV:   4    -0.480851669527E+03   -0.23677E-04   -0.11092E-04  1856   0.369E-02    0.259E-02
DAV:   5    -0.480851682894E+03   -0.13367E-04   -0.35213E-05  1024   0.404E-02    0.121E-02
DAV:   6    -0.480851683586E+03   -0.69201E-06   -0.18598E-05   936   0.384E-02
  69 F= -.48085168E+03 E0= -.48082133E+03  d E =-.115705E-02
       N       E                     dE             d eps       ncg     rms          rms(c)
DAV:   1    -0.480848269278E+03    0.34136E-02   -0.31327E+00  1440   0.462E+00    0.312E-01
DAV:   2    -0.480852650095E+03   -0.43808E-02   -0.56123E-02  1920   0.721E-01    0.194E-01
DAV:   3    -0.480852495822E+03    0.15427E-03   -0.19104E-03  1832   0.144E-01    0.124E-01
DAV:   4    -0.480852583609E+03   -0.87787E-04   -0.54248E-04  1912   0.876E-02    0.582E-02
DAV:   5    -0.480852645655E+03   -0.62046E-04   -0.23401E-04  1912   0.102E-01    0.307E-02
DAV:   6    -0.480852644157E+03    0.14977E-05   -0.97912E-05  1352   0.822E-02
  70 F= -.48085264E+03 E0= -.48082233E+03  d E =-.211763E-02
       N       E                     dE             d eps       ncg     rms          rms(c)
DAV:   1    -0.480852906069E+03   -0.26041E-03   -0.75886E-01  1424   0.227E+00    0.156E-01
DAV:   2    -0.480853973507E+03   -0.10674E-02   -0.13813E-02  1960   0.352E-01    0.971E-02
DAV:   3    -0.480853939135E+03    0.34372E-04   -0.46006E-04  1776   0.690E-02    0.608E-02
DAV:   4    -0.480853960189E+03   -0.21054E-04   -0.12148E-04  1840   0.357E-02    0.261E-02
DAV:   5    -0.480853973127E+03   -0.12939E-04   -0.18333E-05  1008   0.272E-02    0.944E-03
DAV:   6    -0.480853975455E+03   -0.23279E-05   -0.14784E-05   928   0.338E-02
  71 F= -.48085398E+03 E0= -.48082364E+03  d E =-.133130E-02
       N       E                     dE             d eps       ncg     rms          rms(c)
DAV:   1    -0.480853234832E+03    0.73830E-03   -0.84893E-01  1440   0.241E+00    0.164E-01
DAV:   2    -0.480854507572E+03   -0.12727E-02   -0.16265E-02  1936   0.395E-01    0.103E-01
DAV:   3    -0.480854465197E+03    0.42375E-04   -0.55482E-04  1968   0.789E-02    0.649E-02
DAV:   4    -0.480854487490E+03   -0.22293E-04   -0.15394E-04  1936   0.577E-02    0.305E-02
DAV:   5    -0.480854501590E+03   -0.14100E-04   -0.77734E-05  1256   0.738E-02    0.204E-02
DAV:   6    -0.480854500028E+03    0.15627E-05   -0.32942E-05  1008   0.523E-02
  72 F= -.48085450E+03 E0= -.48082414E+03  d E =-.185587E-02
       N       E                     dE             d eps       ncg     rms          rms(c)
DAV:   1    -0.480855063039E+03   -0.56145E-03   -0.47693E-01  1432   0.179E+00    0.123E-01
DAV:   2    -0.480855660704E+03   -0.59767E-03   -0.82282E-03  2016   0.279E-01    0.771E-02
DAV:   3    -0.480855640495E+03    0.20209E-04   -0.31598E-04  1944   0.595E-02    0.495E-02
DAV:   4    -0.480855651147E+03   -0.10651E-04   -0.73622E-05  1832   0.422E-02    0.256E-02
DAV:   5    -0.480855660945E+03   -0.97985E-05   -0.50437E-05  1152   0.593E-02
  73 F= -.48085566E+03 E0= -.48082523E+03  d E =-.116092E-02
       N       E                     dE             d eps       ncg     rms          rms(c)
DAV:   1    -0.480855116566E+03    0.53458E-03   -0.83565E-01  1432   0.237E+00    0.164E-01
DAV:   2    -0.480856173991E+03   -0.10574E-02   -0.14560E-02  2040   0.392E-01    0.104E-01
DAV:   3    -0.480856138710E+03    0.35281E-04   -0.68047E-04  2152   0.132E-01    0.701E-02
DAV:   4    -0.480856158296E+03   -0.19586E-04   -0.27933E-04  2032   0.130E-01    0.509E-02
DAV:   5    -0.480856154809E+03    0.34867E-05   -0.14602E-04  1408   0.102E-01    0.198E-02
DAV:   6    -0.480856160059E+03   -0.52499E-05   -0.20605E-05   992   0.317E-02
  74 F= -.48085616E+03 E0= -.48082563E+03  d E =-.166003E-02
       N       E                     dE             d eps       ncg     rms          rms(c)
DAV:   1    -0.480856545608E+03   -0.39080E-03   -0.40234E-01  1416   0.163E+00    0.114E-01
DAV:   2    -0.480857087368E+03   -0.54176E-03   -0.71064E-03  2024   0.262E-01    0.700E-02
DAV:   3    -0.480857071774E+03    0.15594E-04   -0.28764E-04  2000   0.717E-02    0.461E-02
DAV:   4    -0.480857083747E+03   -0.11973E-04   -0.98480E-05  1640   0.670E-02    0.314E-02
DAV:   5    -0.480857087760E+03   -0.40126E-05   -0.67169E-05  1160   0.713E-02
  75 F= -.48085709E+03 E0= -.48082655E+03  d E =-.927701E-03
       N       E                     dE             d eps       ncg     rms          rms(c)
DAV:   1    -0.480854926731E+03    0.21570E-02   -0.21486E+00  1408   0.376E+00    0.266E-01
DAV:   2    -0.480857900442E+03   -0.29737E-02   -0.38985E-02  2024   0.623E-01    0.165E-01
DAV:   3    -0.480857802051E+03    0.98391E-04   -0.16513E-03  2064   0.190E-01    0.110E-01
DAV:   4    -0.480857858696E+03   -0.56645E-04   -0.64501E-04  2096   0.180E-01    0.790E-02
DAV:   5    -0.480857864022E+03   -0.53262E-05   -0.37809E-04  1680   0.159E-01    0.355E-02
DAV:   6    -0.480857874561E+03   -0.10539E-04   -0.80101E-05  1320   0.641E-02    0.986E-03
DAV:   7    -0.480857876398E+03   -0.18368E-05   -0.20622E-05   976   0.166E-02
  76 F= -.48085788E+03 E0= -.48082730E+03  d E =-.171634E-02
       N       E                     dE             d eps       ncg     rms          rms(c)
DAV:   1    -0.480858059364E+03   -0.18480E-03   -0.73045E-01  1408   0.217E+00    0.156E-01
DAV:   2    -0.480859109299E+03   -0.10499E-02   -0.13730E-02  1976   0.360E-01    0.926E-02
DAV:   3    -0.480859076113E+03    0.33186E-04   -0.48175E-04  2072   0.940E-02    0.617E-02
DAV:   4    -0.480859099360E+03   -0.23247E-04   -0.20145E-04  1960   0.949E-02    0.390E-02
DAV:   5    -0.480859099421E+03   -0.61074E-07   -0.11762E-04  1344   0.935E-02    0.200E-02
DAV:   6    -0.480859101651E+03   -0.22308E-05   -0.21899E-05   984   0.393E-02
  77 F= -.48085910E+03 E0= -.48082850E+03  d E =-.122525E-02
       N       E                     dE             d eps       ncg     rms          rms(c)
DAV:   1    -0.480855608622E+03    0.34908E-02   -0.31452E+00  1408   0.450E+00    0.325E-01
DAV:   2    -0.480859995946E+03   -0.43873E-02   -0.57899E-02  1952   0.739E-01    0.191E-01
DAV:   3    -0.480859864893E+03    0.13105E-03   -0.21390E-03  2104   0.193E-01    0.127E-01
DAV:   4    -0.480859958177E+03   -0.93284E-04   -0.83243E-04  2048   0.190E-01    0.795E-02
DAV:   5    -0.480859962040E+03   -0.38635E-05   -0.51347E-04  1760   0.192E-01    0.421E-02
DAV:   6    -0.480859966889E+03   -0.48487E-05   -0.10521E-04  1368   0.808E-02    0.103E-02
DAV:   7    -0.480859970198E+03   -0.33091E-05   -0.19117E-05  1008   0.150E-02
  78 F= -.48085997E+03 E0= -.48082932E+03  d E =-.209380E-02
       N       E                     dE             d eps       ncg     rms          rms(c)
DAV:   1    -0.480860166153E+03   -0.19926E-03   -0.85408E-01  1408   0.231E+00    0.158E-01
DAV:   2    -0.480861261122E+03   -0.10950E-02   -0.14637E-02  1944   0.372E-01    0.952E-02
DAV:   3    -0.480861239960E+03    0.21162E-04   -0.55493E-04  1744   0.727E-02    0.622E-02
DAV:   4    -0.480861258103E+03   -0.18143E-04   -0.11425E-04  1792   0.335E-02    0.308E-02
DAV:   5    -0.480861270667E+03   -0.12564E-04   -0.17492E-05   888   0.212E-02    0.804E-03
DAV:   6    -0.480861273276E+03   -0.26094E-05   -0.11393E-05   944   0.237E-02
  79 F= -.48086127E+03 E0= -.48083059E+03  d E =-.130308E-02
       N       E                     dE             d eps       ncg     rms          rms(c)
DAV:   1    -0.480855563038E+03    0.57076E-02   -0.55178E+00  1424   0.587E+00    0.406E-01
DAV:   2    -0.480862526943E+03   -0.69639E-02   -0.93778E-02  1912   0.942E-01    0.241E-01
DAV:   3    -0.480862372362E+03    0.15458E-03   -0.35341E-03  1744   0.185E-01    0.157E-01
DAV:   4    -0.480862491295E+03   -0.11893E-03   -0.74887E-04  1936   0.865E-02    0.778E-02
DAV:   5    -0.480862578108E+03   -0.86813E-04   -0.15924E-04  1944   0.609E-02    0.235E-02
DAV:   6    -0.480862588638E+03   -0.10530E-04   -0.73450E-05  1312   0.604E-02    0.163E-02
DAV:   7    -0.480862587847E+03    0.79053E-06   -0.20211E-05   976   0.404E-02
  80 F= -.48086259E+03 E0= -.48083180E+03  d E =-.261765E-02
       N       E                     dE             d eps       ncg     rms          rms(c)
DAV:   1    -0.480862492697E+03    0.95941E-04   -0.14744E+00  1440   0.299E+00    0.201E-01
DAV:   2    -0.480864252955E+03   -0.17603E-02   -0.23314E-02  2008   0.479E-01    0.123E-01
DAV:   3    -0.480864210601E+03    0.42354E-04   -0.83283E-04  2032   0.126E-01    0.806E-02
DAV:   4    -0.480864258025E+03   -0.47424E-04   -0.33921E-04  2080   0.130E-01    0.576E-02
DAV:   5    -0.480864261691E+03   -0.36656E-05   -0.22053E-04  1520   0.122E-01    0.253E-02
DAV:   6    -0.480864268204E+03   -0.65129E-05   -0.37917E-05  1024   0.476E-02
  81 F= -.48086427E+03 E0= -.48083343E+03  d E =-.168036E-02
       N       E                     dE             d eps       ncg     rms          rms(c)
DAV:   1    -0.480855950643E+03    0.83110E-02   -0.77589E+00  1440   0.686E+00    0.467E-01
DAV:   2    -0.480865335067E+03   -0.93844E-02   -0.12329E-01  1984   0.110E+00    0.283E-01
DAV:   3    -0.480865041813E+03    0.29325E-03   -0.43304E-03  2048   0.277E-01    0.186E-01
DAV:   4    -0.480865266899E+03   -0.22509E-03   -0.16599E-03  2064   0.282E-01    0.130E-01
DAV:   5    -0.480865294436E+03   -0.27538E-04   -0.11722E-03  2112   0.276E-01    0.606E-02
DAV:   6    -0.480865320016E+03   -0.25580E-04   -0.23666E-04  1760   0.111E-01    0.173E-02
DAV:   7    -0.480865324455E+03   -0.44392E-05   -0.39268E-05  1088   0.176E-02
  82 F= -.48086532E+03 E0= -.48083436E+03  d E =-.273661E-02
       N       E                     dE             d eps       ncg     rms          rms(c)
DAV:   1    -0.480864902004E+03    0.41801E-03   -0.45981E-01  1440   0.167E+00    0.109E-01
DAV:   2    -0.480865449401E+03   -0.54740E-03   -0.72329E-03  2000   0.270E-01    0.693E-02
DAV:   3    -0.480865430834E+03    0.18567E-04   -0.26567E-04  2064   0.753E-02    0.447E-02
DAV:   4    -0.480865443519E+03   -0.12685E-04   -0.11174E-04  1608   0.791E-02    0.331E-02
DAV:   5    -0.480865442006E+03    0.15124E-05   -0.70926E-05  1240   0.727E-02
  83 F= -.48086544E+03 E0= -.48083451E+03  d E =-.285416E-02
       N       E                     dE             d eps       ncg     rms          rms(c)
DAV:   1    -0.480865069495E+03    0.37402E-03   -0.18826E+00  1440   0.332E+00    0.219E-01
DAV:   2    -0.480867319729E+03   -0.22502E-02   -0.29150E-02  1936   0.529E-01    0.133E-01
DAV:   3    -0.480867261911E+03    0.57818E-04   -0.10042E-03  1912   0.102E-01    0.853E-02
DAV:   4    -0.480867297627E+03   -0.35715E-04   -0.25596E-04  1944   0.658E-02    0.397E-02
DAV:   5    -0.480867323527E+03   -0.25901E-04   -0.11495E-04  1584   0.858E-02    0.258E-02
DAV:   6    -0.480867321038E+03    0.24892E-05   -0.57904E-05  1144   0.670E-02
  84 F= -.48086732E+03 E0= -.48083639E+03  d E =-.187903E-02
       N       E                     dE             d eps       ncg     rms          rms(c)
DAV:   1    -0.480863722710E+03    0.36008E-02   -0.35492E+00  1440   0.457E+00    0.304E-01
DAV:   2    -0.480868107920E+03   -0.43852E-02   -0.56364E-02  1912   0.736E-01    0.182E-01
DAV:   3    -0.480868030667E+03    0.77253E-04   -0.19198E-03  1856   0.141E-01    0.117E-01
DAV:   4    -0.480868105988E+03   -0.75321E-04   -0.45842E-04  1912   0.817E-02    0.543E-02
DAV:   5    -0.480868156198E+03   -0.50210E-04   -0.17831E-04  1696   0.103E-01    0.326E-02
DAV:   6    -0.480868153858E+03    0.23402E-05   -0.10396E-04  1288   0.884E-02    0.130E-02
DAV:   7    -0.480868154770E+03   -0.91206E-06   -0.12782E-05  1000   0.272E-02
  85 F= -.48086815E+03 E0= -.48083722E+03  d E =-.271276E-02
       N       E                     dE             d eps       ncg     rms          rms(c)
DAV:   1    -0.480867440991E+03    0.71287E-03   -0.20808E+00  1456   0.343E+00    0.219E-01
DAV:   2    -0.480869854249E+03   -0.24133E-02   -0.31046E-02  1904   0.551E-01    0.134E-01
DAV:   3    -0.480869822782E+03    0.31468E-04   -0.11237E-03  1776   0.102E-01    0.857E-02
DAV:   4    -0.480869858025E+03   -0.35243E-04   -0.24336E-04  1896   0.516E-02    0.409E-02
DAV:   5    -0.480869885320E+03   -0.27295E-04   -0.60823E-05  1432   0.507E-02    0.165E-02
DAV:   6    -0.480869887037E+03   -0.17171E-05   -0.39333E-05  1080   0.555E-02
  86 F= -.48086989E+03 E0= -.48083896E+03  d E =-.173227E-02
       N       E                     dE             d eps       ncg     rms          rms(c)
DAV:   1    -0.480862377207E+03    0.75081E-02   -0.75322E+00  1456   0.652E+00    0.422E-01
DAV:   2    -0.480870995059E+03   -0.86179E-02   -0.11128E-01  1904   0.104E+00    0.255E-01
DAV:   3    -0.480870846267E+03    0.14879E-03   -0.37899E-03  1856   0.194E-01    0.163E-01
DAV:   4    -0.480870972624E+03   -0.12636E-03   -0.83381E-04  1920   0.110E-01    0.797E-02
DAV:   5    -0.480871084682E+03   -0.11206E-03   -0.37335E-04  2040   0.138E-01    0.432E-02
DAV:   6    -0.480871072026E+03    0.12656E-04   -0.19711E-04  1552   0.119E-01    0.182E-02
DAV:   7    -0.480871074332E+03   -0.23067E-05   -0.19510E-05   984   0.356E-02
  87 F= -.48087107E+03 E0= -.48084017E+03  d E =-.291956E-02
       N       E                     dE             d eps       ncg     rms          rms(c)
DAV:   1    -0.480870216978E+03    0.85505E-03   -0.27100E+00  1456   0.384E+00    0.244E-01
DAV:   2    -0.480873275952E+03   -0.30590E-02   -0.39052E-02  1936   0.654E-01    0.155E-01
DAV:   3    -0.480873210139E+03    0.65812E-04   -0.17011E-03  2160   0.218E-01    0.104E-01
DAV:   4    -0.480873254219E+03   -0.44080E-04   -0.75139E-04  2128   0.217E-01    0.817E-02
DAV:   5    -0.480873245480E+03    0.87390E-05   -0.33417E-04  1664   0.145E-01    0.265E-02
DAV:   6    -0.480873263227E+03   -0.17746E-04   -0.53586E-05  1304   0.340E-02    0.890E-03
DAV:   7    -0.480873265778E+03   -0.25511E-05   -0.16653E-05  1048   0.136E-02
  88 F= -.48087327E+03 E0= -.48084227E+03  d E =-.219145E-02
       N       E                     dE             d eps       ncg     rms          rms(c)
DAV:   1    -0.480870235932E+03    0.30273E-02   -0.40003E+00  1456   0.467E+00    0.297E-01
DAV:   2    -0.480874746365E+03   -0.45104E-02   -0.57496E-02  1920   0.790E-01    0.188E-01
DAV:   3    -0.480874658027E+03    0.88338E-04   -0.24926E-03  2152   0.256E-01    0.126E-01
DAV:   4    -0.480874721898E+03   -0.63872E-04   -0.10921E-03  2112   0.261E-01    0.990E-02
DAV:   5    -0.480874705620E+03    0.16278E-04   -0.50838E-04  1944   0.179E-01    0.325E-02
DAV:   6    -0.480874729751E+03   -0.24131E-04   -0.79519E-05  1488   0.400E-02    0.113E-02
DAV:   7    -0.480874731911E+03   -0.21603E-05   -0.17854E-05  1016   0.134E-02
  89 F= -.48087473E+03 E0= -.48084362E+03  d E =-.365758E-02
       N       E                     dE             d eps       ncg     rms          rms(c)
DAV:   1    -0.480856052615E+03    0.18677E-01   -0.16006E+01  1456   0.934E+00    0.604E-01
DAV:   2    -0.480874092296E+03   -0.18040E-01   -0.22911E-01  1912   0.157E+00    0.373E-01
DAV:   3    -0.480873662479E+03    0.42982E-03   -0.98826E-03  2080   0.491E-01    0.251E-01
DAV:   4    -0.480873890810E+03   -0.22833E-03   -0.42203E-03  2104   0.510E-01    0.198E-01
DAV:   5    -0.480873785485E+03    0.10533E-03   -0.20561E-03  2128   0.357E-01    0.676E-02
DAV:   6    -0.480873872904E+03   -0.87419E-04   -0.33797E-04  2016   0.843E-02    0.236E-02
DAV:   7    -0.480873878163E+03   -0.52596E-05   -0.67519E-05  1320   0.207E-02
  90 F= -.48087388E+03 E0= -.48084255E+03  d E =-.280383E-02
       N       E                     dE             d eps       ncg     rms          rms(c)
DAV:   1    -0.480865855649E+03    0.80173E-02   -0.78830E+00  1440   0.656E+00    0.407E-01
DAV:   2    -0.480875220724E+03   -0.93651E-02   -0.11710E-01  1976   0.113E+00    0.268E-01
DAV:   3    -0.480874919105E+03    0.30162E-03   -0.45320E-03  2136   0.363E-01    0.176E-01
DAV:   4    -0.480875030461E+03   -0.11136E-03   -0.21855E-03  2120   0.365E-01    0.138E-01
DAV:   5    -0.480874983352E+03    0.47109E-04   -0.10384E-03  2152   0.258E-01    0.433E-02
DAV:   6    -0.480875026043E+03   -0.42691E-04   -0.15782E-04  1864   0.524E-02    0.164E-02
DAV:   7    -0.480875026889E+03   -0.84612E-06   -0.26498E-05  1024   0.149E-02
  91 F= -.48087503E+03 E0= -.48084386E+03  d E =-.395256E-02
       N       E                     dE             d eps       ncg     rms          rms(c)
DAV:   1    -0.480872988268E+03    0.20378E-02   -0.45656E+00  1440   0.489E+00    0.309E-01
DAV:   2    -0.480878124204E+03   -0.51359E-02   -0.64025E-02  1904   0.804E-01    0.188E-01
DAV:   3    -0.480878045262E+03    0.78942E-04   -0.24278E-03  2032   0.212E-01    0.124E-01
DAV:   4    -0.480878126997E+03   -0.81735E-04   -0.94952E-04  2104   0.227E-01    0.952E-02
DAV:   5    -0.480878113776E+03    0.13220E-04   -0.52475E-04  1704   0.187E-01    0.366E-02
DAV:   6    -0.480878133987E+03   -0.20211E-04   -0.85723E-05  1632   0.554E-02    0.116E-02
DAV:   7    -0.480878135486E+03   -0.14993E-05   -0.15961E-05  1040   0.131E-02
  92 F= -.48087814E+03 E0= -.48084689E+03  d E =-.310860E-02
       N       E                     dE             d eps       ncg     rms          rms(c)
DAV:   1    -0.480855888919E+03    0.22245E-01   -0.22527E+01  1440   0.109E+01    0.699E-01
DAV:   2    -0.480881373522E+03   -0.25485E-01   -0.31566E-01  1896   0.178E+00    0.415E-01
DAV:   3    -0.480880934129E+03    0.43939E-03   -0.11850E-02  2032   0.454E-01    0.277E-01
DAV:   4    -0.480881302161E+03   -0.36803E-03   -0.45018E-03  2096   0.487E-01    0.210E-01
DAV:   5    -0.480881246223E+03    0.55938E-04   -0.26553E-03  2104   0.410E-01    0.847E-02
DAV:   6    -0.480881329872E+03   -0.83649E-04   -0.41812E-04  2056   0.126E-01    0.263E-02
DAV:   7    -0.480881339498E+03   -0.96261E-05   -0.68984E-05  1376   0.218E-02
  93 F= -.48088134E+03 E0= -.48084992E+03  d E =-.631261E-02
       N       E                     dE             d eps       ncg     rms          rms(c)
DAV:   1    -0.480879385023E+03    0.19448E-02   -0.45662E+00  1440   0.481E+00    0.309E-01
DAV:   2    -0.480884519053E+03   -0.51340E-02   -0.63692E-02  1920   0.789E-01    0.184E-01
DAV:   3    -0.480884459013E+03    0.60040E-04   -0.23039E-03  1968   0.177E-01    0.122E-01
DAV:   4    -0.480884534413E+03   -0.75400E-04   -0.71248E-04  2048   0.171E-01    0.833E-02
DAV:   5    -0.480884565296E+03   -0.30883E-04   -0.49985E-04  1808   0.176E-01    0.421E-02
DAV:   6    -0.480884572311E+03   -0.70152E-05   -0.11675E-04  1480   0.866E-02    0.123E-02
DAV:   7    -0.480884577008E+03   -0.46971E-05   -0.22965E-05  1032   0.190E-02
  94 F= -.48088458E+03 E0= -.48085317E+03  d E =-.323751E-02
       N       E                     dE             d eps       ncg     rms          rms(c)
DAV:   1    -0.480841709072E+03    0.42863E-01   -0.41175E+01  1440   0.144E+01    0.956E-01
DAV:   2    -0.480888658029E+03   -0.46949E-01   -0.57677E-01  1888   0.240E+00    0.549E-01
DAV:   3    -0.480887729222E+03    0.92881E-03   -0.20334E-02  2032   0.536E-01    0.369E-01
DAV:   4    -0.480888099422E+03   -0.37020E-03   -0.63844E-03  2064   0.524E-01    0.255E-01
DAV:   5    -0.480888214491E+03   -0.11507E-03   -0.44717E-03  2104   0.524E-01    0.128E-01
DAV:   6    -0.480888277441E+03   -0.62950E-04   -0.10149E-03  2048   0.243E-01    0.377E-02
DAV:   7    -0.480888296914E+03   -0.19473E-04   -0.18645E-04  1832   0.365E-02    0.224E-02
DAV:   8    -0.480888305699E+03   -0.87858E-05   -0.30717E-05   984   0.174E-02
  95 F= -.48088831E+03 E0= -.48085693E+03  d E =-.696620E-02
       N       E                     dE             d eps       ncg     rms          rms(c)
DAV:   1    -0.480884511942E+03    0.37850E-02   -0.56726E+00  1424   0.529E+00    0.334E-01
DAV:   2    -0.480890732407E+03   -0.62205E-02   -0.77243E-02  1920   0.883E-01    0.203E-01
DAV:   3    -0.480890639387E+03    0.93020E-04   -0.28644E-03  2024   0.226E-01    0.136E-01
DAV:   4    -0.480890738826E+03   -0.99438E-04   -0.10891E-03  2120   0.241E-01    0.104E-01
DAV:   5    -0.480890731635E+03    0.71909E-05   -0.64416E-04  1920   0.201E-01    0.411E-02
DAV:   6    -0.480890755284E+03   -0.23650E-04   -0.10652E-04  1584   0.661E-02    0.127E-02
DAV:   7    -0.480890761029E+03   -0.57448E-05   -0.24785E-05  1040   0.146E-02
  96 F= -.48089076E+03 E0= -.48085934E+03  d E =-.245533E-02
       N       E                     dE             d eps       ncg     rms          rms(c)
DAV:   1    -0.480885124888E+03    0.56304E-02   -0.67826E+00  1424   0.579E+00    0.367E-01
DAV:   2    -0.480892616267E+03   -0.74914E-02   -0.92659E-02  1896   0.964E-01    0.222E-01
DAV:   3    -0.480892508991E+03    0.10728E-03   -0.34179E-03  2024   0.244E-01    0.148E-01
DAV:   4    -0.480892621951E+03   -0.11296E-03   -0.12824E-03  2120   0.261E-01    0.112E-01
DAV:   5    -0.480892613009E+03    0.89417E-05   -0.77024E-04  2040   0.219E-01    0.452E-02
DAV:   6    -0.480892638914E+03   -0.25904E-04   -0.12437E-04  1616   0.722E-02    0.141E-02
DAV:   7    -0.480892643710E+03   -0.47968E-05   -0.27397E-05  1032   0.157E-02
  97 F= -.48089264E+03 E0= -.48086118E+03  d E =-.433801E-02
       N       E                     dE             d eps       ncg     rms          rms(c)
[...]
DAV:   7    -0.480961534452E+03   -0.37132E-05   -0.18178E-05   960   0.132E-02
 134 F= -.48096153E+03 E0= -.48092963E+03  d E =-.402276E-02
       N       E                     dE             d eps       ncg     rms          rms(c)
DAV:   1    -0.480959998073E+03    0.15327E-02   -0.71780E+00  1456   0.442E+00    0.200E-01
DAV:   2    -0.480965471191E+03   -0.54731E-02   -0.58888E-02  1944   0.709E-01    0.148E-01
DAV:   3    -0.480965332118E+03    0.13907E-03   -0.19899E-03  2112   0.257E-01    0.989E-02
DAV:   4    -0.480965283843E+03    0.48275E-04   -0.50540E-04  2048   0.168E-01    0.710E-02
DAV:   5    -0.480965267041E+03    0.16802E-04   -0.25262E-04  1944   0.955E-02    0.205E-02
DAV:   6    -0.480965277616E+03   -0.10576E-04   -0.40713E-05  1200   0.205E-02    0.934E-03
DAV:   7    -0.480965280541E+03   -0.29247E-05   -0.76136E-06   928   0.997E-03
 135 F= -.48096528E+03 E0= -.48093343E+03  d E =-.374609E-02
       N       E                     dE             d eps       ncg     rms          rms(c)
DAV:   1    -0.480963467145E+03    0.18105E-02   -0.42120E+00  1456   0.338E+00    0.153E-01
DAV:   2    -0.480966599455E+03   -0.31323E-02   -0.33730E-02  1912   0.532E-01    0.109E-01
DAV:   3    -0.480966546192E+03    0.53263E-04   -0.12743E-03  2120   0.188E-01    0.747E-02
DAV:   4    -0.480966521462E+03    0.24730E-04   -0.30693E-04  2008   0.130E-01    0.542E-02
DAV:   5    -0.480966509820E+03    0.11642E-04   -0.14657E-04  1536   0.766E-02    0.158E-02
DAV:   6    -0.480966516876E+03   -0.70563E-05   -0.27425E-05  1048   0.208E-02
 136 F= -.48096652E+03 E0= -.48093473E+03  d E =-.498242E-02
       N       E                     dE             d eps       ncg     rms          rms(c)
DAV:   1    -0.480966078440E+03    0.43138E-03   -0.76645E-01  1456   0.144E+00    0.658E-02
DAV:   2    -0.480966635236E+03   -0.55680E-03   -0.59510E-03  1912   0.217E-01    0.427E-02
DAV:   3    -0.480966632902E+03    0.23342E-05   -0.21333E-04  1720   0.609E-02    0.295E-02
DAV:   4    -0.480966632656E+03    0.24628E-06   -0.54296E-05  1184   0.572E-02
 137 F= -.48096663E+03 E0= -.48093487E+03  d E =-.509820E-02
       N       E                     dE             d eps       ncg     rms          rms(c)
DAV:   1    -0.480965312415E+03    0.13205E-02   -0.55331E+00  1456   0.393E+00    0.182E-01
DAV:   2    -0.480969662063E+03   -0.43496E-02   -0.47526E-02  1984   0.644E-01    0.134E-01
DAV:   3    -0.480969557185E+03    0.10488E-03   -0.15437E-03  2152   0.226E-01    0.900E-02
DAV:   4    -0.480969525931E+03    0.31255E-04   -0.43786E-04  2048   0.157E-01    0.660E-02
DAV:   5    -0.480969510532E+03    0.15398E-04   -0.20545E-04  1728   0.944E-02    0.194E-02
DAV:   6    -0.480969518541E+03   -0.80088E-05   -0.37419E-05  1200   0.232E-02
 138 F= -.48096952E+03 E0= -.48093777E+03  d E =-.288589E-02
       N       E                     dE             d eps       ncg     rms          rms(c)
DAV:   1    -0.480967154132E+03    0.23564E-02   -0.36578E+00  1472   0.319E+00    0.148E-01
DAV:   2    -0.480970120022E+03   -0.29659E-02   -0.32149E-02  1984   0.531E-01    0.107E-01
DAV:   3    -0.480970050332E+03    0.69690E-04   -0.98156E-04  2136   0.181E-01    0.716E-02
DAV:   4    -0.480970031246E+03    0.19086E-04   -0.28421E-04  1864   0.129E-01    0.532E-02
DAV:   5    -0.480970021712E+03    0.95339E-05   -0.13722E-04  1592   0.768E-02    0.153E-02
DAV:   6    -0.480970028141E+03   -0.64293E-05   -0.24456E-05  1056   0.180E-02
 139 F= -.48097003E+03 E0= -.48093830E+03  d E =-.339549E-02
       N       E                     dE             d eps       ncg     rms          rms(c)
DAV:   1    -0.480968920363E+03    0.11013E-02   -0.45917E+00  1440   0.355E+00    0.156E-01
DAV:   2    -0.480972653314E+03   -0.37330E-02   -0.39867E-02  1976   0.606E-01    0.121E-01
DAV:   3    -0.480972555667E+03    0.97647E-04   -0.13027E-03  2168   0.224E-01    0.800E-02
DAV:   4    -0.480972529164E+03    0.26504E-04   -0.29202E-04  1952   0.126E-01    0.553E-02
DAV:   5    -0.480972527241E+03    0.19228E-05   -0.14768E-04  1656   0.676E-02    0.140E-02
DAV:   6    -0.480972534643E+03   -0.74017E-05   -0.23491E-05  1024   0.151E-02
 140 F= -.48097253E+03 E0= -.48094080E+03  d E =-.250650E-02
       N       E                     dE             d eps       ncg     rms          rms(c)
DAV:   1    -0.480961287858E+03    0.11239E-01   -0.15432E+01  1440   0.652E+00    0.290E-01
DAV:   2    -0.480974508030E+03   -0.13220E-01   -0.14099E-01  1968   0.115E+00    0.231E-01
DAV:   3    -0.480974131180E+03    0.37685E-03   -0.47014E-03  2152   0.434E-01    0.148E-01
DAV:   4    -0.480974025272E+03    0.10591E-03   -0.94566E-04  2112   0.223E-01    0.103E-01
DAV:   5    -0.480974026141E+03   -0.86936E-06   -0.52120E-04  1984   0.118E-01    0.259E-02
DAV:   6    -0.480974045884E+03   -0.19742E-04   -0.73474E-05  1408   0.229E-02    0.136E-02
DAV:   7    -0.480974049422E+03   -0.35387E-05   -0.10967E-05   976   0.108E-02
 141 F= -.48097405E+03 E0= -.48094228E+03  d E =-.402128E-02
       N       E                     dE             d eps       ncg     rms          rms(c)
DAV:   1    -0.480971514815E+03    0.25311E-02   -0.74221E+00  1440   0.454E+00    0.206E-01
DAV:   2    -0.480977611243E+03   -0.60964E-02   -0.65346E-02  1984   0.779E-01    0.153E-01
DAV:   3    -0.480977459203E+03    0.15204E-03   -0.21153E-03  2128   0.278E-01    0.104E-01
DAV:   4    -0.480977421635E+03    0.37567E-04   -0.52668E-04  2048   0.170E-01    0.724E-02
DAV:   5    -0.480977415440E+03    0.61948E-05   -0.24256E-04  1888   0.927E-02    0.209E-02
DAV:   6    -0.480977428782E+03   -0.13342E-04   -0.47186E-05  1248   0.188E-02    0.976E-03
DAV:   7    -0.480977431469E+03   -0.26867E-05   -0.67375E-06   936   0.899E-03
 142 F= -.48097743E+03 E0= -.48094571E+03  d E =-.338205E-02
       N       E                     dE             d eps       ncg     rms          rms(c)
DAV:   1    -0.480974096348E+03    0.33324E-02   -0.57272E+00  1440   0.399E+00    0.181E-01
DAV:   2    -0.480978769863E+03   -0.46735E-02   -0.50056E-02  1976   0.680E-01    0.132E-01
DAV:   3    -0.480978658674E+03    0.11119E-03   -0.15822E-03  2120   0.236E-01    0.902E-02
DAV:   4    -0.480978634090E+03    0.24584E-04   -0.41449E-04  2048   0.151E-01    0.635E-02
DAV:   5    -0.480978628055E+03    0.60345E-05   -0.18337E-04  1624   0.844E-02    0.185E-02
DAV:   6    -0.480978639240E+03   -0.11185E-04   -0.40494E-05  1152   0.204E-02    0.829E-03
DAV:   7    -0.480978641740E+03   -0.25000E-05   -0.72536E-06   936   0.105E-02
 143 F= -.48097864E+03 E0= -.48094696E+03  d E =-.459232E-02
       N       E                     dE             d eps       ncg     rms          rms(c)
DAV:   1    -0.480978345889E+03    0.29335E-03   -0.38815E+00  1440   0.347E+00    0.177E-01
DAV:   2    -0.480981837076E+03   -0.34912E-02   -0.38932E-02  2064   0.632E-01    0.124E-01
DAV:   3    -0.480981745076E+03    0.92000E-04   -0.14016E-03  2104   0.223E-01    0.841E-02
DAV:   4    -0.480981723223E+03    0.21853E-04   -0.39481E-04  2032   0.153E-01    0.619E-02
DAV:   5    -0.480981714180E+03    0.90431E-05   -0.14995E-04  1624   0.826E-02    0.207E-02
DAV:   6    -0.480981723217E+03   -0.90373E-05   -0.36587E-05  1168   0.206E-02
 144 F= -.48098172E+03 E0= -.48095009E+03  d E =-.308148E-02
       N       E                     dE             d eps       ncg     rms          rms(c)
DAV:   1    -0.480980916158E+03    0.79802E-03   -0.15313E+00  1440   0.218E+00    0.113E-01
DAV:   2    -0.480982277088E+03   -0.13609E-02   -0.15167E-02  2056   0.391E-01    0.770E-02
DAV:   3    -0.480982245967E+03    0.31121E-04   -0.54650E-04  2112   0.139E-01    0.523E-02
DAV:   4    -0.480982239251E+03    0.67161E-05   -0.15256E-04  1576   0.979E-02    0.386E-02
DAV:   5    -0.480982236928E+03    0.23236E-05   -0.59195E-05  1216   0.559E-02
 145 F= -.48098224E+03 E0= -.48095065E+03  d E =-.359519E-02
       N       E                     dE             d eps       ncg     rms          rms(c)
DAV:   1    -0.480980697874E+03    0.15414E-02   -0.43636E+00  1440   0.375E+00    0.207E-01
DAV:   2    -0.480984910667E+03   -0.42128E-02   -0.47739E-02  1936   0.660E-01    0.129E-01
DAV:   3    -0.480984846398E+03    0.64269E-04   -0.14809E-03  1976   0.120E-01    0.829E-02
DAV:   4    -0.480984829210E+03    0.17187E-04   -0.34773E-04  2008   0.102E-01    0.514E-02
DAV:   5    -0.480984830862E+03   -0.16521E-05   -0.22567E-04  1624   0.110E-01    0.258E-02
DAV:   6    -0.480984826993E+03    0.38692E-05   -0.53702E-05  1112   0.625E-02
 146 F= -.48098483E+03 E0= -.48095330E+03  d E =-.259007E-02
       N       E                     dE             d eps       ncg     rms          rms(c)
DAV:   1    -0.480980976953E+03    0.38539E-02   -0.45114E+00  1440   0.381E+00    0.210E-01
DAV:   2    -0.480985285825E+03   -0.43089E-02   -0.48794E-02  1928   0.662E-01    0.131E-01
DAV:   3    -0.480985225332E+03    0.60493E-04   -0.15248E-03  1960   0.120E-01    0.843E-02
DAV:   4    -0.480985206911E+03    0.18421E-04   -0.35746E-04  2008   0.101E-01    0.514E-02
DAV:   5    -0.480985209426E+03   -0.25152E-05   -0.22645E-04  1640   0.110E-01    0.260E-02
DAV:   6    -0.480985205326E+03    0.40994E-05   -0.54974E-05  1104   0.634E-02
 147 F= -.48098521E+03 E0= -.48095373E+03  d E =-.296840E-02
       N       E                     dE             d eps       ncg     rms          rms(c)
DAV:   1    -0.480984851620E+03    0.35781E-03   -0.20640E+00  1408   0.254E+00    0.143E-01
DAV:   2    -0.480986790153E+03   -0.19385E-02   -0.22154E-02  1936   0.440E-01    0.862E-02
DAV:   3    -0.480986765687E+03    0.24466E-04   -0.62295E-04  1904   0.741E-02    0.553E-02
DAV:   4    -0.480986759447E+03    0.62402E-05   -0.13517E-04  1936   0.522E-02    0.294E-02
DAV:   5    -0.480986763666E+03   -0.42188E-05   -0.58530E-05  1160   0.573E-02
 148 F= -.48098676E+03 E0= -.48095528E+03  d E =-.155834E-02
       N       E                     dE             d eps       ncg     rms          rms(c)
DAV:   1    -0.480981232603E+03    0.55268E-02   -0.72457E+00  1408   0.477E+00    0.271E-01
DAV:   2    -0.480988375521E+03   -0.71429E-02   -0.81431E-02  1968   0.841E-01    0.165E-01
DAV:   3    -0.480988269151E+03    0.10637E-03   -0.21260E-03  1792   0.130E-01    0.106E-01
DAV:   4    -0.480988232691E+03    0.36461E-04   -0.51313E-04  1864   0.664E-02    0.483E-02
DAV:   5    -0.480988244451E+03   -0.11760E-04   -0.82318E-05  1536   0.532E-02    0.218E-02
DAV:   6    -0.480988250774E+03   -0.63238E-05   -0.58213E-05  1176   0.621E-02
 149 F= -.48098825E+03 E0= -.48095678E+03  d E =-.304545E-02
       N       E                     dE             d eps       ncg     rms          rms(c)
DAV:   1    -0.480989902934E+03   -0.16585E-02   -0.31461E-01  1424   0.123E+00    0.871E-02
DAV:   2    -0.480990262751E+03   -0.35982E-03   -0.46959E-03  2072   0.260E-01    0.579E-02
DAV:   3    -0.480990242998E+03    0.19754E-04   -0.38204E-04  2088   0.124E-01    0.412E-02
DAV:   4    -0.480990232449E+03    0.10549E-04   -0.82455E-05  1328   0.720E-02    0.246E-02
DAV:   5    -0.480990232811E+03   -0.36216E-06   -0.24800E-05  1024   0.356E-02
 150 F= -.48099023E+03 E0= -.48095876E+03  d E =-.198204E-02
       N       E                     dE             d eps       ncg     rms          rms(c)
DAV:   1    -0.480990518778E+03   -0.28633E-03   -0.46044E-01  1424   0.149E+00    0.103E-01
DAV:   2    -0.480991022740E+03   -0.50396E-03   -0.65537E-03  2032   0.270E-01    0.618E-02
DAV:   3    -0.480991001856E+03    0.20884E-04   -0.36409E-04  1680   0.554E-02    0.388E-02
DAV:   4    -0.480990996740E+03    0.51168E-05   -0.59607E-05  1520   0.249E-02
 151 F= -.48099100E+03 E0= -.48095951E+03  d E =-.274597E-02
       N       E                     dE             d eps       ncg     rms          rms(c)
DAV:   1    -0.480992036155E+03   -0.10343E-02   -0.33933E-01  1408   0.130E+00    0.865E-02
DAV:   2    -0.480992431818E+03   -0.39566E-03   -0.48433E-03  2040   0.244E-01    0.545E-02
DAV:   3    -0.480992422012E+03    0.98065E-05   -0.26779E-04  2008   0.851E-02    0.382E-02
DAV:   4    -0.480992420312E+03    0.16998E-05   -0.81917E-05  1288   0.699E-02
 152 F= -.48099242E+03 E0= -.48096098E+03  d E =-.142357E-02
       N       E                     dE             d eps       ncg     rms          rms(c)
DAV:   1    -0.480992438355E+03   -0.16343E-04   -0.39185E-01  1408   0.140E+00    0.952E-02
DAV:   2    -0.480992905652E+03   -0.46730E-03   -0.57992E-03  2064   0.266E-01    0.621E-02
DAV:   3    -0.480992889925E+03    0.15727E-04   -0.31198E-04  2072   0.940E-02    0.418E-02
DAV:   4    -0.480992888213E+03    0.17127E-05   -0.98974E-05  1416   0.783E-02
 153 F= -.48099289E+03 E0= -.48096150E+03  d E =-.189147E-02
       N       E                     dE             d eps       ncg     rms          rms(c)
DAV:   1    -0.480993601231E+03   -0.71131E-03   -0.29454E-01  1416   0.126E+00    0.893E-02
DAV:   2    -0.480994024755E+03   -0.42352E-03   -0.51932E-03  2104   0.259E-01    0.592E-02
DAV:   3    -0.480994002683E+03    0.22072E-04   -0.28928E-04  2064   0.105E-01    0.410E-02
DAV:   4    -0.480993997457E+03    0.52263E-05   -0.86401E-05  1240   0.779E-02
 154 F= -.48099400E+03 E0= -.48096266E+03  d E =-.110924E-02
       N       E                     dE             d eps       ncg     rms          rms(c)
DAV:   1    -0.480993966999E+03    0.35684E-04   -0.20228E-01  1416   0.104E+00    0.765E-02
DAV:   2    -0.480994272509E+03   -0.30551E-03   -0.37319E-03  2120   0.217E-01    0.532E-02
DAV:   3    -0.480994255016E+03    0.17493E-04   -0.22365E-04  2032   0.102E-01    0.360E-02
DAV:   4    -0.480994249929E+03    0.50871E-05   -0.68752E-05  1184   0.699E-02
 155 F= -.48099425E+03 E0= -.48096294E+03  d E =-.136172E-02
       N       E                     dE             d eps       ncg     rms          rms(c)
DAV:   1    -0.480994811575E+03   -0.55656E-03   -0.37542E-01  1408   0.143E+00    0.956E-02
DAV:   2    -0.480995367174E+03   -0.55560E-03   -0.67743E-03  2048   0.268E-01    0.596E-02
DAV:   3    -0.480995351916E+03    0.15259E-04   -0.29288E-04  2032   0.730E-02    0.409E-02
DAV:   4    -0.480995352826E+03   -0.91020E-06   -0.77404E-05  1216   0.691E-02
 156 F= -.48099535E+03 E0= -.48096400E+03  d E =-.110290E-02
       N       E                     dE             d eps       ncg     rms          rms(c)
DAV:   1    -0.480995202264E+03    0.14965E-03   -0.31534E-01  1408   0.131E+00    0.924E-02
DAV:   2    -0.480995597637E+03   -0.39537E-03   -0.50989E-03  2024   0.252E-01    0.573E-02
DAV:   3    -0.480995587559E+03    0.10078E-04   -0.27635E-04  2080   0.867E-02    0.404E-02
DAV:   4    -0.480995586853E+03    0.70664E-06   -0.82997E-05  1248   0.710E-02
 157 F= -.48099559E+03 E0= -.48096418E+03  d E =-.133692E-02
       N       E                     dE             d eps       ncg     rms          rms(c)
DAV:   1    -0.480995938952E+03   -0.35139E-03   -0.37952E-01  1408   0.142E+00    0.840E-02
DAV:   2    -0.480996505708E+03   -0.56676E-03   -0.65298E-03  1992   0.255E-01    0.571E-02
DAV:   3    -0.480996490921E+03    0.14787E-04   -0.23630E-04  2016   0.550E-02    0.372E-02
DAV:   4    -0.480996493123E+03   -0.22016E-05   -0.68877E-05  1232   0.613E-02
 158 F= -.48099649E+03 E0= -.48096513E+03  d E =-.906270E-03
       N       E                     dE             d eps       ncg     rms          rms(c)
DAV:   1    -0.480995993551E+03    0.49737E-03   -0.61287E-01  1416   0.179E+00    0.108E-01
DAV:   2    -0.480996812792E+03   -0.81924E-03   -0.95848E-03  2072   0.341E-01    0.728E-02
DAV:   3    -0.480996784586E+03    0.28206E-04   -0.39882E-04  2112   0.104E-01    0.480E-02
DAV:   4    -0.480996785386E+03   -0.80030E-06   -0.15838E-04  1688   0.980E-02    0.353E-02
DAV:   5    -0.480996778465E+03    0.69217E-05   -0.67589E-05  1176   0.689E-02
 159 F= -.48099678E+03 E0= -.48096546E+03  d E =-.119161E-02
       N       E                     dE             d eps       ncg     rms          rms(c)
DAV:   1    -0.480997238159E+03   -0.45277E-03   -0.36235E-01  1408   0.138E+00    0.858E-02
DAV:   2    -0.480997769288E+03   -0.53113E-03   -0.62892E-03  2024   0.261E-01    0.567E-02
DAV:   3    -0.480997751797E+03    0.17492E-04   -0.25046E-04  2064   0.837E-02    0.376E-02
DAV:   4    -0.480997749505E+03    0.22919E-05   -0.86365E-05  1264   0.753E-02
 160 F= -.48099775E+03 E0= -.48096649E+03  d E =-.971040E-03
       N       E                     dE             d eps       ncg     rms          rms(c)
DAV:   1    -0.480995399565E+03    0.23522E-02   -0.22257E+00  1408   0.341E+00    0.215E-01
DAV:   2    -0.480998568528E+03   -0.31690E-02   -0.38120E-02  2048   0.648E-01    0.146E-01
DAV:   3    -0.480998436912E+03    0.13162E-03   -0.15125E-03  2088   0.220E-01    0.960E-02
DAV:   4    -0.480998423015E+03    0.13898E-04   -0.61956E-04  2104   0.194E-01    0.711E-02
DAV:   5    -0.480998394082E+03    0.28932E-04   -0.24710E-04  1672   0.122E-01    0.233E-02
DAV:   6    -0.480998399845E+03   -0.57630E-05   -0.42237E-05  1112   0.272E-02
 161 F= -.48099840E+03 E0= -.48096727E+03  d E =-.162138E-02
       N       E                     dE             d eps       ncg     rms          rms(c)
DAV:   1    -0.480998673715E+03   -0.27963E-03   -0.38107E-01  1408   0.141E+00    0.918E-02
DAV:   2    -0.480999223546E+03   -0.54983E-03   -0.66327E-03  1968   0.259E-01    0.570E-02
DAV:   3    -0.480999207963E+03    0.15582E-04   -0.25101E-04  1920   0.574E-02    0.372E-02
DAV:   4    -0.480999205654E+03    0.23097E-05   -0.64384E-05  1216   0.532E-02
 162 F= -.48099921E+03 E0= -.48096804E+03  d E =-.805808E-03
       N       E                     dE             d eps       ncg     rms          rms(c)
DAV:   1    -0.480997060126E+03    0.21478E-02   -0.19073E+00  1408   0.316E+00    0.207E-01
DAV:   2    -0.480999788195E+03   -0.27281E-02   -0.33388E-02  2016   0.598E-01    0.136E-01
DAV:   3    -0.480999681784E+03    0.10641E-03   -0.13486E-03  2064   0.182E-01    0.885E-02
DAV:   4    -0.480999669655E+03    0.12128E-04   -0.52392E-04  2048   0.169E-01    0.646E-02
DAV:   5    -0.480999649659E+03    0.19997E-04   -0.24487E-04  1720   0.121E-01    0.230E-02
DAV:   6    -0.480999652056E+03   -0.23971E-05   -0.42780E-05   984   0.404E-02
 163 F= -.48099965E+03 E0= -.48096847E+03  d E =-.125221E-02
       N       E                     dE             d eps       ncg     rms          rms(c)
DAV:   1    -0.481000071184E+03   -0.42152E-03   -0.29223E-01  1408   0.126E+00    0.914E-02
DAV:   2    -0.481000490172E+03   -0.41899E-03   -0.52524E-03  1992   0.232E-01    0.520E-02
DAV:   3    -0.481000476110E+03    0.14062E-04   -0.22016E-04  2056   0.555E-02    0.342E-02
DAV:   4    -0.481000474886E+03    0.12240E-05   -0.56466E-05  1160   0.479E-02
 164 F= -.48100047E+03 E0= -.48096927E+03  d E =-.822831E-03
       N       E                     dE             d eps       ncg     rms          rms(c)
DAV:   1    -0.481000345929E+03    0.13018E-03   -0.31644E-01  1416   0.132E+00    0.100E-01
DAV:   2    -0.481000814233E+03   -0.46830E-03   -0.60242E-03  1976   0.258E-01    0.593E-02
DAV:   3    -0.481000797335E+03    0.16898E-04   -0.34314E-04  2200   0.108E-01    0.426E-02
DAV:   4    -0.481000790893E+03    0.64421E-05   -0.11058E-04  1456   0.807E-02    0.268E-02
DAV:   5    -0.481000787960E+03    0.29329E-05   -0.33385E-05  1008   0.506E-02
 165 F= -.48100079E+03 E0= -.48096956E+03  d E =-.113590E-02
       N       E                     dE             d eps       ncg     rms          rms(c)
DAV:   1    -0.481001289856E+03   -0.49896E-03   -0.12049E-01  1408   0.865E-01    0.733E-02
DAV:   2    -0.481001451889E+03   -0.16203E-03   -0.23887E-03  2048   0.161E-01    0.397E-02
DAV:   3    -0.481001445494E+03    0.63954E-05   -0.15032E-04  1928   0.583E-02    0.278E-02
DAV:   4    -0.481001443972E+03    0.15220E-05   -0.36084E-05  1016   0.458E-02
 166 F= -.48100144E+03 E0= -.48097026E+03  d E =-.656012E-03
