<?xml version="1.0" encoding="ISO-8859-1"?>
<modeling>
 <generator>
  <i name="program" type="string">vasp </i>
  <i name="version" type="string">6.3.2  </i>
  <i name="subversion" type="string">27Jun22 (build May 04 2024 18:40:40) complex                          parallel </i>
  <i name="platform" type="string">LinuxIFC </i>
  <i name="date" type="string">2024 09 03 </i>
  <i name="time" type="string">02:08:05 </i>
 </generator>
 <incar>
  <i type="string" name="SYSTEM">slab_Cel1-OPT</i>
  <i type="int" name="ISTART">     0</i>
  <i type="string" name="PREC">N</i>
  <i type="string" name="ALGO">N</i>
  <i type="int" name="ICHARG">     2</i>
  <i type="int" name="NELM">   200</i>
  <i type="int" name="IBRION">     2</i>
  <i name="EDIFF">      0.00001000</i>
  <i name="EDIFFG">     -0.05000000</i>
  <i type="int" name="NSW">  1000</i>
  <i type="int" name="ISIF">     3</i>
  <i name="ENCUT">    400.00000000</i>
  <i name="POTIM">      0.10000000</i>
  <i type="string" name="LREAL">AUTO</i>
  <i type="int" name="ISMEAR">     0</i>
  <i name="SIGMA">      0.10000000</i>
  <i type="logical" name="LWAVE"> F  </i>
  <i type="logical" name="LCHARG"> F  </i>
  <i type="logical" name="LELF"> F  </i>
  <i type="logical" name="LAECHG"> F  </i>
  <i type="logical" name="LDIPOL"> T  </i>
  <i type="int" name="IDIPOL">     3</i>
 </incar>
 <primitive_cell>
  <structure name="primitive_cell" >
   <crystal>
    <varray name="basis" >
     <v>      13.75970367       0.00000000       0.00000000 </v>
     <v>       0.00000000      11.28669971       0.00000000 </v>
     <v>       0.00000000       0.00000000      15.00000000 </v>
    </varray>
    <i name="volume">   2329.52465126 </i>
    <varray name="rec_basis" >
     <v>       0.07267598       0.00000000       0.00000000 </v>
     <v>       0.00000000       0.08859986       0.00000000 </v>
     <v>       0.00000000       0.00000000       0.06666667 </v>
    </varray>
   </crystal>
   <varray name="positions" >
    <v>       0.07054120       0.38816457       0.22227495 </v>
    <v>       0.98151180       0.21832942       0.16785344 </v>
    <v>       0.22877304       0.39667288       0.18904348 </v>
    <v>       0.82472337       0.57572318       0.18403191 </v>
    <v>       0.14970601       0.24663792       0.12277753 </v>
    <v>       0.90758628       0.38434512       0.21811946 </v>
    <v>       0.56886571       0.39316130       0.23173729 </v>
    <v>       0.47768100       0.22391730       0.18017943 </v>
    <v>       0.73035049       0.39802658       0.19909345 </v>
    <v>       0.31101118       0.58132963       0.17977696 </v>
    <v>       0.64681854       0.25040749       0.13377315 </v>
    <v>       0.40275100       0.39355427       0.22106508 </v>
    <v>       0.81808056       0.88988957       0.05647519 </v>
    <v>       0.73319531       0.72568325       0.12448457 </v>
    <v>       0.97932824       0.89597624       0.07999408 </v>
    <v>       0.06867909       0.07698375       0.09423854 </v>
    <v>       0.90528082       0.74258583       0.14719628 </v>
    <v>       0.65472406       0.89333727       0.07691603 </v>
    <v>       0.31825350       0.89473226       0.05377466 </v>
    <v>       0.22716619       0.72126926       0.10084126 </v>
    <v>       0.47498917       0.90396535       0.09489577 </v>
    <v>       0.56592959       0.08075138       0.11024766 </v>
    <v>       0.38612516       0.76037560       0.16363174 </v>
    <v>       0.15509033       0.88950396       0.05271529 </v>
    <v>       0.98784551       0.43883046       0.24713656 </v>
    <v>       0.89991795       0.26975381       0.19549767 </v>
    <v>       0.15759857       0.43325808       0.24240148 </v>
    <v>       0.14788829       0.14353661       0.08017307 </v>
    <v>       0.98633649       0.10796021       0.13653167 </v>
    <v>       0.22915942       0.31533454       0.12527490 </v>
    <v>       0.06735802       0.28598388       0.16888911 </v>
    <v>       0.82274912       0.45552252       0.21014877 </v>
    <v>       0.48493735       0.44793349       0.25146232 </v>
    <v>       0.39648714       0.27665554       0.20625030 </v>
    <v>       0.65756919       0.43524210       0.25419888 </v>
    <v>       0.64488604       0.14640144       0.09374788 </v>
    <v>       0.48286722       0.11321356       0.15081376 </v>
    <v>       0.72606390       0.31870920       0.13454719 </v>
    <v>       0.56470606       0.29135323       0.18008364 </v>
    <v>       0.31888640       0.46086995       0.20329135 </v>
    <v>       0.73287748       0.94248397       0.03965616 </v>
    <v>       0.64891188       0.78317499       0.11254597 </v>
    <v>       0.90382696       0.93469024       0.03189926 </v>
    <v>       0.90701680       0.63807548       0.18754912 </v>
    <v>       0.73647441       0.61699787       0.15934394 </v>
    <v>       0.98321706       0.81212363       0.14197152 </v>
    <v>       0.81925020       0.78400528       0.10639513 </v>
    <v>       0.56804185       0.96074410       0.08520074 </v>
    <v>       0.23699719       0.94478449       0.02657725 </v>
    <v>       0.14820250       0.77173059       0.06843984 </v>
    <v>       0.40793432       0.93556381       0.03646331 </v>
    <v>       0.38047481       0.65838217       0.20939239 </v>
    <v>       0.23501053       0.60894863       0.12850628 </v>
    <v>       0.46527775       0.83024755       0.16578047 </v>
    <v>       0.31113112       0.79334051       0.10891910 </v>
    <v>       0.06990262       0.95754122       0.06514651 </v>
    <v>       0.57736557       0.77647674       0.24193941 </v>
    <v>       0.65582252       0.60772566       0.29790490 </v>
    <v>       0.48700699       0.61617049       0.29396059 </v>
   </varray>
  </structure>
  <varray name="primitive_index" >
   <v type="int" >        1 </v>
   <v type="int" >        2 </v>
   <v type="int" >        3 </v>
   <v type="int" >        4 </v>
   <v type="int" >        5 </v>
   <v type="int" >        6 </v>
   <v type="int" >        7 </v>
   <v type="int" >        8 </v>
   <v type="int" >        9 </v>
   <v type="int" >       10 </v>
   <v type="int" >       11 </v>
   <v type="int" >       12 </v>
   <v type="int" >       13 </v>
   <v type="int" >       14 </v>
   <v type="int" >       15 </v>
   <v type="int" >       16 </v>
   <v type="int" >       17 </v>
   <v type="int" >       18 </v>
   <v type="int" >       19 </v>
   <v type="int" >       20 </v>
   <v type="int" >       21 </v>
   <v type="int" >       22 </v>
   <v type="int" >       23 </v>
   <v type="int" >       24 </v>
   <v type="int" >       25 </v>
   <v type="int" >       26 </v>
   <v type="int" >       27 </v>
   <v type="int" >       28 </v>
   <v type="int" >       29 </v>
   <v type="int" >       30 </v>
   <v type="int" >       31 </v>
   <v type="int" >       32 </v>
   <v type="int" >       33 </v>
   <v type="int" >       34 </v>
   <v type="int" >       35 </v>
   <v type="int" >       36 </v>
   <v type="int" >       37 </v>
   <v type="int" >       38 </v>
   <v type="int" >       39 </v>
   <v type="int" >       40 </v>
   <v type="int" >       41 </v>
   <v type="int" >       42 </v>
   <v type="int" >       43 </v>
   <v type="int" >       44 </v>
   <v type="int" >       45 </v>
   <v type="int" >       46 </v>
   <v type="int" >       47 </v>
   <v type="int" >       48 </v>
   <v type="int" >       49 </v>
   <v type="int" >       50 </v>
   <v type="int" >       51 </v>
   <v type="int" >       52 </v>
   <v type="int" >       53 </v>
   <v type="int" >       54 </v>
   <v type="int" >       55 </v>
   <v type="int" >       56 </v>
   <v type="int" >       57 </v>
   <v type="int" >       58 </v>
   <v type="int" >       59 </v>
  </varray>
 </primitive_cell>
 <kpoints>
  <generation param="Gamma">
   <v type="int" name="divisions">       2        2        1 </v>
   <v name="usershift">      0.00000000       0.00000000       0.00000000 </v>
   <v name="genvec1">      0.50000000       0.00000000       0.00000000 </v>
   <v name="genvec2">      0.00000000       0.50000000       0.00000000 </v>
   <v name="genvec3">      0.00000000       0.00000000       1.00000000 </v>
   <v name="shift">      0.00000000       0.00000000       0.00000000 </v>
  </generation>
  <varray name="kpointlist" >
   <v>       0.00000000       0.00000000       0.00000000 </v>
   <v>       0.50000000       0.00000000       0.00000000 </v>
   <v>       0.00000000       0.50000000       0.00000000 </v>
   <v>       0.50000000       0.50000000       0.00000000 </v>
  </varray>
  <varray name="weights" >
   <v>       0.25000000 </v>
   <v>       0.25000000 </v>
   <v>       0.25000000 </v>
   <v>       0.25000000 </v>
  </varray>
 </kpoints>
 <parameters>
  <separator name="general" >
   <i type="string" name="SYSTEM">slab_Cel1-OPT</i>
   <i type="logical" name="LCOMPAT"> F  </i>
  </separator>
  <separator name="electronic" >
   <i type="string" name="PREC">n</i>
   <i name="ENMAX">    400.00000000</i>
   <i name="ENAUG">    644.87300000</i>
   <i name="EDIFF">      0.00001000</i>
   <i type="int" name="IALGO">    38</i>
   <i type="int" name="IWAVPR">    11</i>
   <i type="int" name="NBANDS">   176</i>
   <i type="int" name="NBANDSLOW">    -1</i>
   <i type="int" name="NBANDSHIGH">    -1</i>
   <i name="NELECT">    289.00000000</i>
   <i type="int" name="TURBO">     0</i>
   <i type="int" name="IRESTART">     0</i>
   <i type="int" name="NREBOOT">     0</i>
   <i type="int" name="NMIN">     0</i>
   <i name="EREF">      0.00000000</i>
   <separator name="electronic smearing" >
    <i type="int" name="ISMEAR">     0</i>
    <i name="SIGMA">      0.10000000</i>
    <i name="KSPACING">      0.50000000</i>
    <i type="logical" name="KGAMMA"> T  </i>
    <i type="logical" name="KBLOWUP"> T  </i>
   </separator>
   <separator name="electronic projectors" >
    <i type="logical" name="LREAL"> T  </i>
    <v name="ROPT">     -0.00050000     -0.00050000     -0.00050000     -0.00050000</v>
    <i type="int" name="LMAXPAW">  -100</i>
    <i type="int" name="LMAXMIX">     2</i>
    <i type="logical" name="NLSPLINE"> F  </i>
   </separator>
   <separator name="electronic startup" >
    <i type="int" name="ISTART">     0</i>
    <i type="int" name="ICHARG">     2</i>
    <i type="int" name="INIWAV">     1</i>
   </separator>
   <separator name="electronic spin" >
    <i type="int" name="ISPIN">     1</i>
    <i type="logical" name="LNONCOLLINEAR"> F  </i>
    <v name="MAGMOM">      1.00000000      1.00000000      1.00000000      1.00000000      1.00000000      1.00000000      1.00000000      1.00000000      1.00000000      1.00000000      1.00000000      1.00000000      1.00000000      1.00000000      1.00000000      1.00000000      1.00000000      1.00000000      1.00000000      1.00000000
      1.00000000      1.00000000      1.00000000      1.00000000      1.00000000      1.00000000      1.00000000      1.00000000      1.00000000      1.00000000      1.00000000      1.00000000      1.00000000      1.00000000      1.00000000      1.00000000      1.00000000      1.00000000      1.00000000      1.00000000
      1.00000000      1.00000000      1.00000000      1.00000000      1.00000000      1.00000000      1.00000000      1.00000000      1.00000000      1.00000000      1.00000000      1.00000000      1.00000000      1.00000000      1.00000000      1.00000000      1.00000000      1.00000000      1.00000000</v>
    <i name="NUPDOWN">     -1.00000000</i>
    <i type="logical" name="LSORBIT"> F  </i>
    <v name="SAXIS">      0.00000000      0.00000000      1.00000000</v>
    <i type="logical" name="LSPIRAL"> F  </i>
    <v name="QSPIRAL">      0.00000000      0.00000000      0.00000000</v>
    <i type="logical" name="LZEROZ"> F  </i>
   </separator>
   <separator name="electronic exchange-correlation" >
    <i type="logical" name="LASPH"> F  </i>
    <i type="logical" name="LMETAGGA"> F  </i>
   </separator>
   <separator name="electronic convergence" >
    <i type="int" name="NELM">   200</i>
    <i type="int" name="NELMDL">    -5</i>
    <i type="int" name="NELMIN">     2</i>
    <i name="ENINI">    400.00000000</i>
    <separator name="electronic convergence detail" >
     <i type="logical" name="LDIAG"> T  </i>
     <i type="logical" name="LSUBROT"> F  </i>
     <i name="WEIMIN">      0.00100000</i>
     <i name="EBREAK">      0.00000001</i>
     <i name="DEPER">      0.30000000</i>
     <i type="int" name="NRMM">     4</i>
     <i name="TIME">      0.40000000</i>
    </separator>
   </separator>
   <separator name="electronic mixer" >
    <i name="AMIX">      0.40000000</i>
    <i name="BMIX">      1.00000000</i>
    <i name="AMIN">      0.10000000</i>
    <i name="AMIX_MAG">      1.60000000</i>
    <i name="BMIX_MAG">      1.00000000</i>
    <separator name="electronic mixer details" >
     <i type="int" name="IMIX">     4</i>
     <i type="logical" name="MIXFIRST"> F  </i>
     <i type="int" name="MAXMIX">   -45</i>
     <i name="WC">    100.00000000</i>
     <i type="int" name="INIMIX">     1</i>
     <i type="int" name="MIXPRE">     1</i>
     <i type="int" name="MREMOVE">     5</i>
    </separator>
   </separator>
   <separator name="electronic dipolcorrection" >
    <i type="logical" name="LDIPOL"> T  </i>
    <i type="logical" name="LMONO"> F  </i>
    <i type="int" name="IDIPOL">     3</i>
    <i name="EPSILON">      1.00000000</i>
    <v name="DIPOL">   -100.00000000   -100.00000000   -100.00000000</v>
    <i name="EFIELD">      0.00000000</i>
   </separator>
  </separator>
  <separator name="grids" >
   <i type="int" name="NGX">    70</i>
   <i type="int" name="NGY">    56</i>
   <i type="int" name="NGZ">    80</i>
   <i type="int" name="NGXF">   140</i>
   <i type="int" name="NGYF">   112</i>
   <i type="int" name="NGZF">   160</i>
   <i type="logical" name="ADDGRID"> F  </i>
  </separator>
  <separator name="ionic" >
   <i type="int" name="NSW">  1000</i>
   <i type="int" name="IBRION">     2</i>
   <i type="int" name="MDALGO">     0</i>
   <i type="int" name="ISIF">     3</i>
   <i name="PSTRESS">      0.00000000</i>
   <i name="EDIFFG">     -0.05000000</i>
   <i type="int" name="NFREE">     1</i>
   <i name="POTIM">      0.10000000</i>
   <i name="SMASS">     -3.00000000</i>
   <i name="SCALEE">      1.00000000</i>
  </separator>
  <separator name="ionic md" >
   <i name="TEBEG">      0.00010000</i>
   <i name="TEEND">      0.00010000</i>
   <i type="int" name="NBLOCK">     1</i>
   <i type="int" name="KBLOCK">  1000</i>
   <i type="int" name="NPACO">   256</i>
   <i name="APACO">     10.00000000</i>
  </separator>
  <separator name="symmetry" >
   <i type="int" name="ISYM">     2</i>
   <i name="SYMPREC">      0.00001000</i>
  </separator>
  <separator name="dos" >
   <i type="int" name="LORBIT">     0</i>
   <v name="RWIGS">     -1.00000000     -1.00000000     -1.00000000     -1.00000000</v>
   <i type="int" name="NEDOS">   301</i>
   <i name="EMIN">     10.00000000</i>
   <i name="EMAX">    -10.00000000</i>
   <i name="EFERMI">      0.00000000</i>
  </separator>
  <separator name="writing" >
   <i type="int" name="NWRITE">     2</i>
   <i type="logical" name="LWAVE"> F  </i>
   <i type="logical" name="LDOWNSAMPLE"> F  </i>
   <i type="logical" name="LCHARG"> F  </i>
   <i type="logical" name="LPARD"> F  </i>
   <i type="logical" name="LVTOT"> F  </i>
   <i type="logical" name="LVHAR"> F  </i>
   <i type="logical" name="LELF"> F  </i>
   <i type="logical" name="LOPTICS"> F  </i>
   <v name="STM">      0.00000000      0.00000000      0.00000000      0.00000000      0.00000000      0.00000000      0.00000000</v>
  </separator>
  <separator name="performance" >
   <i type="int" name="NPAR">     4</i>
   <i type="int" name="NSIM">     4</i>
   <i type="int" name="NBLK">    -1</i>
   <i type="logical" name="LPLANE"> T  </i>
   <i type="logical" name="LSCALAPACK"> T  </i>
   <i type="logical" name="LSCAAWARE"> F  </i>
   <i type="logical" name="LSCALU"> F  </i>
   <i type="logical" name="LASYNC"> F  </i>
   <i type="logical" name="LORBITALREAL"> F  </i>
  </separator>
  <separator name="miscellaneous" >
   <i type="int" name="IDIOT">     3</i>
   <i type="int" name="PHON_NSTRUCT">    -1</i>
   <i type="logical" name="LMUSIC"> F  </i>
   <v name="POMASS">     12.01100000     14.00100000    107.86800000     63.54600000</v>
   <v name="DARWINR">      0.00000000      0.00000000      0.00000000      0.00000000</v>
   <v name="DARWINV">      1.00000000      1.00000000      1.00000000      1.00000000</v>
   <i type="logical" name="LCORR"> T  </i>
  </separator>
  <i type="logical" name="GGA_COMPAT"> T  </i>
  <i type="logical" name="LBERRY"> F  </i>
  <i type="int" name="ICORELEVEL">     0</i>
  <i type="logical" name="LDAU"> F  </i>
  <i type="int" name="I_CONSTRAINED_M">     0</i>
  <separator name="electronic exchange-correlation" >
   <i type="string" name="GGA">--</i>
   <i type="int" name="VOSKOWN">     0</i>
   <i type="logical" name="LHFCALC"> F  </i>
   <i type="string" name="PRECFOCK"></i>
   <i type="logical" name="LSYMGRAD"> F  </i>
   <i type="logical" name="LHFONE"> F  </i>
   <i type="logical" name="LRHFCALC"> F  </i>
   <i type="logical" name="LTHOMAS"> F  </i>
   <i type="logical" name="LMODELHF"> F  </i>
   <i type="logical" name="LFOCKACE"> F  </i>
   <i name="ENCUT4O">     -1.00000000</i>
   <i type="int" name="EXXOEP">     0</i>
   <i type="int" name="FOURORBIT">     0</i>
   <i name="AEXX">      0.00000000</i>
   <i name="HFALPHA">      0.00000000</i>
   <i name="MCALPHA">      0.00000000</i>
   <i name="ALDAX">      1.00000000</i>
   <i name="AGGAX">      1.00000000</i>
   <i name="ALDAC">      1.00000000</i>
   <i name="AGGAC">      1.00000000</i>
   <i type="int" name="NKREDX">     1</i>
   <i type="int" name="NKREDY">     1</i>
   <i type="int" name="NKREDZ">     1</i>
   <i type="logical" name="SHIFTRED"> F  </i>
   <i type="logical" name="ODDONLY"> F  </i>
   <i type="logical" name="EVENONLY"> F  </i>
   <i type="int" name="LMAXFOCK">     0</i>
   <i type="int" name="NMAXFOCKAE">     0</i>
   <i type="logical" name="LFOCKAEDFT"> F  </i>
   <i name="HFSCREEN">      0.00000000</i>
   <i name="HFSCREENC">      0.00000000</i>
   <i type="int" name="NBANDSGWLOW">     0</i>
  </separator>
  <separator name="vdW DFT" >
   <i type="logical" name="LUSE_VDW"> F  </i>
   <i name="Zab_VDW">     -0.84910000</i>
   <i name="PARAM1">      0.12340000</i>
   <i name="PARAM2">      1.00000000</i>
   <i name="PARAM3">      0.00000000</i>
  </separator>
  <separator name="model GW" >
   <i type="int" name="MODEL_GW">     0</i>
   <i name="MODEL_EPS0">     23.69008120</i>
   <i name="MODEL_ALPHA">      1.00000000</i>
  </separator>
  <separator name="linear response parameters" >
   <i type="logical" name="LEPSILON"> F  </i>
   <i type="logical" name="LRPA"> F  </i>
   <i type="logical" name="LNABLA"> F  </i>
   <i type="logical" name="LVEL"> F  </i>
   <i name="CSHIFT">      0.10000000</i>
   <i name="OMEGAMAX">     -1.00000000</i>
   <i name="DEG_THRESHOLD">      0.00200000</i>
   <i name="RTIME">     -0.10000000</i>
   <i name="WPLASMAI">      0.00000000</i>
   <v name="DFIELD">      0.00000000      0.00000000      0.00000000</v>
   <v name="WPLASMA">      0.00000000      0.00000000      0.00000000      0.00000000      0.00000000      0.00000000      0.00000000      0.00000000      0.00000000</v>
  </separator>
  <separator name="orbital magnetization" >
   <i type="logical" name="NUCIND"> F  </i>
   <v name="MAGPOS">      0.00000000      0.00000000      0.00000000</v>
   <i type="logical" name="LNICSALL"> T  </i>
   <i type="logical" name="ORBITALMAG"> F  </i>
   <i type="logical" name="LMAGBLOCH"> F  </i>
   <i type="logical" name="LCHIMAG"> F  </i>
   <i type="logical" name="LGAUGE"> T  </i>
   <i type="int" name="MAGATOM">     0</i>
   <v name="MAGDIPOL">      0.00000000      0.00000000      0.00000000</v>
   <v name="AVECCONST">      0.00000000      0.00000000      0.00000000</v>
  </separator>
  <separator name="response functions" >
   <i type="logical" name="LFINITE_TEMPERATURE"> F  </i>
   <i type="logical" name="LADDER"> F  </i>
   <i type="logical" name="LRPAFORCE"> F  </i>
   <i type="logical" name="LFXC"> F  </i>
   <i type="logical" name="LHARTREE"> T  </i>
   <i type="int" name="IBSE">     0</i>
   <v type="int" name="KPOINT">    -1     0     0     0</v>
   <i type="logical" name="LTCTC"> F  </i>
   <i type="logical" name="LTCTE"> F  </i>
   <i type="logical" name="LTETE"> F  </i>
   <i type="logical" name="LTRIPLET"> F  </i>
   <i type="logical" name="LFXCEPS"> F  </i>
   <i type="logical" name="LFXHEG"> F  </i>
   <i type="int" name="NATURALO">     2</i>
   <i type="logical" name="LHOLEGF"> F  </i>
   <i type="logical" name="L2ORDER"> F  </i>
   <i type="logical" name="LDMP1"> F  </i>
   <i type="logical" name="LMP2LT"> F  </i>
   <i type="logical" name="LSMP2LT"> F  </i>
   <i type="logical" name="LGWLF"> F  </i>
   <i name="ENCUTGW">     -2.00000000</i>
   <i name="ENCUTGWSOFT">     -2.00000000</i>
   <i name="ENCUTLF">     -1.00000000</i>
   <i type="logical" name="LESF_SPLINES"> F  </i>
   <i type="int" name="LMAXMP2">    -1</i>
   <i name="SCISSOR">      0.00000000</i>
   <i type="int" name="NOMEGA">     0</i>
   <i type="int" name="NOMEGAR">     0</i>
   <i type="int" name="NBANDSGW">    -1</i>
   <i type="int" name="NBANDSO">    -1</i>
   <i type="int" name="NBANDSV">    -1</i>
   <i type="int" name="NELMGW">     1</i>
   <i type="int" name="NELMHF">     1</i>
   <i type="int" name="DIM">     3</i>
   <i type="int" name="IESPILON">     4</i>
   <i type="int" name="ANTIRES">     0</i>
   <i name="OMEGAMAX">    -30.00000000</i>
   <i name="OMEGAMIN">    -30.00000000</i>
   <i name="OMEGATL">   -200.00000000</i>
   <i type="int" name="OMEGAGRID">     0</i>
   <i name="CSHIFT">     -0.10000000</i>
   <i type="logical" name="LSELFENERGY"> F  </i>
   <i type="logical" name="LSPECTRAL"> F  </i>
   <i type="logical" name="LSPECTRALGW"> F  </i>
   <i type="logical" name="LSINGLES"> F  </i>
   <i type="logical" name="LFERMIGW"> F  </i>
   <i type="logical" name="ODDONLYGW"> F  </i>
   <i type="logical" name="EVENONLYGW"> F  </i>
   <i type="int" name="NKREDLFX">     1</i>
   <i type="int" name="NKREDLFY">     1</i>
   <i type="int" name="NKREDLFZ">     1</i>
   <i type="int" name="MAXMEM">  2800</i>
   <i type="int" name="TELESCOPE">     0</i>
   <i type="int" name="NTAUPAR">    -1</i>
   <i type="int" name="NOMEGAPAR">    -1</i>
   <i name="DAMP_NEWTON">      0.80000001</i>
   <i name="LAMBDA">      1.00000000</i>
  </separator>
  <separator name="External order field" >
   <i name="OFIELD_KAPPA">      0.00000000</i>
   <v name="OFIELD_K">      0.00000000      0.00000000      0.00000000</v>
   <i name="OFIELD_Q6_NEAR">      0.00000000</i>
   <i name="OFIELD_Q6_FAR">      0.00000000</i>
   <i name="OFIELD_A">      0.00000000</i>
  </separator>
  <separator name="optional k-points parameters" >
   <i type="int" name="KPOINTS_OPT_MODE">     1</i>
   <i type="logical" name="LKPOINTS_OPT"> F  </i>
  </separator>
  <separator name="solvation model" >
   <i type="logical" name="LSOL"> F  </i>
  </separator>
 </parameters>
 <atominfo>
  <atoms>      59 </atoms>
  <types>       4 </types>
  <array name="atoms" >
   <dimension dim="1">ion</dimension>
   <field type="string">element</field>
   <field type="int">atomtype</field>
   <set>
    <rc><c>C </c><c>   1</c></rc>
    <rc><c>C </c><c>   1</c></rc>
    <rc><c>C </c><c>   1</c></rc>
    <rc><c>C </c><c>   1</c></rc>
    <rc><c>C </c><c>   1</c></rc>
    <rc><c>C </c><c>   1</c></rc>
    <rc><c>C </c><c>   1</c></rc>
    <rc><c>C </c><c>   1</c></rc>
    <rc><c>C </c><c>   1</c></rc>
    <rc><c>C </c><c>   1</c></rc>
    <rc><c>C </c><c>   1</c></rc>
    <rc><c>C </c><c>   1</c></rc>
    <rc><c>C </c><c>   1</c></rc>
    <rc><c>C </c><c>   1</c></rc>
    <rc><c>C </c><c>   1</c></rc>
    <rc><c>C </c><c>   1</c></rc>
    <rc><c>C </c><c>   1</c></rc>
    <rc><c>C </c><c>   1</c></rc>
    <rc><c>C </c><c>   1</c></rc>
    <rc><c>C </c><c>   1</c></rc>
    <rc><c>C </c><c>   1</c></rc>
    <rc><c>C </c><c>   1</c></rc>
    <rc><c>C </c><c>   1</c></rc>
    <rc><c>C </c><c>   1</c></rc>
    <rc><c>N </c><c>   2</c></rc>
    <rc><c>N </c><c>   2</c></rc>
    <rc><c>N </c><c>   2</c></rc>
    <rc><c>N </c><c>   2</c></rc>
    <rc><c>N </c><c>   2</c></rc>
    <rc><c>N </c><c>   2</c></rc>
    <rc><c>N </c><c>   2</c></rc>
    <rc><c>N </c><c>   2</c></rc>
    <rc><c>N </c><c>   2</c></rc>
    <rc><c>N </c><c>   2</c></rc>
    <rc><c>N </c><c>   2</c></rc>
    <rc><c>N </c><c>   2</c></rc>
    <rc><c>N </c><c>   2</c></rc>
    <rc><c>N </c><c>   2</c></rc>
    <rc><c>N </c><c>   2</c></rc>
    <rc><c>N </c><c>   2</c></rc>
    <rc><c>N </c><c>   2</c></rc>
    <rc><c>N </c><c>   2</c></rc>
    <rc><c>N </c><c>   2</c></rc>
    <rc><c>N </c><c>   2</c></rc>
    <rc><c>N </c><c>   2</c></rc>
    <rc><c>N </c><c>   2</c></rc>
    <rc><c>N </c><c>   2</c></rc>
    <rc><c>N </c><c>   2</c></rc>
    <rc><c>N </c><c>   2</c></rc>
    <rc><c>N </c><c>   2</c></rc>
    <rc><c>N </c><c>   2</c></rc>
    <rc><c>N </c><c>   2</c></rc>
    <rc><c>N </c><c>   2</c></rc>
    <rc><c>N </c><c>   2</c></rc>
    <rc><c>N </c><c>   2</c></rc>
    <rc><c>N </c><c>   2</c></rc>
    <rc><c>Ag</c><c>   3</c></rc>
    <rc><c>Ag</c><c>   3</c></rc>
    <rc><c>Cu</c><c>   4</c></rc>
   </set>
  </array>
  <array name="atomtypes" >
   <dimension dim="1">type</dimension>
   <field type="int">atomspertype</field>
   <field type="string">element</field>
   <field>mass</field>
   <field>valence</field>
   <field type="string">pseudopotential</field>
   <set>
    <rc><c>  24</c><c>C </c><c>     12.01100000</c><c>      4.00000000</c><c>  PAW_PBE C 08Apr2002                   </c></rc>
    <rc><c>  32</c><c>N </c><c>     14.00100000</c><c>      5.00000000</c><c>  PAW_PBE N 08Apr2002                   </c></rc>
    <rc><c>   2</c><c>Ag</c><c>    107.86800000</c><c>     11.00000000</c><c>  PAW_PBE Ag 02Apr2005                  </c></rc>
    <rc><c>   1</c><c>Cu</c><c>     63.54600000</c><c>     11.00000000</c><c>  PAW_PBE Cu 22Jun2005                  </c></rc>
   </set>
  </array>
 </atominfo>
 <structure name="initialpos" >
  <crystal>
   <varray name="basis" >
    <v>      13.75970367       0.00000000       0.00000000 </v>
    <v>       0.00000000      11.28669971       0.00000000 </v>
    <v>       0.00000000       0.00000000      15.00000000 </v>
   </varray>
   <i name="volume">   2329.52465126 </i>
   <varray name="rec_basis" >
    <v>       0.07267598       0.00000000       0.00000000 </v>
    <v>       0.00000000       0.08859986       0.00000000 </v>
    <v>       0.00000000       0.00000000       0.06666667 </v>
   </varray>
  </crystal>
  <varray name="positions" >
   <v>       0.07054120       0.38816457       0.22227495 </v>
   <v>       0.98151180       0.21832942       0.16785344 </v>
   <v>       0.22877304       0.39667288       0.18904348 </v>
   <v>       0.82472337       0.57572318       0.18403191 </v>
   <v>       0.14970601       0.24663792       0.12277753 </v>
   <v>       0.90758628       0.38434512       0.21811946 </v>
   <v>       0.56886571       0.39316130       0.23173729 </v>
   <v>       0.47768100       0.22391730       0.18017943 </v>
   <v>       0.73035049       0.39802658       0.19909345 </v>
   <v>       0.31101118       0.58132963       0.17977696 </v>
   <v>       0.64681854       0.25040749       0.13377315 </v>
   <v>       0.40275100       0.39355427       0.22106508 </v>
   <v>       0.81808056       0.88988957       0.05647519 </v>
   <v>       0.73319531       0.72568325       0.12448457 </v>
   <v>       0.97932824       0.89597624       0.07999408 </v>
   <v>       0.06867909       0.07698375       0.09423854 </v>
   <v>       0.90528082       0.74258583       0.14719628 </v>
   <v>       0.65472406       0.89333727       0.07691603 </v>
   <v>       0.31825350       0.89473226       0.05377466 </v>
   <v>       0.22716619       0.72126926       0.10084126 </v>
   <v>       0.47498917       0.90396535       0.09489577 </v>
   <v>       0.56592959       0.08075138       0.11024766 </v>
   <v>       0.38612516       0.76037560       0.16363174 </v>
   <v>       0.15509033       0.88950396       0.05271529 </v>
   <v>       0.98784551       0.43883046       0.24713656 </v>
   <v>       0.89991795       0.26975381       0.19549767 </v>
   <v>       0.15759857       0.43325808       0.24240148 </v>
   <v>       0.14788829       0.14353661       0.08017307 </v>
   <v>       0.98633649       0.10796021       0.13653167 </v>
   <v>       0.22915942       0.31533454       0.12527490 </v>
   <v>       0.06735802       0.28598388       0.16888911 </v>
   <v>       0.82274912       0.45552252       0.21014877 </v>
   <v>       0.48493735       0.44793349       0.25146232 </v>
   <v>       0.39648714       0.27665554       0.20625030 </v>
   <v>       0.65756919       0.43524210       0.25419888 </v>
   <v>       0.64488604       0.14640144       0.09374788 </v>
   <v>       0.48286722       0.11321356       0.15081376 </v>
   <v>       0.72606390       0.31870920       0.13454719 </v>
   <v>       0.56470606       0.29135323       0.18008364 </v>
   <v>       0.31888640       0.46086995       0.20329135 </v>
   <v>       0.73287748       0.94248397       0.03965616 </v>
   <v>       0.64891188       0.78317499       0.11254597 </v>
   <v>       0.90382696       0.93469024       0.03189926 </v>
   <v>       0.90701680       0.63807548       0.18754912 </v>
   <v>       0.73647441       0.61699787       0.15934394 </v>
   <v>       0.98321706       0.81212363       0.14197152 </v>
   <v>       0.81925020       0.78400528       0.10639513 </v>
   <v>       0.56804185       0.96074410       0.08520074 </v>
   <v>       0.23699719       0.94478449       0.02657725 </v>
   <v>       0.14820250       0.77173059       0.06843984 </v>
   <v>       0.40793432       0.93556381       0.03646331 </v>
   <v>       0.38047481       0.65838217       0.20939239 </v>
   <v>       0.23501053       0.60894863       0.12850628 </v>
   <v>       0.46527775       0.83024755       0.16578047 </v>
   <v>       0.31113112       0.79334051       0.10891910 </v>
   <v>       0.06990262       0.95754122       0.06514651 </v>
   <v>       0.57736557       0.77647674       0.24193941 </v>
   <v>       0.65582252       0.60772566       0.29790490 </v>
   <v>       0.48700699       0.61617049       0.29396059 </v>
  </varray>
 </structure>
 <calculation>
  <scstep>
   <time name="dav">    1.66    1.67</time>
   <time name="total">    1.70    1.71</time>
   <dipole>
    <v name="dipole">      0.00000000       0.00000000       0.00008928 </v>
    <i name="Tr[quadrupol]">  -8161.04662292 </i>
    <i name="Echarged">      0.00000000 </i>
    <i name="Edipol_quadrupol">      0.00000000 </i>
    <i name="Eion">      0.00000000 </i>
   </dipole>
   <energy>
    <i name="alphaZ">    174.12935500 </i>
    <i name="ewald">  28919.63643680 </i>
    <i name="hartreedc"> -41786.44006759 </i>
    <i name="XCdc">    980.87125693 </i>
    <i name="pawpsdc">  12397.50748323 </i>
    <i name="pawaedc"> -12462.90077063 </i>
    <i name="eentropy">     -0.10057625 </i>
    <i name="bandstr">  -1021.43009658 </i>
    <i name="atom">  15459.72794712 </i>
    <i name="e_fr_energy">   2661.00096803 </i>
    <i name="e_wo_entrp">   2661.10154428 </i>
    <i name="e_0_energy">   2661.05125615 </i>
   </energy>
  </scstep>
  <scstep>
   <time name="dav">    1.91    1.92</time>
   <time name="total">    1.91    1.92</time>
   <dipole>
    <v name="dipole">      0.00000000       0.00000000       0.00008928 </v>
    <i name="Tr[quadrupol]">  -8161.04662292 </i>
    <i name="Echarged">      0.00000000 </i>
    <i name="Edipol_quadrupol">      0.00000000 </i>
    <i name="Eion">      0.00000000 </i>
   </dipole>
   <energy>
    <i name="e_fr_energy">     18.87380526 </i>
    <i name="e_wo_entrp">     18.90880033 </i>
    <i name="e_0_energy">     18.89130280 </i>
   </energy>
  </scstep>
  <scstep>
   <time name="dav">    1.69    1.69</time>
   <time name="total">    1.69    1.69</time>
   <dipole>
    <v name="dipole">      0.00000000       0.00000000       0.00008928 </v>
    <i name="Tr[quadrupol]">  -8161.04662292 </i>
    <i name="Echarged">      0.00000000 </i>
    <i name="Edipol_quadrupol">      0.00000000 </i>
    <i name="Eion">      0.00000000 </i>
   </dipole>
   <energy>
    <i name="e_fr_energy">   -484.81374912 </i>
    <i name="e_wo_entrp">   -484.68296193 </i>
    <i name="e_0_energy">   -484.74835553 </i>
   </energy>
  </scstep>
  <scstep>
   <time name="dav">    2.08    2.08</time>
   <time name="total">    2.08    2.08</time>
   <dipole>
    <v name="dipole">      0.00000000       0.00000000       0.00008928 </v>
    <i name="Tr[quadrupol]">  -8161.04662292 </i>
    <i name="Echarged">      0.00000000 </i>
    <i name="Edipol_quadrupol">      0.00000000 </i>
    <i name="Eion">      0.00000000 </i>
   </dipole>
   <energy>
    <i name="e_fr_energy">   -514.70253246 </i>
    <i name="e_wo_entrp">   -514.54207904 </i>
    <i name="e_0_energy">   -514.62230575 </i>
   </energy>
  </scstep>
  <scstep>
   <time name="dav">    1.75    1.76</time>
   <time name="total">    1.80    1.81</time>
   <dipole>
    <v name="dipole">      0.00000000       0.00000000       0.00008928 </v>
    <i name="Tr[quadrupol]">  -8161.04662292 </i>
    <i name="Echarged">      0.00000000 </i>
    <i name="Edipol_quadrupol">      0.00000000 </i>
    <i name="Eion">      0.00000000 </i>
   </dipole>
   <energy>
    <i name="e_fr_energy">   -515.51025500 </i>
    <i name="e_wo_entrp">   -515.34097049 </i>
    <i name="e_0_energy">   -515.42561275 </i>
   </energy>
  </scstep>
  <scstep>
   <time name="dav">    1.85    1.85</time>
   <time name="total">    1.92    1.93</time>
   <dipole>
    <v name="dipole">      0.00000000       0.00000000      -1.26110730 </v>
    <i name="Tr[quadrupol]">  -8163.46643951 </i>
    <i name="Echarged">      0.00000000 </i>
    <i name="Edipol_quadrupol">      0.00000000 </i>
    <i name="Eion">      0.00000000 </i>
   </dipole>
   <energy>
    <i name="e_fr_energy">   -563.74512743 </i>
    <i name="e_wo_entrp">   -563.67461464 </i>
    <i name="e_0_energy">   -563.70987104 </i>
   </energy>
  </scstep>
  <scstep>
   <time name="dav">    1.86    1.87</time>
   <time name="total">    1.94    1.94</time>
   <dipole>
    <v name="dipole">      0.00000000       0.00000000      -0.74986306 </v>
    <i name="Tr[quadrupol]">  -8163.23265028 </i>
    <i name="Echarged">      0.00000000 </i>
    <i name="Edipol_quadrupol">      0.00000000 </i>
    <i name="Eion">      0.00000000 </i>
   </dipole>
   <energy>
    <i name="e_fr_energy">   -500.17486893 </i>
    <i name="e_wo_entrp">   -500.12157579 </i>
    <i name="e_0_energy">   -500.14822236 </i>
   </energy>
  </scstep>
  <scstep>
   <time name="dav">    1.85    1.86</time>
   <time name="total">    1.93    1.94</time>
   <dipole>
    <v name="dipole">      0.00000000       0.00000000      -0.38070416 </v>
    <i name="Tr[quadrupol]">  -8163.40348785 </i>
    <i name="Echarged">      0.00000000 </i>
    <i name="Edipol_quadrupol">      0.00000000 </i>
    <i name="Eion">      0.00000000 </i>
   </dipole>
   <energy>
    <i name="e_fr_energy">   -478.57706713 </i>
    <i name="e_wo_entrp">   -478.51953639 </i>
    <i name="e_0_energy">   -478.54830176 </i>
   </energy>
  </scstep>
  <scstep>
   <time name="dav">    2.02    2.02</time>
   <time name="total">    2.10    2.10</time>
   <dipole>
    <v name="dipole">      0.00000000       0.00000000      -0.17227099 </v>
    <i name="Tr[quadrupol]">  -8163.75804114 </i>
    <i name="Echarged">      0.00000000 </i>
    <i name="Edipol_quadrupol">      0.00000000 </i>
    <i name="Eion">      0.00000000 </i>
   </dipole>
   <energy>
    <i name="e_fr_energy">   -491.65037455 </i>
    <i name="e_wo_entrp">   -491.51814322 </i>
    <i name="e_0_energy">   -491.58425889 </i>
   </energy>
  </scstep>
  <scstep>
   <time name="dav">    1.99    2.00</time>
   <time name="total">    2.07    2.08</time>
   <dipole>
    <v name="dipole">      0.00000000       0.00000000      -0.37384337 </v>
    <i name="Tr[quadrupol]">  -8163.91374093 </i>
    <i name="Echarged">      0.00000000 </i>
    <i name="Edipol_quadrupol">      0.00000000 </i>
    <i name="Eion">      0.00000000 </i>
   </dipole>
   <energy>
    <i name="e_fr_energy">   -479.50540216 </i>
    <i name="e_wo_entrp">   -479.43993373 </i>
    <i name="e_0_energy">   -479.47266795 </i>
   </energy>
  </scstep>
  <scstep>
   <time name="dav">    2.07    2.07</time>
   <time name="total">    2.15    2.15</time>
   <dipole>
    <v name="dipole">      0.00000000       0.00000000      -0.34616644 </v>
    <i name="Tr[quadrupol]">  -8164.31135641 </i>
    <i name="Echarged">      0.00000000 </i>
    <i name="Edipol_quadrupol">      0.00000000 </i>
    <i name="Eion">      0.00000000 </i>
   </dipole>
   <energy>
    <i name="e_fr_energy">   -478.92755147 </i>
    <i name="e_wo_entrp">   -478.86343379 </i>
    <i name="e_0_energy">   -478.89549263 </i>
   </energy>
  </scstep>
  <scstep>
   <time name="dav">    1.91    1.91</time>
   <time name="total">    1.99    1.99</time>
   <dipole>
    <v name="dipole">      0.00000000       0.00000000      -0.30077527 </v>
    <i name="Tr[quadrupol]">  -8164.60854562 </i>
    <i name="Echarged">      0.00000000 </i>
    <i name="Edipol_quadrupol">      0.00000000 </i>
    <i name="Eion">      0.00000000 </i>
   </dipole>
   <energy>
    <i name="e_fr_energy">   -478.83662424 </i>
    <i name="e_wo_entrp">   -478.77078193 </i>
    <i name="e_0_energy">   -478.80370308 </i>
   </energy>
  </scstep>
  <scstep>
   <time name="dav">    1.91    1.91</time>
   <time name="total">    1.99    1.99</time>
   <dipole>
    <v name="dipole">      0.00000000       0.00000000      -0.26698561 </v>
    <i name="Tr[quadrupol]">  -8164.96419879 </i>
    <i name="Echarged">      0.00000000 </i>
    <i name="Edipol_quadrupol">      0.00000000 </i>
    <i name="Eion">      0.00000000 </i>
   </dipole>
   <energy>
    <i name="e_fr_energy">   -478.78341145 </i>
    <i name="e_wo_entrp">   -478.71794822 </i>
    <i name="e_0_energy">   -478.75067983 </i>
   </energy>
  </scstep>
  <scstep>
   <time name="dav">    2.02    2.02</time>
   <time name="total">    2.09    2.10</time>
   <dipole>
    <v name="dipole">      0.00000000       0.00000000      -0.24505383 </v>
    <i name="Tr[quadrupol]">  -8165.25366777 </i>
    <i name="Echarged">      0.00000000 </i>
    <i name="Edipol_quadrupol">      0.00000000 </i>
    <i name="Eion">      0.00000000 </i>
   </dipole>
   <energy>
    <i name="e_fr_energy">   -478.70416082 </i>
    <i name="e_wo_entrp">   -478.63772605 </i>
    <i name="e_0_energy">   -478.67094344 </i>
   </energy>
  </scstep>
  <scstep>
   <time name="dav">    2.03    2.04</time>
   <time name="total">    2.12    2.13</time>
   <dipole>
    <v name="dipole">      0.00000000       0.00000000      -0.21054170 </v>
    <i name="Tr[quadrupol]">  -8165.66532472 </i>
    <i name="Echarged">      0.00000000 </i>
    <i name="Edipol_quadrupol">      0.00000000 </i>
    <i name="Eion">      0.00000000 </i>
   </dipole>
   <energy>
    <i name="e_fr_energy">   -478.57205212 </i>
    <i name="e_wo_entrp">   -478.50567396 </i>
    <i name="e_0_energy">   -478.53886304 </i>
   </energy>
  </scstep>
  <scstep>
   <time name="dav">    2.05    2.05</time>
   <time name="total">    2.13    2.13</time>
   <dipole>
    <v name="dipole">      0.00000000       0.00000000      -0.18195346 </v>
    <i name="Tr[quadrupol]">  -8166.05885764 </i>
    <i name="Echarged">      0.00000000 </i>
    <i name="Edipol_quadrupol">      0.00000000 </i>
    <i name="Eion">      0.00000000 </i>
   </dipole>
   <energy>
    <i name="e_fr_energy">   -478.50751455 </i>
    <i name="e_wo_entrp">   -478.44039248 </i>
    <i name="e_0_energy">   -478.47395352 </i>
   </energy>
  </scstep>
  <scstep>
   <time name="dav">    2.03    2.03</time>
   <time name="total">    2.11    2.11</time>
   <dipole>
    <v name="dipole">      0.00000000       0.00000000      -0.14627124 </v>
    <i name="Tr[quadrupol]">  -8166.37207518 </i>
    <i name="Echarged">      0.00000000 </i>
    <i name="Edipol_quadrupol">      0.00000000 </i>
    <i name="Eion">      0.00000000 </i>
   </dipole>
   <energy>
    <i name="e_fr_energy">   -478.47442734 </i>
    <i name="e_wo_entrp">   -478.40678460 </i>
    <i name="e_0_energy">   -478.44060597 </i>
   </energy>
  </scstep>
  <scstep>
   <time name="dav">    1.98    1.99</time>
   <time name="total">    2.06    2.06</time>
   <dipole>
    <v name="dipole">      0.00000000       0.00000000      -0.12014588 </v>
    <i name="Tr[quadrupol]">  -8166.58828609 </i>
    <i name="Echarged">      0.00000000 </i>
    <i name="Edipol_quadrupol">      0.00000000 </i>
    <i name="Eion">      0.00000000 </i>
   </dipole>
   <energy>
    <i name="e_fr_energy">   -478.46796905 </i>
    <i name="e_wo_entrp">   -478.40007705 </i>
    <i name="e_0_energy">   -478.43402305 </i>
   </energy>
  </scstep>
  <scstep>
   <time name="dav">    2.09    2.09</time>
   <time name="total">    2.17    2.17</time>
   <dipole>
    <v name="dipole">      0.00000000       0.00000000      -0.10645570 </v>
    <i name="Tr[quadrupol]">  -8166.69361226 </i>
    <i name="Echarged">      0.00000000 </i>
    <i name="Edipol_quadrupol">      0.00000000 </i>
    <i name="Eion">      0.00000000 </i>
   </dipole>
   <energy>
    <i name="e_fr_energy">   -478.46504915 </i>
    <i name="e_wo_entrp">   -478.39685511 </i>
    <i name="e_0_energy">   -478.43095213 </i>
   </energy>
  </scstep>
  <scstep>
   <time name="dav">    1.96    1.97</time>
   <time name="total">    2.04    2.05</time>
   <dipole>
    <v name="dipole">      0.00000000       0.00000000      -0.09221075 </v>
    <i name="Tr[quadrupol]">  -8166.83891617 </i>
    <i name="Echarged">      0.00000000 </i>
    <i name="Edipol_quadrupol">      0.00000000 </i>
    <i name="Eion">      0.00000000 </i>
   </dipole>
   <energy>
    <i name="e_fr_energy">   -478.46348076 </i>
    <i name="e_wo_entrp">   -478.39507241 </i>
    <i name="e_0_energy">   -478.42927659 </i>
   </energy>
  </scstep>
  <scstep>
   <time name="dav">    2.00    2.00</time>
   <time name="total">    2.09    2.09</time>
   <dipole>
    <v name="dipole">      0.00000000       0.00000000      -0.08285602 </v>
    <i name="Tr[quadrupol]">  -8166.92253212 </i>
    <i name="Echarged">      0.00000000 </i>
    <i name="Edipol_quadrupol">      0.00000000 </i>
    <i name="Eion">      0.00000000 </i>
   </dipole>
   <energy>
    <i name="e_fr_energy">   -478.46405256 </i>
    <i name="e_wo_entrp">   -478.39548065 </i>
    <i name="e_0_energy">   -478.42976660 </i>
   </energy>
  </scstep>
  <scstep>
   <time name="dav">    1.65    1.65</time>
   <time name="total">    1.74    1.75</time>
   <dipole>
    <v name="dipole">      0.00000000       0.00000000      -0.07490795 </v>
    <i name="Tr[quadrupol]">  -8166.95979039 </i>
    <i name="Echarged">      0.00000000 </i>
    <i name="Edipol_quadrupol">      0.00000000 </i>
    <i name="Eion">      0.00000000 </i>
   </dipole>
   <energy>
    <i name="e_fr_energy">   -478.46444759 </i>
    <i name="e_wo_entrp">   -478.39581061 </i>
    <i name="e_0_energy">   -478.43012910 </i>
   </energy>
  </scstep>
  <scstep>
   <time name="dav">    1.66    1.66</time>
   <time name="total">    1.74    1.74</time>
   <dipole>
    <v name="dipole">      0.00000000       0.00000000      -0.06860325 </v>
    <i name="Tr[quadrupol]">  -8166.98768031 </i>
    <i name="Echarged">      0.00000000 </i>
    <i name="Edipol_quadrupol">      0.00000000 </i>
    <i name="Eion">      0.00000000 </i>
   </dipole>
   <energy>
    <i name="e_fr_energy">   -478.46496892 </i>
    <i name="e_wo_entrp">   -478.39629522 </i>
    <i name="e_0_energy">   -478.43063207 </i>
   </energy>
  </scstep>
  <scstep>
   <time name="dav">    1.25    1.25</time>
   <time name="total">    1.32    1.32</time>
   <dipole>
    <v name="dipole">      0.00000000       0.00000000      -0.06719533 </v>
    <i name="Tr[quadrupol]">  -8166.99358638 </i>
    <i name="Echarged">      0.00000000 </i>
    <i name="Edipol_quadrupol">      0.00000000 </i>
    <i name="Eion">      0.00000000 </i>
   </dipole>
   <energy>
    <i name="e_fr_energy">   -478.46510009 </i>
    <i name="e_wo_entrp">   -478.39641765 </i>
    <i name="e_0_energy">   -478.43075887 </i>
   </energy>
  </scstep>
  <scstep>
   <time name="dav">    1.18    1.18</time>
   <time name="total">    1.26    1.26</time>
   <dipole>
    <v name="dipole">      0.00000000       0.00000000      -0.06313878 </v>
    <i name="Tr[quadrupol]">  -8166.99598712 </i>
    <i name="Echarged">      0.00000000 </i>
    <i name="Edipol_quadrupol">      0.00000000 </i>
    <i name="Eion">      0.00000000 </i>
   </dipole>
   <energy>
    <i name="e_fr_energy">   -478.46532415 </i>
    <i name="e_wo_entrp">   -478.39662290 </i>
    <i name="e_0_energy">   -478.43097352 </i>
   </energy>
  </scstep>
  <scstep>
   <time name="dav">    1.16    1.17</time>
   <time name="total">    1.24    1.25</time>
   <dipole>
    <v name="dipole">      0.00000000       0.00000000      -0.06320099 </v>
    <i name="Tr[quadrupol]">  -8166.99613784 </i>
    <i name="Echarged">      0.00000000 </i>
    <i name="Edipol_quadrupol">      0.00000000 </i>
    <i name="Eion">      0.00000000 </i>
   </dipole>
   <energy>
    <i name="e_fr_energy">   -478.46536459 </i>
    <i name="e_wo_entrp">   -478.39666647 </i>
    <i name="e_0_energy">   -478.43101553 </i>
   </energy>
  </scstep>
  <scstep>
   <time name="dav">    1.16    1.16</time>
   <time name="total">    1.23    1.23</time>
   <dipole>
    <v name="dipole">      0.00000000       0.00000000      -0.06210188 </v>
    <i name="Tr[quadrupol]">  -8166.98906959 </i>
    <i name="Echarged">      0.00000000 </i>
    <i name="Edipol_quadrupol">      0.00000000 </i>
    <i name="Eion">      0.00000000 </i>
   </dipole>
   <energy>
    <i name="e_fr_energy">   -478.46542998 </i>
    <i name="e_wo_entrp">   -478.39672917 </i>
    <i name="e_0_energy">   -478.43107958 </i>
   </energy>
  </scstep>
  <scstep>
   <time name="dav">    1.15    1.15</time>
   <time name="total">    1.23    1.23</time>
   <dipole>
    <v name="dipole">      0.00000000       0.00000000      -0.06160864 </v>
    <i name="Tr[quadrupol]">  -8166.99379459 </i>
    <i name="Echarged">      0.00000000 </i>
    <i name="Edipol_quadrupol">      0.00000000 </i>
    <i name="Eion">      0.00000000 </i>
   </dipole>
   <energy>
    <i name="e_fr_energy">   -478.46545797 </i>
    <i name="e_wo_entrp">   -478.39675375 </i>
    <i name="e_0_energy">   -478.43110586 </i>
   </energy>
  </scstep>
  <scstep>
   <time name="dav">    1.11    1.11</time>
   <time name="total">    1.19    1.19</time>
   <dipole>
    <v name="dipole">      0.00000000       0.00000000      -0.06184693 </v>
    <i name="Tr[quadrupol]">  -8166.99359646 </i>
    <i name="Echarged">      0.00000000 </i>
    <i name="Edipol_quadrupol">      0.00000000 </i>
    <i name="Eion">      0.00000000 </i>
   </dipole>
   <energy>
    <i name="e_fr_energy">   -478.46546855 </i>
    <i name="e_wo_entrp">   -478.39676698 </i>
    <i name="e_0_energy">   -478.43111777 </i>
   </energy>
  </scstep>
  <scstep>
   <time name="dav">    1.11    1.11</time>
   <time name="total">    1.14    1.14</time>
   <dipole>
    <v name="dipole">      0.00000000       0.00000000      -0.06183936 </v>
    <i name="Tr[quadrupol]">  -8166.98281205 </i>
    <i name="Echarged">      0.00000000 </i>
    <i name="Edipol_quadrupol">      0.00000000 </i>
    <i name="Eion">      0.00000000 </i>
   </dipole>
   <energy>
    <i name="alphaZ">    174.02395163 </i>
    <i name="ewald">  28919.63643680 </i>
    <i name="hartreedc"> -42428.94831897 </i>
    <i name="XCdc">   1011.48785416 </i>
    <i name="pawpsdc">  31184.35967503 </i>
    <i name="pawaedc"> -31270.15540628 </i>
    <i name="eentropy">     -0.06870218 </i>
    <i name="bandstr">  -3528.52891213 </i>
    <i name="atom">  15459.72794712 </i>
    <i name="e_fr_energy">   -478.46547483 </i>
    <i name="e_wo_entrp">   -478.39677265 </i>
    <i name="e_0_energy">   -478.43112374 </i>
   </energy>
  </scstep>
  <structure>
   <crystal>
    <varray name="basis" >
     <v>      13.75970367       0.00000000       0.00000000 </v>
     <v>       0.00000000      11.28669971       0.00000000 </v>
     <v>       0.00000000       0.00000000      15.00000000 </v>
    </varray>
    <i name="volume">   2329.52465126 </i>
    <varray name="rec_basis" >
     <v>       0.07267598       0.00000000       0.00000000 </v>
     <v>       0.00000000       0.08859986       0.00000000 </v>
     <v>       0.00000000       0.00000000       0.06666667 </v>
    </varray>
   </crystal>
   <varray name="positions" >
    <v>       0.07054120       0.38816457       0.22227495 </v>
    <v>       0.98151180       0.21832942       0.16785344 </v>
    <v>       0.22877304       0.39667288       0.18904348 </v>
    <v>       0.82472337       0.57572318       0.18403191 </v>
    <v>       0.14970601       0.24663792       0.12277753 </v>
    <v>       0.90758628       0.38434512       0.21811946 </v>
    <v>       0.56886571       0.39316130       0.23173729 </v>
    <v>       0.47768100       0.22391730       0.18017943 </v>
    <v>       0.73035049       0.39802658       0.19909345 </v>
    <v>       0.31101118       0.58132963       0.17977696 </v>
    <v>       0.64681854       0.25040749       0.13377315 </v>
    <v>       0.40275100       0.39355427       0.22106508 </v>
    <v>       0.81808056       0.88988957       0.05647519 </v>
    <v>       0.73319531       0.72568325       0.12448457 </v>
    <v>       0.97932824       0.89597624       0.07999408 </v>
    <v>       0.06867909       0.07698375       0.09423854 </v>
    <v>       0.90528082       0.74258583       0.14719628 </v>
    <v>       0.65472406       0.89333727       0.07691603 </v>
    <v>       0.31825350       0.89473226       0.05377466 </v>
    <v>       0.22716619       0.72126926       0.10084126 </v>
    <v>       0.47498917       0.90396535       0.09489577 </v>
    <v>       0.56592959       0.08075138       0.11024766 </v>
    <v>       0.38612516       0.76037560       0.16363174 </v>
    <v>       0.15509033       0.88950396       0.05271529 </v>
    <v>       0.98784551       0.43883046       0.24713656 </v>
    <v>       0.89991795       0.26975381       0.19549767 </v>
    <v>       0.15759857       0.43325808       0.24240148 </v>
    <v>       0.14788829       0.14353661       0.08017307 </v>
    <v>       0.98633649       0.10796021       0.13653167 </v>
    <v>       0.22915942       0.31533454       0.12527490 </v>
    <v>       0.06735802       0.28598388       0.16888911 </v>
    <v>       0.82274912       0.45552252       0.21014877 </v>
    <v>       0.48493735       0.44793349       0.25146232 </v>
    <v>       0.39648714       0.27665554       0.20625030 </v>
    <v>       0.65756919       0.43524210       0.25419888 </v>
    <v>       0.64488604       0.14640144       0.09374788 </v>
    <v>       0.48286722       0.11321356       0.15081376 </v>
    <v>       0.72606390       0.31870920       0.13454719 </v>
    <v>       0.56470606       0.29135323       0.18008364 </v>
    <v>       0.31888640       0.46086995       0.20329135 </v>
    <v>       0.73287748       0.94248397       0.03965616 </v>
    <v>       0.64891188       0.78317499       0.11254597 </v>
    <v>       0.90382696       0.93469024       0.03189926 </v>
    <v>       0.90701680       0.63807548       0.18754912 </v>
    <v>       0.73647441       0.61699787       0.15934394 </v>
    <v>       0.98321706       0.81212363       0.14197152 </v>
    <v>       0.81925020       0.78400528       0.10639513 </v>
    <v>       0.56804185       0.96074410       0.08520074 </v>
    <v>       0.23699719       0.94478449       0.02657725 </v>
    <v>       0.14820250       0.77173059       0.06843984 </v>
    <v>       0.40793432       0.93556381       0.03646331 </v>
    <v>       0.38047481       0.65838217       0.20939239 </v>
    <v>       0.23501053       0.60894863       0.12850628 </v>
    <v>       0.46527775       0.83024755       0.16578047 </v>
    <v>       0.31113112       0.79334051       0.10891910 </v>
    <v>       0.06990262       0.95754122       0.06514651 </v>
    <v>       0.57736557       0.77647674       0.24193941 </v>
    <v>       0.65582252       0.60772566       0.29790490 </v>
    <v>       0.48700699       0.61617049       0.29396059 </v>
   </varray>
  </structure>
  <varray name="forces" >
   <v>      -0.02696124      -0.01822578      -0.02798744 </v>
   <v>       0.03059113       0.06421588       0.02097350 </v>
   <v>      -0.02131286       0.01750784      -0.04083342 </v>
   <v>       0.11835705       0.06631813      -0.06044405 </v>
   <v>      -0.00690901       0.06218767       0.04744431 </v>
   <v>      -0.00768947       0.02990303      -0.00578753 </v>
   <v>      -0.13780766      -0.14998605      -0.10012064 </v>
   <v>      -0.03963966       0.14206829       0.04810388 </v>
   <v>      -0.08071462       0.00840714       0.01753889 </v>
   <v>      -0.09027743       0.13014602       0.01757065 </v>
   <v>      -0.00415663       0.14559658       0.08940158 </v>
   <v>       0.01912858       0.04249473       0.01046751 </v>
   <v>      -0.02214890       0.04534094      -0.00423276 </v>
   <v>       0.16481829       0.11256932      -0.23557479 </v>
   <v>      -0.00879898       0.07493236      -0.01017847 </v>
   <v>      -0.02226029       0.07541879      -0.02234167 </v>
   <v>       0.02589105       0.11876966      -0.05185958 </v>
   <v>       0.05944182       0.04219957      -0.07406516 </v>
   <v>      -0.07560545       0.00760136       0.05045083 </v>
   <v>       0.01198293       0.06761467      -0.02669528 </v>
   <v>      -0.14049329       0.05373228       0.01794076 </v>
   <v>      -0.02653421       0.14446986      -0.05045276 </v>
   <v>      -0.11546421       0.07623401      -0.15229465 </v>
   <v>      -0.09238653       0.02476551       0.02528925 </v>
   <v>       0.05417628      -0.01001880      -0.00630861 </v>
   <v>      -0.04153244      -0.00423975       0.01353422 </v>
   <v>       0.06250537       0.00009084       0.00919503 </v>
   <v>      -0.03007999      -0.03757009      -0.00362904 </v>
   <v>       0.06042798      -0.01473029      -0.02217859 </v>
   <v>       0.01714633      -0.04110133      -0.04413787 </v>
   <v>       0.00774927       0.00870326       0.01771324 </v>
   <v>       0.00197634      -0.14221949       0.07907769 </v>
   <v>       0.01079682      -0.09989391      -0.10788914 </v>
   <v>       0.01868536      -0.08339526      -0.04749169 </v>
   <v>       0.17097098      -1.90502176      -0.64585939 </v>
   <v>      -0.04242148      -0.11131200      -0.02220399 </v>
   <v>       0.06896070      -0.11653949      -0.03097530 </v>
   <v>      -0.07095907      -0.07615943      -0.13867645 </v>
   <v>      -0.00043240      -0.05995409      -0.04118012 </v>
   <v>      -0.02707791      -0.11368555       0.02074101 </v>
   <v>       0.11268535       0.02129089       0.01966098 </v>
   <v>       0.66819478       0.03305604      -1.28384876 </v>
   <v>       0.01677410      -0.01164813       0.01306606 </v>
   <v>      -0.06782252      -0.13554370       0.04439526 </v>
   <v>       0.38328695      -0.04823867      -0.62205015 </v>
   <v>      -0.01435965      -0.09350032       0.02026835 </v>
   <v>      -0.03543054      -0.08479688       0.09111313 </v>
   <v>      -0.04407067      -0.09097465      -0.06147887 </v>
   <v>       0.10412249       0.02117437      -0.00422272 </v>
   <v>      -0.01595942      -0.03211016      -0.04843092 </v>
   <v>       0.08320597       0.01710458      -0.01814689 </v>
   <v>      -0.05873839      -0.07662630      -0.10722280 </v>
   <v>       0.04709849      -0.05821343       0.00898707 </v>
   <v>      -1.89345700       0.70369686      -1.35566750 </v>
   <v>      -0.01189555      -0.01633409       0.00850392 </v>
   <v>      -0.00914525      -0.10644775      -0.02094906 </v>
   <v>       0.48062052       2.81159162       1.44304979 </v>
   <v>       2.38815816      -0.58091670       2.85413679 </v>
   <v>      -1.90521036      -0.84979827       0.50679236 </v>
  </varray>
  <varray name="stress" >
   <v>       1.34853742       2.98876013       0.72276523 </v>
   <v>       2.98876014       0.88674916      -1.90558790 </v>
   <v>       0.72276520      -1.90558790      -7.32347965 </v>
  </varray>
  <energy>
   <i name="e_fr_energy">   -478.46547483 </i>
   <i name="e_wo_entrp">   -478.39677265 </i>
   <i name="e_0_energy">   -478.43112374 </i>
  </energy>
  <time name="totalsc">   55.43   55.55</time>
 </calculation>
 <calculation>
  <scstep>
   <time name="dav">    1.44    1.44</time>
   <time name="total">    1.51    1.52</time>
   <dipole>
    <v name="dipole">      0.00000000       0.00000000      -0.06203468 </v>
    <i name="Tr[quadrupol]">  -8162.70750769 </i>
    <i name="Echarged">      0.00000000 </i>
    <i name="Edipol_quadrupol">      0.00000000 </i>
    <i name="Eion">      0.00000000 </i>
   </dipole>
   <energy>
    <i name="alphaZ">    173.93257386 </i>
    <i name="ewald">  28827.38985904 </i>
    <i name="hartreedc"> -42334.74046879 </i>
    <i name="XCdc">   1011.20431036 </i>
    <i name="pawpsdc">  31184.36270989 </i>
    <i name="pawaedc"> -31270.15833784 </i>
    <i name="eentropy">     -0.06739542 </i>
    <i name="bandstr">  -3530.44027795 </i>
    <i name="atom">  15459.72794712 </i>
    <i name="e_fr_energy">   -478.78907974 </i>
    <i name="e_wo_entrp">   -478.72168431 </i>
    <i name="e_0_energy">   -478.75538203 </i>
   </energy>
  </scstep>
  <scstep>
   <time name="dav">    1.86    1.87</time>
   <time name="total">    1.94    1.94</time>
   <dipole>
    <v name="dipole">      0.00000000       0.00000000      -0.06094171 </v>
    <i name="Tr[quadrupol]">  -8162.71091503 </i>
    <i name="Echarged">      0.00000000 </i>
    <i name="Edipol_quadrupol">      0.00000000 </i>
    <i name="Eion">      0.00000000 </i>
   </dipole>
   <energy>
    <i name="e_fr_energy">   -478.82162386 </i>
    <i name="e_wo_entrp">   -478.75429287 </i>
    <i name="e_0_energy">   -478.78795836 </i>
   </energy>
  </scstep>
  <scstep>
   <time name="dav">    1.97    1.97</time>
   <time name="total">    2.05    2.05</time>
   <dipole>
    <v name="dipole">      0.00000000       0.00000000      -0.06378782 </v>
    <i name="Tr[quadrupol]">  -8162.71518524 </i>
    <i name="Echarged">      0.00000000 </i>
    <i name="Edipol_quadrupol">      0.00000000 </i>
    <i name="Eion">      0.00000000 </i>
   </dipole>
   <energy>
    <i name="e_fr_energy">   -478.82163132 </i>
    <i name="e_wo_entrp">   -478.75391041 </i>
    <i name="e_0_energy">   -478.78777086 </i>
   </energy>
  </scstep>
  <scstep>
   <time name="dav">    1.95    1.95</time>
   <time name="total">    2.03    2.03</time>
   <dipole>
    <v name="dipole">      0.00000000       0.00000000      -0.07102693 </v>
    <i name="Tr[quadrupol]">  -8162.72357783 </i>
    <i name="Echarged">      0.00000000 </i>
    <i name="Edipol_quadrupol">      0.00000000 </i>
    <i name="Eion">      0.00000000 </i>
   </dipole>
   <energy>
    <i name="e_fr_energy">   -478.82237651 </i>
    <i name="e_wo_entrp">   -478.75504334 </i>
    <i name="e_0_energy">   -478.78870993 </i>
   </energy>
  </scstep>
  <scstep>
   <time name="dav">    1.93    1.93</time>
   <time name="total">    2.01    2.01</time>
   <dipole>
    <v name="dipole">      0.00000000       0.00000000      -0.06804738 </v>
    <i name="Tr[quadrupol]">  -8162.70723368 </i>
    <i name="Echarged">      0.00000000 </i>
    <i name="Edipol_quadrupol">      0.00000000 </i>
    <i name="Eion">      0.00000000 </i>
   </dipole>
   <energy>
    <i name="e_fr_energy">   -478.81940608 </i>
    <i name="e_wo_entrp">   -478.75179530 </i>
    <i name="e_0_energy">   -478.78560069 </i>
   </energy>
  </scstep>
  <scstep>
   <time name="dav">    1.97    1.98</time>
   <time name="total">    2.05    2.05</time>
   <dipole>
    <v name="dipole">      0.00000000       0.00000000      -0.06805692 </v>
    <i name="Tr[quadrupol]">  -8162.70651541 </i>
    <i name="Echarged">      0.00000000 </i>
    <i name="Edipol_quadrupol">      0.00000000 </i>
    <i name="Eion">      0.00000000 </i>
   </dipole>
   <energy>
    <i name="e_fr_energy">   -478.81945998 </i>
    <i name="e_wo_entrp">   -478.75194686 </i>
    <i name="e_0_energy">   -478.78570342 </i>
   </energy>
  </scstep>
  <scstep>
   <time name="dav">    1.76    1.77</time>
   <time name="total">    1.84    1.85</time>
   <dipole>
    <v name="dipole">      0.00000000       0.00000000      -0.06807423 </v>
    <i name="Tr[quadrupol]">  -8162.70552746 </i>
    <i name="Echarged">      0.00000000 </i>
    <i name="Edipol_quadrupol">      0.00000000 </i>
    <i name="Eion">      0.00000000 </i>
   </dipole>
   <energy>
    <i name="e_fr_energy">   -478.81945141 </i>
    <i name="e_wo_entrp">   -478.75188761 </i>
    <i name="e_0_energy">   -478.78566951 </i>
   </energy>
  </scstep>
  <scstep>
   <time name="dav">    1.14    1.14</time>
   <time name="total">    1.17    1.18</time>
   <dipole>
    <v name="dipole">      0.00000000       0.00000000      -0.06814776 </v>
    <i name="Tr[quadrupol]">  -8162.70510120 </i>
    <i name="Echarged">      0.00000000 </i>
    <i name="Edipol_quadrupol">      0.00000000 </i>
    <i name="Eion">      0.00000000 </i>
   </dipole>
   <energy>
    <i name="alphaZ">    173.77341679 </i>
    <i name="ewald">  28827.38985904 </i>
    <i name="hartreedc"> -42338.75659268 </i>
    <i name="XCdc">   1011.37763655 </i>
    <i name="pawpsdc">  31156.73840879 </i>
    <i name="pawaedc"> -31241.78084460 </i>
    <i name="eentropy">     -0.06752289 </i>
    <i name="bandstr">  -3527.22176021 </i>
    <i name="atom">  15459.72794712 </i>
    <i name="e_fr_energy">   -478.81945209 </i>
    <i name="e_wo_entrp">   -478.75192920 </i>
    <i name="e_0_energy">   -478.78569065 </i>
   </energy>
  </scstep>
  <structure>
   <crystal>
    <varray name="basis" >
     <v>      13.76411570       0.00000000       0.00000000 </v>
     <v>       0.00000000      11.28907947       0.00000000 </v>
     <v>       0.00000000       0.00000000      15.00000000 </v>
    </varray>
    <i name="volume">   2330.76293927 </i>
    <varray name="rec_basis" >
     <v>       0.07265269       0.00000000       0.00000000 </v>
     <v>       0.00000000       0.08858118       0.00000000 </v>
     <v>       0.00000000       0.00000000       0.06666667 </v>
    </varray>
   </crystal>
   <varray name="positions" >
    <v>       0.07052230       0.38814899       0.22225695 </v>
    <v>       0.98153325       0.21838432       0.16786693 </v>
    <v>       0.22875809       0.39668785       0.18901722 </v>
    <v>       0.82480636       0.57577987       0.18399303 </v>
    <v>       0.14970117       0.24669108       0.12280805 </v>
    <v>       0.90758089       0.38437068       0.21811574 </v>
    <v>       0.56876908       0.39303308       0.23167289 </v>
    <v>       0.47765321       0.22403874       0.18021037 </v>
    <v>       0.73029389       0.39803377       0.19910474 </v>
    <v>       0.31094788       0.58144088       0.17978826 </v>
    <v>       0.64681563       0.25053195       0.13383065 </v>
    <v>       0.40276441       0.39359059       0.22107181 </v>
    <v>       0.81806503       0.88992833       0.05647247 </v>
    <v>       0.73331088       0.72577948       0.12433304 </v>
    <v>       0.97932207       0.89604029       0.07998753 </v>
    <v>       0.06866348       0.07704823       0.09422417 </v>
    <v>       0.90529898       0.74268736       0.14716292 </v>
    <v>       0.65476574       0.89337335       0.07686839 </v>
    <v>       0.31820048       0.89473876       0.05380711 </v>
    <v>       0.22717459       0.72132706       0.10082409 </v>
    <v>       0.47489065       0.90401129       0.09490731 </v>
    <v>       0.56591099       0.08087488       0.11021521 </v>
    <v>       0.38604419       0.76044077       0.16353378 </v>
    <v>       0.15502555       0.88952513       0.05273155 </v>
    <v>       0.98788350       0.43882190       0.24713250 </v>
    <v>       0.89988882       0.26975019       0.19550638 </v>
    <v>       0.15764240       0.43325816       0.24240739 </v>
    <v>       0.14786719       0.14350449       0.08017074 </v>
    <v>       0.98637886       0.10794762       0.13651740 </v>
    <v>       0.22917144       0.31529941       0.12524651 </v>
    <v>       0.06736345       0.28599132       0.16890050 </v>
    <v>       0.82275051       0.45540094       0.21019964 </v>
    <v>       0.48494492       0.44784810       0.25139292 </v>
    <v>       0.39650025       0.27658425       0.20621975 </v>
    <v>       0.65768907       0.43361358       0.25378344 </v>
    <v>       0.64485630       0.14630628       0.09373360 </v>
    <v>       0.48291557       0.11311394       0.15079383 </v>
    <v>       0.72601414       0.31864409       0.13445799 </v>
    <v>       0.56470576       0.29130198       0.18005715 </v>
    <v>       0.31886742       0.46077277       0.20330469 </v>
    <v>       0.73295650       0.94250217       0.03966881 </v>
    <v>       0.64938042       0.78320324       0.11172015 </v>
    <v>       0.90383872       0.93468028       0.03190766 </v>
    <v>       0.90696924       0.63795961       0.18757768 </v>
    <v>       0.73674318       0.61695663       0.15894381 </v>
    <v>       0.98320700       0.81204370       0.14198456 </v>
    <v>       0.81922536       0.78393279       0.10645374 </v>
    <v>       0.56801094       0.96066633       0.08516119 </v>
    <v>       0.23707020       0.94480259       0.02657453 </v>
    <v>       0.14819131       0.77170314       0.06840869 </v>
    <v>       0.40799267       0.93557843       0.03645164 </v>
    <v>       0.38043362       0.65831667       0.20932342 </v>
    <v>       0.23504356       0.60889887       0.12851206 </v>
    <v>       0.46395003       0.83084911       0.16490846 </v>
    <v>       0.31112278       0.79332655       0.10892457 </v>
    <v>       0.06989621       0.95745022       0.06513303 </v>
    <v>       0.57770259       0.77888025       0.24286763 </v>
    <v>       0.65749713       0.60722906       0.29974078 </v>
    <v>       0.48567102       0.61544403       0.29428658 </v>
   </varray>
  </structure>
  <varray name="forces" >
   <v>       0.01657933       0.00329113      -0.01869307 </v>
   <v>       0.01173672       0.02284130       0.00910048 </v>
   <v>      -0.00730121       0.00441866      -0.03814143 </v>
   <v>       0.07466468       0.02260377      -0.06398553 </v>
   <v>       0.00126873       0.01044490       0.01067630 </v>
   <v>       0.00130737       0.00179589      -0.00498019 </v>
   <v>      -0.13019732      -0.25100739      -0.17094220 </v>
   <v>       0.00630290      -0.00645014      -0.02815016 </v>
   <v>       0.05665780      -0.19835490      -0.21810891 </v>
   <v>      -0.07873296       0.03015018       0.02104282 </v>
   <v>      -0.01329359       0.01552111       0.01581498 </v>
   <v>      -0.03999460      -0.01306874      -0.02054029 </v>
   <v>       0.00112504       0.02087556       0.02341071 </v>
   <v>       0.21218420       0.01228137      -0.24917296 </v>
   <v>      -0.01402625       0.02821702       0.01051515 </v>
   <v>      -0.00496421       0.03694510      -0.03492498 </v>
   <v>      -0.00649768       0.01848809       0.00006906 </v>
   <v>       0.10104929       0.11041274      -0.15011192 </v>
   <v>       0.02387496       0.02726667       0.04541044 </v>
   <v>       0.00302205       0.02701765      -0.02614641 </v>
   <v>      -0.22055087       0.23163871      -0.27569143 </v>
   <v>      -0.02716955       0.07312613      -0.05768672 </v>
   <v>      -0.36521435      -0.04325707      -0.21753887 </v>
   <v>      -0.02755805       0.00492400       0.01220392 </v>
   <v>       0.02708661      -0.01649670      -0.01427489 </v>
   <v>      -0.00074327       0.00107500       0.00851545 </v>
   <v>       0.01609263      -0.01921367      -0.00618873 </v>
   <v>      -0.02870172       0.00729007       0.01683381 </v>
   <v>       0.04072187       0.03491537       0.00115942 </v>
   <v>      -0.00332577      -0.03440138      -0.02785118 </v>
   <v>       0.00229681       0.01331670       0.01967358 </v>
   <v>      -0.01460789      -0.06925435       0.08465950 </v>
   <v>       0.05368544      -0.05359074      -0.05971698 </v>
   <v>       0.01094023      -0.02404604      -0.02881917 </v>
   <v>       0.07603158      -1.25244383      -0.23289533 </v>
   <v>      -0.02262271      -0.00619713       0.01265847 </v>
   <v>       0.03618413      -0.01498251       0.02105431 </v>
   <v>      -0.01273701      -0.05021486      -0.15961092 </v>
   <v>      -0.09688274      -0.10266948      -0.07902516 </v>
   <v>      -0.01056726      -0.04543085       0.01489697 </v>
   <v>       0.10684108       0.08202382       0.00414072 </v>
   <v>       0.34733315      -0.09161842      -1.01549560 </v>
   <v>       0.01775729      -0.01739963       0.01916002 </v>
   <v>      -0.00134326      -0.03511971       0.01436420 </v>
   <v>       0.23765029      -0.08086662      -0.53738424 </v>
   <v>      -0.00827011      -0.05228385      -0.01724732 </v>
   <v>       0.07839396       0.03174280       0.05991300 </v>
   <v>      -0.01831127      -0.07288358      -0.03518286 </v>
   <v>       0.01443005       0.00950407       0.00753844 </v>
   <v>      -0.00609461      -0.00964947      -0.04580264 </v>
   <v>      -0.03906115       0.06128386      -0.13481774 </v>
   <v>      -0.00331125       0.01786619      -0.08326601 </v>
   <v>       0.01447199       0.01192360      -0.02903368 </v>
   <v>      -1.04363433       0.39935056      -0.64038806 </v>
   <v>      -0.18039898      -0.05217947      -0.06572251 </v>
   <v>      -0.01314384      -0.04527013      -0.01172750 </v>
   <v>       0.41833195       2.13990444       1.50439384 </v>
   <v>       1.72561292      -0.25740239       2.49586091 </v>
   <v>      -1.29437723      -0.59670341       0.36619909 </v>
  </varray>
  <varray name="stress" >
   <v>       0.32686898       3.46475271       0.86167724 </v>
   <v>       3.46475270      -0.68406305      -1.39949633 </v>
   <v>       0.86167724      -1.39949634      -7.33768711 </v>
  </varray>
  <energy>
   <i name="e_fr_energy">   -478.81945209 </i>
   <i name="e_wo_entrp">   -478.75192920 </i>
   <i name="e_0_energy">   -478.78569065 </i>
  </energy>
  <time name="totalsc">   15.90   15.94</time>
 </calculation>
 <calculation>
  <scstep>
   <time name="dav">    1.45    1.45</time>
   <time name="total">    1.52    1.53</time>
   <dipole>
    <v name="dipole">      0.00000000       0.00000000      -0.06839464 </v>
    <i name="Tr[quadrupol]">  -8150.10769308 </i>
    <i name="Echarged">      0.00000000 </i>
    <i name="Edipol_quadrupol">      0.00000000 </i>
    <i name="Eion">      0.00000000 </i>
   </dipole>
   <energy>
    <i name="alphaZ">    173.50042250 </i>
    <i name="ewald">  28559.02160958 </i>
    <i name="hartreedc"> -42063.06633146 </i>
    <i name="XCdc">   1010.59579736 </i>
    <i name="pawpsdc">  31157.36835808 </i>
    <i name="pawaedc"> -31242.40985443 </i>
    <i name="eentropy">     -0.06407913 </i>
    <i name="bandstr">  -3533.62717584 </i>
    <i name="atom">  15459.72794712 </i>
    <i name="e_fr_energy">   -478.95330621 </i>
    <i name="e_wo_entrp">   -478.88922709 </i>
    <i name="e_0_energy">   -478.92126665 </i>
   </energy>
  </scstep>
  <scstep>
   <time name="dav">    1.85    1.85</time>
   <time name="total">    1.93    1.93</time>
   <dipole>
    <v name="dipole">      0.00000000       0.00000000      -0.06803908 </v>
    <i name="Tr[quadrupol]">  -8150.11339897 </i>
    <i name="Echarged">      0.00000000 </i>
    <i name="Edipol_quadrupol">      0.00000000 </i>
    <i name="Eion">      0.00000000 </i>
   </dipole>
   <energy>
    <i name="e_fr_energy">   -479.29851445 </i>
    <i name="e_wo_entrp">   -479.23436400 </i>
    <i name="e_0_energy">   -479.26643922 </i>
   </energy>
  </scstep>
  <scstep>
   <time name="dav">    1.99    1.99</time>
   <time name="total">    2.06    2.07</time>
   <dipole>
    <v name="dipole">      0.00000000       0.00000000      -0.07537187 </v>
    <i name="Tr[quadrupol]">  -8150.12524724 </i>
    <i name="Echarged">      0.00000000 </i>
    <i name="Edipol_quadrupol">      0.00000000 </i>
    <i name="Eion">      0.00000000 </i>
   </dipole>
   <energy>
    <i name="e_fr_energy">   -479.29113201 </i>
    <i name="e_wo_entrp">   -479.22652311 </i>
    <i name="e_0_energy">   -479.25882756 </i>
   </energy>
  </scstep>
  <scstep>
   <time name="dav">    1.94    1.94</time>
   <time name="total">    2.01    2.02</time>
   <dipole>
    <v name="dipole">      0.00000000       0.00000000      -0.09332243 </v>
    <i name="Tr[quadrupol]">  -8150.14494305 </i>
    <i name="Echarged">      0.00000000 </i>
    <i name="Edipol_quadrupol">      0.00000000 </i>
    <i name="Eion">      0.00000000 </i>
   </dipole>
   <energy>
    <i name="e_fr_energy">   -479.30323582 </i>
    <i name="e_wo_entrp">   -479.23900945 </i>
    <i name="e_0_energy">   -479.27112263 </i>
   </energy>
  </scstep>
  <scstep>
   <time name="dav">    1.95    1.95</time>
   <time name="total">    2.03    2.04</time>
   <dipole>
    <v name="dipole">      0.00000000       0.00000000      -0.08939740 </v>
    <i name="Tr[quadrupol]">  -8150.14245081 </i>
    <i name="Echarged">      0.00000000 </i>
    <i name="Edipol_quadrupol">      0.00000000 </i>
    <i name="Eion">      0.00000000 </i>
   </dipole>
   <energy>
    <i name="e_fr_energy">   -479.28198107 </i>
    <i name="e_wo_entrp">   -479.21725257 </i>
    <i name="e_0_energy">   -479.24961682 </i>
   </energy>
  </scstep>
  <scstep>
   <time name="dav">    1.67    1.67</time>
   <time name="total">    1.75    1.75</time>
   <dipole>
    <v name="dipole">      0.00000000       0.00000000      -0.08956297 </v>
    <i name="Tr[quadrupol]">  -8150.14019425 </i>
    <i name="Echarged">      0.00000000 </i>
    <i name="Edipol_quadrupol">      0.00000000 </i>
    <i name="Eion">      0.00000000 </i>
   </dipole>
   <energy>
    <i name="e_fr_energy">   -479.28220136 </i>
    <i name="e_wo_entrp">   -479.21769311 </i>
    <i name="e_0_energy">   -479.24994724 </i>
   </energy>
  </scstep>
  <scstep>
   <time name="dav">    1.76    1.76</time>
   <time name="total">    1.85    1.85</time>
   <dipole>
    <v name="dipole">      0.00000000       0.00000000      -0.08916398 </v>
    <i name="Tr[quadrupol]">  -8150.13642808 </i>
    <i name="Echarged">      0.00000000 </i>
    <i name="Edipol_quadrupol">      0.00000000 </i>
    <i name="Eion">      0.00000000 </i>
   </dipole>
   <energy>
    <i name="e_fr_energy">   -479.28209324 </i>
    <i name="e_wo_entrp">   -479.21749912 </i>
    <i name="e_0_energy">   -479.24979618 </i>
   </energy>
  </scstep>
  <scstep>
   <time name="dav">    1.90    1.90</time>
   <time name="total">    1.98    1.98</time>
   <dipole>
    <v name="dipole">      0.00000000       0.00000000      -0.08949106 </v>
    <i name="Tr[quadrupol]">  -8150.13455158 </i>
    <i name="Echarged">      0.00000000 </i>
    <i name="Edipol_quadrupol">      0.00000000 </i>
    <i name="Eion">      0.00000000 </i>
   </dipole>
   <energy>
    <i name="e_fr_energy">   -479.28208360 </i>
    <i name="e_wo_entrp">   -479.21759011 </i>
    <i name="e_0_energy">   -479.24983686 </i>
   </energy>
  </scstep>
  <scstep>
   <time name="dav">    1.50    1.50</time>
   <time name="total">    1.58    1.58</time>
   <dipole>
    <v name="dipole">      0.00000000       0.00000000      -0.08995697 </v>
    <i name="Tr[quadrupol]">  -8150.13380626 </i>
    <i name="Echarged">      0.00000000 </i>
    <i name="Edipol_quadrupol">      0.00000000 </i>
    <i name="Eion">      0.00000000 </i>
   </dipole>
   <energy>
    <i name="e_fr_energy">   -479.28210744 </i>
    <i name="e_wo_entrp">   -479.21755276 </i>
    <i name="e_0_energy">   -479.24983010 </i>
   </energy>
  </scstep>
  <scstep>
   <time name="dav">    1.13    1.14</time>
   <time name="total">    1.21    1.22</time>
   <dipole>
    <v name="dipole">      0.00000000       0.00000000      -0.09056628 </v>
    <i name="Tr[quadrupol]">  -8150.13389178 </i>
    <i name="Echarged">      0.00000000 </i>
    <i name="Edipol_quadrupol">      0.00000000 </i>
    <i name="Eion">      0.00000000 </i>
   </dipole>
   <energy>
    <i name="e_fr_energy">   -479.28212193 </i>
    <i name="e_wo_entrp">   -479.21760131 </i>
    <i name="e_0_energy">   -479.24986162 </i>
   </energy>
  </scstep>
  <scstep>
   <time name="dav">    1.09    1.09</time>
   <time name="total">    1.16    1.16</time>
   <dipole>
    <v name="dipole">      0.00000000       0.00000000      -0.09144577 </v>
    <i name="Tr[quadrupol]">  -8150.13368271 </i>
    <i name="Echarged">      0.00000000 </i>
    <i name="Edipol_quadrupol">      0.00000000 </i>
    <i name="Eion">      0.00000000 </i>
   </dipole>
   <energy>
    <i name="e_fr_energy">   -479.28214600 </i>
    <i name="e_wo_entrp">   -479.21761894 </i>
    <i name="e_0_energy">   -479.24988247 </i>
   </energy>
  </scstep>
  <scstep>
   <time name="dav">    1.13    1.13</time>
   <time name="total">    1.20    1.20</time>
   <dipole>
    <v name="dipole">      0.00000000       0.00000000      -0.09188276 </v>
    <i name="Tr[quadrupol]">  -8150.13336101 </i>
    <i name="Echarged">      0.00000000 </i>
    <i name="Edipol_quadrupol">      0.00000000 </i>
    <i name="Eion">      0.00000000 </i>
   </dipole>
   <energy>
    <i name="e_fr_energy">   -479.28215682 </i>
    <i name="e_wo_entrp">   -479.21762996 </i>
    <i name="e_0_energy">   -479.24989339 </i>
   </energy>
  </scstep>
  <scstep>
   <time name="dav">    1.09    1.09</time>
   <time name="total">    1.17    1.17</time>
   <dipole>
    <v name="dipole">      0.00000000       0.00000000      -0.09230654 </v>
    <i name="Tr[quadrupol]">  -8150.13301556 </i>
    <i name="Echarged">      0.00000000 </i>
    <i name="Edipol_quadrupol">      0.00000000 </i>
    <i name="Eion">      0.00000000 </i>
   </dipole>
   <energy>
    <i name="e_fr_energy">   -479.28216760 </i>
    <i name="e_wo_entrp">   -479.21764058 </i>
    <i name="e_0_energy">   -479.24990409 </i>
   </energy>
  </scstep>
  <scstep>
   <time name="dav">    1.10    1.10</time>
   <time name="total">    1.18    1.18</time>
   <dipole>
    <v name="dipole">      0.00000000       0.00000000      -0.09293332 </v>
    <i name="Tr[quadrupol]">  -8150.13253047 </i>
    <i name="Echarged">      0.00000000 </i>
    <i name="Edipol_quadrupol">      0.00000000 </i>
    <i name="Eion">      0.00000000 </i>
   </dipole>
   <energy>
    <i name="e_fr_energy">   -479.28218036 </i>
    <i name="e_wo_entrp">   -479.21765259 </i>
    <i name="e_0_energy">   -479.24991648 </i>
   </energy>
  </scstep>
  <scstep>
   <time name="dav">    1.10    1.10</time>
   <time name="total">    1.13    1.14</time>
   <dipole>
    <v name="dipole">      0.00000000       0.00000000      -0.09337314 </v>
    <i name="Tr[quadrupol]">  -8150.13221151 </i>
    <i name="Echarged">      0.00000000 </i>
    <i name="Edipol_quadrupol">      0.00000000 </i>
    <i name="Eion">      0.00000000 </i>
   </dipole>
   <energy>
    <i name="alphaZ">    173.40581390 </i>
    <i name="ewald">  28559.02160958 </i>
[...]
       <r>    1.9524    0.0000 </r>
       <r>    2.0293    0.0000 </r>
       <r>    2.0855    0.0000 </r>
       <r>    2.1180    0.0000 </r>
       <r>    2.2225    0.0000 </r>
       <r>    2.4318    0.0000 </r>
       <r>    2.4629    0.0000 </r>
       <r>    2.6357    0.0000 </r>
       <r>    2.7081    0.0000 </r>
      </set>
     </set>
    </set>
   </array>
  </eigenvalues>
  <separator name="orbital magnetization" >
   <v name="MAGDIPOLOUT">      0.00000000      0.00000000      0.00000000</v>
  </separator>
  <dos>
   <i name="efermi">     -1.72806111 </i>
   <total>
    <array>
     <dimension dim="1">gridpoints</dimension>
     <dimension dim="2">spin</dimension>
     <field>energy</field>
     <field>total</field>
     <field>integrated</field>
     <set>
      <set comment="spin 1">
       <r>   -27.4564     0.0000     0.0000 </r>
       <r>   -27.3509     0.0000     0.0000 </r>
       <r>   -27.2454     0.0000     0.0000 </r>
       <r>   -27.1400     0.0000     0.0000 </r>
       <r>   -27.0345     0.0000     0.0000 </r>
       <r>   -26.9290     0.0000     0.0000 </r>
       <r>   -26.8236     0.0000     0.0000 </r>
       <r>   -26.7181     0.0000     0.0000 </r>
       <r>   -26.6126     0.0000     0.0000 </r>
       <r>   -26.5072     0.0000     0.0000 </r>
       <r>   -26.4017     0.0000     0.0000 </r>
       <r>   -26.2962     0.0002     0.0000 </r>
       <r>   -26.1908     0.0450     0.0048 </r>
       <r>   -26.0853     1.4208     0.1546 </r>
       <r>   -25.9798     9.4816     1.1546 </r>
       <r>   -25.8744    20.0891     3.2734 </r>
       <r>   -25.7689    24.8026     5.8893 </r>
       <r>   -25.6634    16.7785     7.6589 </r>
       <r>   -25.5579     3.1162     7.9876 </r>
       <r>   -25.4525     0.1173     7.9999 </r>
       <r>   -25.3470     0.0007     8.0000 </r>
       <r>   -25.2415     0.0000     8.0000 </r>
       <r>   -25.1361     0.0071     8.0007 </r>
       <r>   -25.0306     0.5336     8.0570 </r>
       <r>   -24.9251     5.9333     8.6828 </r>
       <r>   -24.8197    13.5077    10.1074 </r>
       <r>   -24.7142    14.1431    11.5991 </r>
       <r>   -24.6087    11.2609    12.7868 </r>
       <r>   -24.5033     8.9531    13.7310 </r>
       <r>   -24.3978     9.2745    14.7092 </r>
       <r>   -24.2923     6.4242    15.3868 </r>
       <r>   -24.1869     1.0461    15.4971 </r>
       <r>   -24.0814     0.0371    15.5010 </r>
       <r>   -23.9759     0.3860    15.5417 </r>
       <r>   -23.8705     2.4270    15.7977 </r>
       <r>   -23.7650     7.4577    16.5842 </r>
       <r>   -23.6595    24.2178    19.1384 </r>
       <r>   -23.5540    30.2626    22.3302 </r>
       <r>   -23.4486    16.5274    24.0733 </r>
       <r>   -23.3431     3.7776    24.4717 </r>
       <r>   -23.2376     0.2681    24.5000 </r>
       <r>   -23.1322     0.3223    24.5340 </r>
       <r>   -23.0267     4.1015    24.9666 </r>
       <r>   -22.9212    10.0463    26.0261 </r>
       <r>   -22.8158     8.3139    26.9030 </r>
       <r>   -22.7103     8.5442    27.8041 </r>
       <r>   -22.6048    13.0480    29.1803 </r>
       <r>   -22.4994    13.1988    30.5723 </r>
       <r>   -22.3939    10.0904    31.6366 </r>
       <r>   -22.2884     3.1747    31.9714 </r>
       <r>   -22.1830     0.2673    31.9996 </r>
       <r>   -22.0775     0.0043    32.0000 </r>
       <r>   -21.9720     0.0559    32.0059 </r>
       <r>   -21.8666     1.6547    32.1804 </r>
       <r>   -21.7611    11.4950    33.3928 </r>
       <r>   -21.6556    31.2004    36.6835 </r>
       <r>   -21.5501    37.4149    40.6296 </r>
       <r>   -21.4447    30.9110    43.8897 </r>
       <r>   -21.3392    26.2524    46.6585 </r>
       <r>   -21.2337    11.4226    47.8632 </r>
       <r>   -21.1283     1.3045    48.0008 </r>
       <r>   -21.0228     0.8856    48.0942 </r>
       <r>   -20.9173     4.5889    48.5782 </r>
       <r>   -20.8119    12.3239    49.8780 </r>
       <r>   -20.7064    20.3842    52.0279 </r>
       <r>   -20.6009    19.2975    54.0631 </r>
       <r>   -20.4955    13.5428    55.4915 </r>
       <r>   -20.3900     4.9785    56.0166 </r>
       <r>   -20.2845     8.1457    56.8757 </r>
       <r>   -20.1791    19.3485    58.9163 </r>
       <r>   -20.0736    20.0795    61.0341 </r>
       <r>   -19.9681    19.5223    63.0931 </r>
       <r>   -19.8627     7.8195    63.9178 </r>
       <r>   -19.7572     0.7649    63.9985 </r>
       <r>   -19.6517     0.0146    64.0000 </r>
       <r>   -19.5462     0.0000    64.0000 </r>
       <r>   -19.4408     0.0000    64.0000 </r>
       <r>   -19.3353     0.0000    64.0000 </r>
       <r>   -19.2298     0.0000    64.0000 </r>
       <r>   -19.1244     0.0000    64.0000 </r>
       <r>   -19.0189     0.0000    64.0000 </r>
       <r>   -18.9134     0.0000    64.0000 </r>
       <r>   -18.8080     0.0000    64.0000 </r>
       <r>   -18.7025     0.0000    64.0000 </r>
       <r>   -18.5970     0.0000    64.0000 </r>
       <r>   -18.4916     0.0000    64.0000 </r>
       <r>   -18.3861     0.0000    64.0000 </r>
       <r>   -18.2806     0.0000    64.0000 </r>
       <r>   -18.1752     0.0000    64.0000 </r>
       <r>   -18.0697     0.0000    64.0000 </r>
       <r>   -17.9642     0.0000    64.0000 </r>
       <r>   -17.8588     0.0000    64.0000 </r>
       <r>   -17.7533     0.0000    64.0000 </r>
       <r>   -17.6478     0.0000    64.0000 </r>
       <r>   -17.5423     0.0011    64.0001 </r>
       <r>   -17.4369     0.1500    64.0159 </r>
       <r>   -17.3314     2.8828    64.3200 </r>
       <r>   -17.2259    10.7635    65.4552 </r>
       <r>   -17.1205    13.5489    66.8842 </r>
       <r>   -17.0150    12.6186    68.2150 </r>
       <r>   -16.9095    13.9927    69.6908 </r>
       <r>   -16.8041    20.0198    71.8023 </r>
       <r>   -16.6986    22.1757    74.1411 </r>
       <r>   -16.5931    16.5593    75.8876 </r>
       <r>   -16.4877    11.3085    77.0803 </r>
       <r>   -16.3822    11.4701    78.2900 </r>
       <r>   -16.2767     9.2548    79.2661 </r>
       <r>   -16.1713     2.1348    79.4913 </r>
       <r>   -16.0658     0.1482    79.5069 </r>
       <r>   -15.9603     1.0702    79.6198 </r>
       <r>   -15.8549     2.5784    79.8917 </r>
       <r>   -15.7494     0.9724    79.9943 </r>
       <r>   -15.6439     0.0543    80.0000 </r>
       <r>   -15.5384     0.0823    80.0087 </r>
       <r>   -15.4330     2.4283    80.2648 </r>
       <r>   -15.3275    15.5851    81.9085 </r>
       <r>   -15.2220    30.3968    85.1144 </r>
       <r>   -15.1166    19.5933    87.1809 </r>
       <r>   -15.0111     5.0992    87.7187 </r>
       <r>   -14.9056     2.4673    87.9789 </r>
       <r>   -14.8002     2.0993    88.2003 </r>
       <r>   -14.6947     2.5446    88.4687 </r>
       <r>   -14.5892     2.2557    88.7066 </r>
       <r>   -14.4838     2.3095    88.9502 </r>
       <r>   -14.3783     0.7740    89.0318 </r>
       <r>   -14.2728     4.8652    89.5450 </r>
       <r>   -14.1674    14.0288    91.0246 </r>
       <r>   -14.0619    11.7231    92.2610 </r>
       <r>   -13.9564    10.9845    93.4195 </r>
       <r>   -13.8510    13.4224    94.8351 </r>
       <r>   -13.7455    15.0231    96.4196 </r>
       <r>   -13.6400    24.5001    99.0036 </r>
       <r>   -13.5345    26.0301   101.7489 </r>
       <r>   -13.4291    25.5489   104.4435 </r>
       <r>   -13.3236    30.6314   107.6742 </r>
       <r>   -13.2181    24.2641   110.2333 </r>
       <r>   -13.1127    19.2356   112.2620 </r>
       <r>   -13.0072    16.0998   113.9601 </r>
       <r>   -12.9017     7.0524   114.7039 </r>
       <r>   -12.7963     5.9994   115.3366 </r>
       <r>   -12.6908     6.7077   116.0441 </r>
       <r>   -12.5853     9.1638   117.0105 </r>
       <r>   -12.4799     7.6440   117.8167 </r>
       <r>   -12.3744     5.6324   118.4108 </r>
       <r>   -12.2689     6.0058   119.0442 </r>
       <r>   -12.1635     8.1731   119.9062 </r>
       <r>   -12.0580     5.2969   120.4649 </r>
       <r>   -11.9525     4.6574   120.9561 </r>
       <r>   -11.8471     8.2083   121.8218 </r>
       <r>   -11.7416    13.8896   123.2867 </r>
       <r>   -11.6361    17.4668   125.1289 </r>
       <r>   -11.5306    19.2613   127.1604 </r>
       <r>   -11.4252    23.6571   129.6554 </r>
       <r>   -11.3197    20.9012   131.8599 </r>
       <r>   -11.2142    18.4763   133.8085 </r>
       <r>   -11.1088    20.0241   135.9204 </r>
       <r>   -11.0033    20.1623   138.0469 </r>
       <r>   -10.8978    12.0812   139.3211 </r>
       <r>   -10.7924     8.9949   140.2698 </r>
       <r>   -10.6869     6.3109   140.9354 </r>
       <r>   -10.5814     4.8858   141.4507 </r>
       <r>   -10.4760    10.0498   142.5106 </r>
       <r>   -10.3705    17.3006   144.3353 </r>
       <r>   -10.2650    18.9603   146.3350 </r>
       <r>   -10.1596    18.2207   148.2567 </r>
       <r>   -10.0541    16.1654   149.9617 </r>
       <r>    -9.9486    13.0015   151.3329 </r>
       <r>    -9.8432     5.6318   151.9269 </r>
       <r>    -9.7377     1.4737   152.0823 </r>
       <r>    -9.6322     3.2541   152.4255 </r>
       <r>    -9.5267     6.8976   153.1530 </r>
       <r>    -9.4213    10.8528   154.2976 </r>
       <r>    -9.3158    14.8851   155.8675 </r>
       <r>    -9.2103    22.1214   158.2007 </r>
       <r>    -9.1049    16.4318   159.9337 </r>
       <r>    -8.9994    20.7859   162.1259 </r>
       <r>    -8.8939    29.9011   165.2796 </r>
       <r>    -8.7885    30.2868   168.4739 </r>
       <r>    -8.6830    13.0011   169.8451 </r>
       <r>    -8.5775     1.4413   169.9971 </r>
       <r>    -8.4721     0.1532   170.0132 </r>
       <r>    -8.3666     2.8691   170.3158 </r>
       <r>    -8.2611    11.1269   171.4894 </r>
       <r>    -8.1557     9.2288   172.4627 </r>
       <r>    -8.0502    10.0199   173.5195 </r>
       <r>    -7.9447    21.8908   175.8283 </r>
       <r>    -7.8393    19.1379   177.8467 </r>
       <r>    -7.7338    17.4094   179.6829 </r>
       <r>    -7.6283    16.6454   181.4384 </r>
       <r>    -7.5228     4.9263   181.9580 </r>
       <r>    -7.4174     0.7757   182.0398 </r>
       <r>    -7.3119     7.0681   182.7853 </r>
       <r>    -7.2064    27.4902   185.6846 </r>
       <r>    -7.1010    36.2314   189.5059 </r>
       <r>    -6.9955    32.0623   192.8875 </r>
       <r>    -6.8900    34.8416   196.5622 </r>
       <r>    -6.7846    39.2814   200.7051 </r>
       <r>    -6.6791    34.9507   204.3913 </r>
       <r>    -6.5736    20.7901   206.5840 </r>
       <r>    -6.4682    11.5521   207.8024 </r>
       <r>    -6.3627    13.5899   209.2357 </r>
       <r>    -6.2572    30.9898   212.5041 </r>
       <r>    -6.1518    36.7691   216.3821 </r>
       <r>    -6.0463    28.2721   219.3639 </r>
       <r>    -5.9408    19.6005   221.4312 </r>
       <r>    -5.8354    23.5248   223.9123 </r>
       <r>    -5.7299    24.8947   226.5379 </r>
       <r>    -5.6244    16.5719   228.2857 </r>
       <r>    -5.5189    22.0897   230.6155 </r>
       <r>    -5.4135    35.7340   234.3843 </r>
       <r>    -5.3080    31.0802   237.6623 </r>
       <r>    -5.2025    31.4797   240.9824 </r>
       <r>    -5.0971    40.0822   245.2098 </r>
       <r>    -4.9916    39.8681   249.4146 </r>
       <r>    -4.8861    39.0845   253.5368 </r>
       <r>    -4.7807    35.0114   257.2294 </r>
       <r>    -4.6752    25.5081   259.9197 </r>
       <r>    -4.5697    24.5181   262.5056 </r>
       <r>    -4.4643    28.4320   265.5043 </r>
       <r>    -4.3588    20.3214   267.6475 </r>
       <r>    -4.2533    12.3991   268.9552 </r>
       <r>    -4.1479    11.4397   270.1618 </r>
       <r>    -4.0424    15.6767   271.8152 </r>
       <r>    -3.9369    22.4357   274.1814 </r>
       <r>    -3.8315    24.2750   276.7417 </r>
       <r>    -3.7260    23.9596   279.2687 </r>
       <r>    -3.6205    25.6718   281.9762 </r>
       <r>    -3.5150    17.1809   283.7883 </r>
       <r>    -3.4096     8.6791   284.7037 </r>
       <r>    -3.3041     9.8002   285.7373 </r>
       <r>    -3.1986     2.4059   285.9910 </r>
       <r>    -3.0932     0.1410   286.0059 </r>
       <r>    -2.9877     1.9091   286.2072 </r>
       <r>    -2.8822     9.2417   287.1819 </r>
       <r>    -2.7768     6.9487   287.9148 </r>
       <r>    -2.6713     0.7953   287.9987 </r>
       <r>    -2.5658     0.0124   288.0000 </r>
       <r>    -2.4604     0.0000   288.0000 </r>
       <r>    -2.3549     0.0000   288.0000 </r>
       <r>    -2.2494     0.0000   288.0000 </r>
       <r>    -2.1440     0.0000   288.0000 </r>
       <r>    -2.0385     0.0003   288.0000 </r>
       <r>    -1.9330     0.0497   288.0053 </r>
       <r>    -1.8276     1.4927   288.1627 </r>
       <r>    -1.7221     8.6547   289.0755 </r>
       <r>    -1.6166    13.0119   290.4479 </r>
       <r>    -1.5111    11.1384   291.6226 </r>
       <r>    -1.4057    12.6924   292.9612 </r>
       <r>    -1.3002    11.3244   294.1556 </r>
       <r>    -1.1947     8.7188   295.0752 </r>
       <r>    -1.0893     9.4292   296.0696 </r>
       <r>    -0.9838    15.6311   297.7182 </r>
       <r>    -0.8783    21.9720   300.0356 </r>
       <r>    -0.7729    23.8930   302.5555 </r>
       <r>    -0.6674    17.4569   304.3967 </r>
       <r>    -0.5619    14.6373   305.9405 </r>
       <r>    -0.4565    11.0956   307.1107 </r>
       <r>    -0.3510    18.2471   309.0352 </r>
       <r>    -0.2455    25.8066   311.7570 </r>
       <r>    -0.1401    19.0962   313.7710 </r>
       <r>    -0.0346    12.9158   315.1332 </r>
       <r>     0.0709     7.3168   315.9049 </r>
       <r>     0.1763     0.8858   315.9983 </r>
       <r>     0.2818     0.0159   316.0000 </r>
       <r>     0.3873     0.0638   316.0068 </r>
       <r>     0.4928     1.9676   316.2143 </r>
       <r>     0.5982     9.1235   317.1765 </r>
       <r>     0.7037     6.9417   317.9087 </r>
       <r>     0.8092     0.8857   318.0021 </r>
       <r>     0.9146     0.7996   318.0864 </r>
       <r>     1.0201     2.9000   318.3923 </r>
       <r>     1.1256     4.4754   318.8643 </r>
       <r>     1.2310     8.9721   319.8105 </r>
       <r>     1.3365    14.3584   321.3249 </r>
       <r>     1.4420    15.0736   322.9147 </r>
       <r>     1.5474    20.6356   325.0911 </r>
       <r>     1.6529    23.8640   327.6080 </r>
       <r>     1.7584    24.3422   330.1753 </r>
       <r>     1.8638    20.9706   332.3871 </r>
       <r>     1.9693    24.5808   334.9796 </r>
       <r>     2.0748    31.5486   338.3069 </r>
       <r>     2.1802    28.3469   341.2967 </r>
       <r>     2.2857    18.4447   343.2420 </r>
       <r>     2.3912    15.7165   344.8996 </r>
       <r>     2.4967    19.5633   346.9629 </r>
       <r>     2.6021    19.9586   349.0679 </r>
       <r>     2.7076    18.0097   350.9673 </r>
       <r>     2.8131     8.4247   351.8559 </r>
       <r>     2.9185     1.3223   351.9954 </r>
       <r>     3.0240     0.0439   352.0000 </r>
       <r>     3.1295     0.0002   352.0000 </r>
       <r>     3.2349     0.0000   352.0000 </r>
       <r>     3.3404     0.0000   352.0000 </r>
       <r>     3.4459     0.0000   352.0000 </r>
       <r>     3.5513     0.0000   352.0000 </r>
       <r>     3.6568     0.0000   352.0000 </r>
       <r>     3.7623     0.0000   352.0000 </r>
       <r>     3.8677     0.0000   352.0000 </r>
       <r>     3.9732     0.0000   352.0000 </r>
       <r>     4.0787     0.0000   352.0000 </r>
       <r>     4.1841     0.0000   352.0000 </r>
      </set>
     </set>
    </array>
   </total>
  </dos>
 </calculation>
 <structure name="finalpos" >
  <crystal>
   <varray name="basis" >
    <v>      13.71536184       0.00000000       0.00000000 </v>
    <v>       0.00000000      10.80736726       0.00000000 </v>
    <v>       0.00000000       0.00000000      15.00000000 </v>
   </varray>
   <i name="volume">   2223.40428672 </i>
   <varray name="rec_basis" >
    <v>       0.07291095       0.00000000       0.00000000 </v>
    <v>       0.00000000       0.09252947       0.00000000 </v>
    <v>       0.00000000       0.00000000       0.06666667 </v>
   </varray>
  </crystal>
  <varray name="positions" >
   <v>       0.07149343       0.38811002       0.23359398 </v>
   <v>       0.98128920       0.21799957       0.17021617 </v>
   <v>       0.22990036       0.39662633       0.20156577 </v>
   <v>       0.81972337       0.58019591       0.18889127 </v>
   <v>       0.14948238       0.25133450       0.12558972 </v>
   <v>       0.90831795       0.38577504       0.22937276 </v>
   <v>       0.57115771       0.39098376       0.23318733 </v>
   <v>       0.47968600       0.22163394       0.17131170 </v>
   <v>       0.73273000       0.39491426       0.20515708 </v>
   <v>       0.31228762       0.58487060       0.18870833 </v>
   <v>       0.64961947       0.25325536       0.12698477 </v>
   <v>       0.40552927       0.39194498       0.22662291 </v>
   <v>       0.81771228       0.88803243       0.04150010 </v>
   <v>       0.72916564       0.71920532       0.10916442 </v>
   <v>       0.97756800       0.89685370       0.06933386 </v>
   <v>       0.06755403       0.08024329       0.08626630 </v>
   <v>       0.89905382       0.75210683       0.14790072 </v>
   <v>       0.65390181       0.88673058       0.05119846 </v>
   <v>       0.31773897       0.89251199       0.04034827 </v>
   <v>       0.22685166       0.72060389       0.10196414 </v>
   <v>       0.47633127       0.90008995       0.07482242 </v>
   <v>       0.56744992       0.08159442       0.09035331 </v>
   <v>       0.39093451       0.76372081       0.15440117 </v>
   <v>       0.15408956       0.88794781       0.04250729 </v>
   <v>       0.98889110       0.44135210       0.25929485 </v>
   <v>       0.90044914       0.26695011       0.20391845 </v>
   <v>       0.15933325       0.42958588       0.25765202 </v>
   <v>       0.14743517       0.14944573       0.07640295 </v>
   <v>       0.98490187       0.10835192       0.12997873 </v>
   <v>       0.22954882       0.32086634       0.13229415 </v>
   <v>       0.06749416       0.28757301       0.17458055 </v>
   <v>       0.82233313       0.45739590       0.22260968 </v>
   <v>       0.48853980       0.44831395       0.25599352 </v>
   <v>       0.39960365       0.27170714       0.20450254 </v>
   <v>       0.65959945       0.42734430       0.26064231 </v>
   <v>       0.64748291       0.15080546       0.07912842 </v>
   <v>       0.48461574       0.11076348       0.13350431 </v>
   <v>       0.73040467       0.32098314       0.13519150 </v>
   <v>       0.56655402       0.29214464       0.17383926 </v>
   <v>       0.31996062       0.46172703       0.21785924 </v>
   <v>       0.73404188       0.94050904       0.01816600 </v>
   <v>       0.64675340       0.76852583       0.07969913 </v>
   <v>       0.90521907       0.92928624       0.01515435 </v>
   <v>       0.89917041       0.64978825       0.19731399 </v>
   <v>       0.73471990       0.60888365       0.14933931 </v>
   <v>       0.97849188       0.82162709       0.13945714 </v>
   <v>       0.81567730       0.78728350       0.10079806 </v>
   <v>       0.56878677       0.95875361       0.05910868 </v>
   <v>       0.23546015       0.94305272       0.01242238 </v>
   <v>       0.14701671       0.76782850       0.06660096 </v>
   <v>       0.40700364       0.93164082       0.01743273 </v>
   <v>       0.38531211       0.66476353       0.20892660 </v>
   <v>       0.23389261       0.60875655       0.13918703 </v>
   <v>       0.47220389       0.82857380       0.14754833 </v>
   <v>       0.31191192       0.79405995       0.10195609 </v>
   <v>       0.06865143       0.95890715       0.05201296 </v>
   <v>       0.55944766       0.78808625       0.40293517 </v>
   <v>       0.65670156       0.58684491       0.36183776 </v>
   <v>       0.48998286       0.62932255       0.29492620 </v>
  </varray>
 </structure>
</modeling>
