slab_Cel1-OPT                           
           1
    13.759704    0.000000    0.000000
     0.000000   11.286700    0.000000
     0.000000    0.000000   15.000000
   C    N    Ag   Cu
    24    32     2     1
Direct configuration=     1
   0.07054120  0.38816457  0.22227495
   0.98151180  0.21832942  0.16785344
   0.22877304  0.39667288  0.18904348
   0.82472337  0.57572318  0.18403191
   0.14970601  0.24663792  0.12277753
   0.90758628  0.38434512  0.21811946
   0.56886571  0.39316130  0.23173729
   0.47768100  0.22391730  0.18017943
   0.73035049  0.39802658  0.19909345
   0.31101118  0.58132963  0.17977696
   0.64681854  0.25040749  0.13377315
   0.40275100  0.39355427  0.22106508
   0.81808056  0.88988957  0.05647519
   0.73319531  0.72568325  0.12448457
   0.97932824  0.89597624  0.07999408
   0.06867909  0.07698375  0.09423854
   0.90528082  0.74258583  0.14719628
   0.65472406  0.89333727  0.07691603
   0.31825350  0.89473226  0.05377466
   0.22716619  0.72126926  0.10084126
   0.47498917  0.90396535  0.09489577
   0.56592959  0.08075138  0.11024766
   0.38612516  0.76037560  0.16363174
   0.15509033  0.88950396  0.05271529
   0.98784551  0.43883046  0.24713656
   0.89991795  0.26975381  0.19549767
   0.15759857  0.43325808  0.24240148
   0.14788829  0.14353661  0.08017307
   0.98633649  0.10796021  0.13653167
   0.22915942  0.31533454  0.12527490
   0.06735802  0.28598388  0.16888911
   0.82274912  0.45552252  0.21014877
   0.48493735  0.44793349  0.25146232
   0.39648714  0.27665554  0.20625030
   0.65756919  0.43524210  0.25419888
   0.64488604  0.14640144  0.09374788
   0.48286722  0.11321356  0.15081376
   0.72606390  0.31870920  0.13454719
   0.56470606  0.29135323  0.18008364
   0.31888640  0.46086995  0.20329135
   0.73287748  0.94248397  0.03965616
   0.64891188  0.78317499  0.11254597
   0.90382696  0.93469024  0.03189926
   0.90701680  0.63807548  0.18754912
   0.73647441  0.61699787  0.15934394
   0.98321706  0.81212363  0.14197152
   0.81925020  0.78400528  0.10639513
   0.56804185  0.96074410  0.08520074
   0.23699719  0.94478449  0.02657725
   0.14820250  0.77173059  0.06843984
   0.40793432  0.93556381  0.03646331
   0.38047481  0.65838217  0.20939239
   0.23501053  0.60894863  0.12850628
   0.46527775  0.83024755  0.16578047
   0.31113112  0.79334051  0.10891910
   0.06990262  0.95754122  0.06514651
   0.57736557  0.77647674  0.24193941
   0.65582252  0.60772566  0.29790490
   0.48700699  0.61617049  0.29396059
slab_Cel1-OPT                           
           1
    13.764116    0.000000    0.000000
     0.000000   11.289079    0.000000
     0.000000    0.000000   15.000000
   C    N    Ag   Cu
    24    32     2     1
Direct configuration=     2
   0.07052230  0.38814899  0.22225695
   0.98153325  0.21838432  0.16786693
   0.22875809  0.39668785  0.18901722
   0.82480636  0.57577987  0.18399303
   0.14970117  0.24669108  0.12280805
   0.90758089  0.38437068  0.21811574
   0.56876908  0.39303308  0.23167289
   0.47765321  0.22403874  0.18021037
   0.73029389  0.39803377  0.19910474
   0.31094788  0.58144088  0.17978826
   0.64681563  0.25053195  0.13383065
   0.40276441  0.39359059  0.22107181
   0.81806503  0.88992833  0.05647247
   0.73331088  0.72577948  0.12433304
   0.97932207  0.89604029  0.07998753
   0.06866348  0.07704823  0.09422417
   0.90529898  0.74268736  0.14716292
   0.65476574  0.89337335  0.07686839
   0.31820048  0.89473876  0.05380711
   0.22717459  0.72132706  0.10082409
   0.47489065  0.90401129  0.09490731
   0.56591099  0.08087488  0.11021521
   0.38604419  0.76044077  0.16353378
   0.15502555  0.88952513  0.05273155
   0.98788350  0.43882190  0.24713250
   0.89988882  0.26975019  0.19550638
   0.15764240  0.43325816  0.24240739
   0.14786719  0.14350449  0.08017074
   0.98637886  0.10794762  0.13651740
   0.22917144  0.31529941  0.12524651
   0.06736345  0.28599132  0.16890050
   0.82275051  0.45540094  0.21019964
   0.48494492  0.44784810  0.25139292
   0.39650025  0.27658425  0.20621975
   0.65768907  0.43361358  0.25378344
   0.64485630  0.14630628  0.09373360
   0.48291557  0.11311394  0.15079383
   0.72601414  0.31864409  0.13445799
   0.56470576  0.29130198  0.18005715
   0.31886742  0.46077277  0.20330469
   0.73295650  0.94250217  0.03966881
   0.64938042  0.78320324  0.11172015
   0.90383872  0.93468028  0.03190766
   0.90696924  0.63795961  0.18757768
   0.73674318  0.61695663  0.15894381
   0.98320700  0.81204370  0.14198456
   0.81922536  0.78393279  0.10645374
   0.56801094  0.96066633  0.08516119
   0.23707020  0.94480259  0.02657453
   0.14819131  0.77170314  0.06840869
   0.40799267  0.93557843  0.03645164
   0.38043362  0.65831667  0.20932342
   0.23504356  0.60889887  0.12851206
   0.46395003  0.83084911  0.16490846
   0.31112278  0.79332655  0.10892457
   0.06989621  0.95745022  0.06513303
   0.57770259  0.77888025  0.24286763
   0.65749713  0.60722906  0.29974078
   0.48567102  0.61544403  0.29428658
slab_Cel1-OPT                           
           1
    13.777352    0.000000    0.000000
     0.000000   11.296219    0.000000
     0.000000    0.000000   15.000000
   C    N    Ag   Cu
    24    32     2     1
Direct configuration=     3
   0.07046560  0.38810226  0.22220294
   0.98159758  0.21854897  0.16790740
   0.22871327  0.39673274  0.18893842
   0.82505527  0.57594991  0.18387639
   0.14968664  0.24685053  0.12289960
   0.90756472  0.38444735  0.21810457
   0.56847927  0.39264851  0.23147969
   0.47756985  0.22440301  0.18030320
   0.73012415  0.39805532  0.19913858
   0.31075803  0.58177458  0.17982216
   0.64680689  0.25090526  0.13400317
   0.40280464  0.39369955  0.22109201
   0.81801846  0.89004458  0.05646430
   0.73365749  0.72606811  0.12387845
   0.97930356  0.89623242  0.07996789
   0.06861667  0.07724160  0.09418106
   0.90535343  0.74299189  0.14706285
   0.65489074  0.89348155  0.07672547
   0.31804148  0.89475825  0.05390447
   0.22719979  0.72150043  0.10077258
   0.47459520  0.90414906  0.09494193
   0.56585519  0.08124530  0.11011785
   0.38580138  0.76063623  0.16323989
   0.15483126  0.88958863  0.05278035
   0.98799743  0.43879621  0.24712033
   0.89980148  0.26973932  0.19553250
   0.15777385  0.43325839  0.24242514
   0.14780394  0.14340816  0.08016373
   0.98650594  0.10790985  0.13647460
   0.22920750  0.31519402  0.12516134
   0.06737975  0.28601364  0.16893469
   0.82275467  0.45503628  0.21035224
   0.48496763  0.44759197  0.25118472
   0.39653954  0.27637042  0.20612811
   0.65804862  0.42872903  0.25253712
   0.64476709  0.14602088  0.09369075
   0.48306060  0.11281512  0.15073406
   0.72586492  0.31844881  0.13419039
   0.56470485  0.29114825  0.17997768
   0.31881047  0.46048127  0.20334472
   0.73319347  0.94255676  0.03970675
   0.65078562  0.78328800  0.10924270
   0.90387400  0.93465042  0.03193288
   0.90682661  0.63761207  0.18766335
   0.73754922  0.61683294  0.15774344
   0.98317680  0.81180396  0.14202367
   0.81915085  0.78371537  0.10662956
   0.56791826  0.96043307  0.08504255
   0.23728917  0.94485688  0.02656638
   0.14815775  0.77162081  0.06831523
   0.40816765  0.93562229  0.03641662
   0.38031010  0.65812020  0.20911652
   0.23514260  0.60874961  0.12852940
   0.45996813  0.83265341  0.16229242
   0.31109777  0.79328466  0.10894098
   0.06987698  0.95717728  0.06509261
   0.57871332  0.78608927  0.24565229
   0.66251937  0.60573957  0.30524842
   0.48166441  0.61326512  0.29526454
slab_Cel1-OPT                           
           1
    13.771836    0.000000    0.000000
     0.000000   11.279330    0.000000
     0.000000    0.000000   15.000000
   C    N    Ag   Cu
    24    32     2     1
Direct configuration=     4
   0.07060885  0.38818376  0.22220037
   0.98156099  0.21846277  0.16789593
   0.22873967  0.39670176  0.18888626
   0.82504860  0.57584517  0.18376764
   0.14971322  0.24670170  0.12282637
   0.90758340  0.38436542  0.21810060
   0.56829289  0.39180518  0.23105231
   0.47771042  0.22388953  0.18006838
   0.73071207  0.39693485  0.19813377
   0.31064750  0.58150812  0.17985989
   0.64676109  0.25051436  0.13384059
   0.40257478  0.39348269  0.22098213
   0.81807987  0.89001262  0.05656641
   0.73412276  0.72573965  0.12345309
   0.97926252  0.89614393  0.08003043
   0.06865502  0.07719897  0.09409835
   0.90524631  0.74269107  0.14719388
   0.65515370  0.89397605  0.07629445
   0.31835687  0.89487186  0.05395898
   0.22718040  0.72144859  0.10073084
   0.47408519  0.90537293  0.09364743
   0.56581596  0.08115621  0.11001225
   0.38442674  0.76005444  0.16275936
   0.15496641  0.88953721  0.05276595
   0.98797904  0.43874056  0.24707933
   0.89991642  0.26975133  0.19553277
   0.15767915  0.43315450  0.24237693
   0.14775797  0.14357077  0.08024166
   0.98652388  0.10814527  0.13653473
   0.22914276  0.31514054  0.12515835
   0.06737074  0.28605524  0.16896966
   0.82270284  0.45513301  0.21050384
   0.48517711  0.44762427  0.25120039
   0.39653202  0.27651642  0.20613468
   0.65779927  0.42813754  0.25330379
   0.64478313  0.14634739  0.09379494
   0.48302355  0.11312000  0.15089831
   0.72600853  0.31842301  0.13385854
   0.56425510  0.29078192  0.17975445
   0.31883075  0.46061136  0.20335244
   0.73336700  0.94293643  0.03967482
   0.65057212  0.78266650  0.10826191
   0.90391670  0.93459844  0.03197884
   0.90702008  0.63787341  0.18761446
   0.73758932  0.61656905  0.15709110
   0.98318453  0.81183594  0.14191081
   0.81961850  0.78418374  0.10664820
   0.56797716  0.96034417  0.08506029
   0.23705736  0.94483652  0.02661152
   0.14817535  0.77166933  0.06825152
   0.40775901  0.93592384  0.03586905
   0.38044493  0.65845554  0.20903004
   0.23508185  0.60899731  0.12839697
   0.46035719  0.83257160  0.16316192
   0.31027528  0.79302926  0.10864308
   0.06984226  0.95728174  0.06509644
   0.57926016  0.78896832  0.24798326
   0.66424569  0.60585511  0.30843649
   0.48062890  0.61264120  0.29563646
slab_Cel1-OPT                           
           1
    13.768091    0.000000    0.000000
     0.000000   11.267865    0.000000
     0.000000    0.000000   15.000000
   C    N    Ag   Cu
    24    32     2     1
Direct configuration=     5
   0.07070612  0.38823917  0.22219863
   0.98153614  0.21840416  0.16788814
   0.22875760  0.39668070  0.18885085
   0.82504407  0.57577396  0.18369381
   0.14973127  0.24660053  0.12277667
   0.90759609  0.38430972  0.21809791
   0.56816632  0.39123187  0.23076220
   0.47780588  0.22354045  0.17990898
   0.73111132  0.39617313  0.19745170
   0.31057245  0.58132697  0.17988549
   0.64672999  0.25024861  0.13373023
   0.40241868  0.39333526  0.22090754
   0.81812157  0.88999089  0.05663572
   0.73443871  0.72551636  0.12316436
   0.97923465  0.89608377  0.08007288
   0.06868106  0.07716999  0.09404222
   0.90517356  0.74248657  0.14728283
   0.65533226  0.89431222  0.07600187
   0.31857104  0.89494909  0.05399599
   0.22716724  0.72141335  0.10070251
   0.47373885  0.90620494  0.09276872
   0.56578933  0.08109564  0.10994058
   0.38349327  0.75965893  0.16243318
   0.15505818  0.88950226  0.05275617
   0.98796654  0.43870274  0.24705150
   0.89999448  0.26975949  0.19553296
   0.15761485  0.43308388  0.24234420
   0.14772675  0.14368131  0.08029455
   0.98653606  0.10830530  0.13657554
   0.22909879  0.31510419  0.12515631
   0.06736463  0.28608353  0.16899340
   0.82266764  0.45519877  0.21060675
   0.48531936  0.44764623  0.25121103
   0.39652692  0.27661567  0.20613914
   0.65762994  0.42773543  0.25382421
   0.64479402  0.14656936  0.09386567
   0.48299839  0.11332727  0.15100980
   0.72610606  0.31840548  0.13363328
   0.56394969  0.29053287  0.17960291
   0.31884452  0.46069980  0.20335769
   0.73348484  0.94319454  0.03965314
   0.65042714  0.78224400  0.10759616
   0.90394571  0.93456311  0.03201004
   0.90715145  0.63805107  0.18758128
   0.73761655  0.61638964  0.15664829
   0.98318977  0.81185768  0.14183420
   0.81993607  0.78450216  0.10666085
   0.56801716  0.96028374  0.08507234
   0.23689995  0.94482267  0.02664216
   0.14818730  0.77170231  0.06820827
   0.40748151  0.93612884  0.03549736
   0.38053649  0.65868351  0.20897134
   0.23504059  0.60916570  0.12830708
   0.46062139  0.83251598  0.16375213
   0.30971675  0.79285563  0.10844087
   0.06981869  0.95735275  0.06509903
   0.57963150  0.79092554  0.24956551
   0.66541799  0.60593366  0.31060055
   0.47992572  0.61221705  0.29588892
slab_Cel1-OPT                           
           1
    13.751833    0.000000    0.000000
     0.000000   11.250445    0.000000
     0.000000    0.000000   15.000000
   C    N    Ag   Cu
    24    32     2     1
Direct configuration=     6
   0.07063941  0.38824162  0.22217681
   0.98161328  0.21850490  0.16791439
   0.22871495  0.39659686  0.18882348
   0.82494659  0.57566599  0.18351762
   0.14963548  0.24665552  0.12282282
   0.90772308  0.38433156  0.21815430
   0.56831836  0.39080509  0.23060279
   0.47752239  0.22356552  0.17986581
   0.73101867  0.39589672  0.19748078
   0.31050495  0.58122654  0.17988895
   0.64662531  0.25009868  0.13355398
   0.40249809  0.39326487  0.22085658
   0.81844355  0.89018284  0.05668681
   0.73440020  0.72548699  0.12234705
   0.97925673  0.89599689  0.08010360
   0.06860373  0.07708020  0.09400617
   0.90536585  0.74276831  0.14726981
   0.65546144  0.89403411  0.07556531
   0.31789540  0.89521838  0.05371865
   0.22663866  0.72139135  0.10040057
   0.47360394  0.90594065  0.09287131
   0.56573319  0.08080312  0.10983990
   0.38347662  0.76024455  0.16209165
   0.15502187  0.88950860  0.05274293
   0.98797026  0.43874286  0.24704631
   0.89998172  0.26968388  0.19553262
   0.15773943  0.43310752  0.24232766
   0.14774212  0.14361120  0.08022732
   0.98657203  0.10823586  0.13651882
   0.22914623  0.31513602  0.12513299
   0.06741876  0.28608864  0.16897527
   0.82266727  0.45514858  0.21067047
   0.48529867  0.44746325  0.25115209
   0.39652802  0.27646820  0.20604297
   0.65795994  0.42735821  0.25440209
   0.64477634  0.14643090  0.09380191
   0.48303256  0.11287517  0.15090420
   0.72622410  0.31768202  0.13259750
   0.56376277  0.28999735  0.17903135
   0.31869145  0.46074357  0.20334777
   0.73384736  0.94396587  0.03953708
   0.65016532  0.78141966  0.10665867
   0.90397564  0.93462519  0.03197635
   0.90723860  0.63784076  0.18768641
   0.73767788  0.61569689  0.15602394
   0.98324876  0.81175574  0.14183343
   0.82024831  0.78485613  0.10681439
   0.56797945  0.96078930  0.08492717
   0.23705864  0.94483998  0.02673151
   0.14805772  0.77156614  0.06811027
   0.40671803  0.93688980  0.03427801
   0.38017205  0.65851326  0.20887328
   0.23503542  0.60896342  0.12832420
   0.46100681  0.83265132  0.16406430
   0.30912243  0.79291069  0.10799004
   0.06980518  0.95751070  0.06508987
   0.58032266  0.79341264  0.25273116
   0.66665400  0.60663977  0.31428239
   0.47965319  0.61195907  0.29623178
slab_Cel1-OPT                           
           1
    13.732679    0.000000    0.000000
     0.000000   11.229921    0.000000
     0.000000    0.000000   15.000000
   C    N    Ag   Cu
    24    32     2     1
Direct configuration=     7
   0.07056072  0.38824451  0.22215110
   0.98170427  0.21862378  0.16794532
   0.22866465  0.39649794  0.18879124
   0.82483161  0.57553859  0.18331004
   0.14952250  0.24672041  0.12287720
   0.90787286  0.38435732  0.21822073
   0.56849771  0.39030151  0.23041498
   0.47718800  0.22359511  0.17981495
   0.73090938  0.39557057  0.19751503
   0.31042532  0.58110804  0.17989303
   0.64650184  0.24992176  0.13334632
   0.40259177  0.39318181  0.22079654
   0.81882333  0.89040933  0.05674702
   0.73435478  0.72545234  0.12138413
   0.97928278  0.89589436  0.08013981
   0.06851252  0.07697425  0.09396370
   0.90559267  0.74310075  0.14725446
   0.65561382  0.89370596  0.07505099
   0.31709845  0.89553614  0.05339191
   0.22601517  0.72136540  0.10004484
   0.47344479  0.90562879  0.09299217
   0.56566697  0.08045796  0.10972128
   0.38345699  0.76093557  0.16168927
   0.15497904  0.88951609  0.05272733
   0.98797465  0.43879020  0.24704019
   0.89996667  0.26959466  0.19553223
   0.15788639  0.43313541  0.24230818
   0.14776024  0.14352847  0.08014811
   0.98661446  0.10815391  0.13645199
   0.22920218  0.31517357  0.12510552
   0.06748261  0.28609467  0.16895390
   0.82266684  0.45508935  0.21074554
   0.48527428  0.44724733  0.25108265
   0.39652931  0.27629419  0.20592966
   0.65834917  0.42691311  0.25508292
   0.64475548  0.14626752  0.09372680
   0.48307285  0.11234171  0.15077980
   0.72636333  0.31682837  0.13137719
   0.56354229  0.28936545  0.17835797
   0.31851090  0.46079522  0.20333609
   0.73427496  0.94487601  0.03940034
   0.64985649  0.78044696  0.10555417
   0.90401095  0.93469845  0.03193666
   0.90734140  0.63759260  0.18781026
   0.73775023  0.61487946  0.15528835
   0.98331834  0.81163545  0.14183251
   0.82061661  0.78527380  0.10699528
   0.56793498  0.96138584  0.08475614
   0.23724584  0.94486041  0.02683678
   0.14790487  0.77140546  0.06799481
   0.40581748  0.93778772  0.03284142
   0.37974217  0.65831238  0.20875775
   0.23502932  0.60872472  0.12834438
   0.46146144  0.83281103  0.16443207
   0.30842139  0.79297565  0.10745889
   0.06978924  0.95769707  0.06507906
   0.58113790  0.79634735  0.25646077
   0.66811193  0.60747296  0.31862014
   0.47933174  0.61165465  0.29663571
slab_Cel1-OPT                           
           1
    13.723877    0.000000    0.000000
     0.000000   11.216542    0.000000
     0.000000    0.000000   15.000000
   C    N    Ag   Cu
    24    32     2     1
Direct configuration=     8
   0.07063713  0.38830100  0.22217221
   0.98178334  0.21858242  0.16792884
   0.22871391  0.39649879  0.18878384
   0.82477555  0.57544398  0.18315622
   0.14953312  0.24674445  0.12284676
   0.90775917  0.38443529  0.21828250
   0.56882209  0.39035532  0.23060264
   0.47694016  0.22312045  0.17957345
   0.73051253  0.39524612  0.19763184
   0.31026488  0.58122010  0.17977925
   0.64631759  0.24963401  0.13294097
   0.40259415  0.39339479  0.22076098
   0.81893424  0.89082326  0.05673464
   0.73409611  0.72475533  0.12065136
   0.97943544  0.89602089  0.08006132
   0.06847901  0.07703067  0.09392922
   0.90567337  0.74297512  0.14739605
   0.65556210  0.89338743  0.07455486
   0.31694783  0.89554832  0.05303610
   0.22576303  0.72070777  0.09992387
   0.47284581  0.90535551  0.09292262
   0.56569761  0.08051794  0.10966580
   0.38396421  0.76138814  0.16177571
   0.15474052  0.88970099  0.05263498
   0.98807462  0.43902690  0.24716273
   0.89984976  0.26945941  0.19557572
   0.15789683  0.43323271  0.24241321
   0.14784622  0.14342366  0.08000291
   0.98649584  0.10794711  0.13641856
   0.22930281  0.31515648  0.12498307
   0.06748954  0.28615028  0.16894716
   0.82265964  0.45470701  0.21075301
   0.48543139  0.44688349  0.25098071
   0.39622248  0.27601261  0.20587527
   0.65886970  0.42644290  0.25520096
   0.64472434  0.14550356  0.09339409
   0.48283176  0.11170061  0.15070715
   0.72658021  0.31705220  0.13089352
   0.56370367  0.28958755  0.17791438
   0.31849263  0.46048797  0.20339685
   0.73447948  0.94541298  0.03941524
   0.64957106  0.77989693  0.10457952
   0.90448023  0.93496596  0.03178615
   0.90737071  0.63743505  0.18787532
   0.73760534  0.61459509  0.15444441
   0.98377273  0.81174081  0.14192722
   0.82044054  0.78548665  0.10718250
   0.56786612  0.96106765  0.08435963
   0.23632053  0.94548553  0.02660026
   0.14707562  0.77143038  0.06761306
   0.40609323  0.93791876  0.03250898
   0.37944779  0.65868664  0.20856079
   0.23475474  0.60837992  0.12824561
   0.46160053  0.83311477  0.16408958
   0.30876396  0.79331302  0.10721980
   0.06980478  0.95752041  0.06500442
   0.58186977  0.79837739  0.26007375
   0.66885480  0.60854059  0.32243947
   0.47972457  0.61175833  0.29688663
slab_Cel1-OPT                           
           1
    13.709011    0.000000    0.000000
     0.000000   11.193943    0.000000
     0.000000    0.000000   15.000000
   C    N    Ag   Cu
    24    32     2     1
Direct configuration=     9
   0.07076628  0.38839653  0.22220786
   0.98191699  0.21851247  0.16790100
   0.22879718  0.39650023  0.18877135
   0.82468079  0.57528398  0.18289638
   0.14955105  0.24678510  0.12279535
   0.90756701  0.38456713  0.21838683
   0.56937037  0.39044633  0.23091961
   0.47652125  0.22231770  0.17916552
   0.72984175  0.39469743  0.19782915
   0.30999370  0.58140962  0.17958705
   0.64600615  0.24914738  0.13225627
   0.40259819  0.39375497  0.22070092
   0.81912171  0.89152329  0.05671373
   0.73365888  0.72357656  0.11941358
   0.97969348  0.89623487  0.07992874
   0.06842237  0.07712610  0.09387098
   0.90580978  0.74276266  0.14763521
   0.65547467  0.89284874  0.07371683
   0.31669326  0.89556891  0.05243509
   0.22533683  0.71959560  0.09971953
   0.47183340  0.90489335  0.09280513
   0.56574940  0.08061938  0.10957209
   0.38482155  0.76215352  0.16192170
   0.15433735  0.89001368  0.05247898
   0.98824360  0.43942721  0.24736970
   0.89965213  0.26923068  0.19564919
   0.15791448  0.43339726  0.24259062
   0.14799154  0.14324639  0.07975765
   0.98629533  0.10759737  0.13636209
   0.22947289  0.31512757  0.12477623
   0.06750125  0.28624434  0.16893577
   0.82264747  0.45406042  0.21076561
   0.48569695  0.44626819  0.25080853
   0.39570386  0.27553642  0.20578341
   0.65974952  0.42564768  0.25540034
   0.64467172  0.14421156  0.09283208
   0.48242427  0.11061638  0.15058444
   0.72694679  0.31743073  0.13007652
   0.56397642  0.28996316  0.17716510
   0.31846174  0.45996835  0.20349949
   0.73482517  0.94632109  0.03944039
   0.64908860  0.77896672  0.10293319
   0.90527344  0.93541836  0.03153192
   0.90742025  0.63716862  0.18798523
   0.73736043  0.61411418  0.15301888
   0.98454077  0.81191901  0.14208719
   0.82014296  0.78584662  0.10749874
   0.56774973  0.96052953  0.08368986
   0.23475654  0.94654272  0.02620073
   0.14567398  0.77147253  0.06696823
   0.40655932  0.93814039  0.03194743
   0.37895022  0.65931960  0.20822808
   0.23429064  0.60779679  0.12807877
   0.46183564  0.83362846  0.16351104
   0.30934299  0.79388357  0.10681594
   0.06983104  0.95722164  0.06487834
   0.58310680  0.80181054  0.26617665
   0.67011044  0.61034613  0.32889094
   0.48038856  0.61193367  0.29731047
slab_Cel1-OPT                           
           1
    13.693860    0.000000    0.000000
     0.000000   11.179876    0.000000
     0.000000    0.000000   15.000000
   C    N    Ag   Cu
    24    32     2     1
Direct configuration=    10
   0.07075589  0.38864331  0.22235253
   0.98163429  0.21832254  0.16794120
   0.22883171  0.39640672  0.18883908
   0.82427201  0.57492168  0.18276054
   0.14977848  0.24668483  0.12254063
   0.90750343  0.38450803  0.21854183
   0.56975863  0.39051331  0.23118639
   0.47615344  0.22205535  0.17892261
   0.73020792  0.39412408  0.19743676
   0.30989309  0.58133585  0.17953752
   0.64649218  0.24918852  0.13139882
   0.40254723  0.39325918  0.22056298
   0.81917871  0.89211071  0.05672447
   0.73314624  0.72299618  0.11848668
   0.98009167  0.89626338  0.07993649
   0.06847101  0.07699938  0.09368856
   0.90594050  0.74305246  0.14769242
   0.65509195  0.89266312  0.07312240
   0.31638890  0.89621181  0.05150243
   0.22475438  0.72002301  0.09912975
   0.47211112  0.90551426  0.09210328
   0.56529392  0.07935536  0.10928447
   0.38488063  0.76209543  0.16207741
   0.15342887  0.88978710  0.05229786
   0.98821135  0.43969652  0.24757753
   0.89965831  0.26896766  0.19576936
   0.15811138  0.43351047  0.24274762
   0.14804925  0.14334778  0.07961896
   0.98610845  0.10739333  0.13638098
   0.22956284  0.31516242  0.12459812
   0.06752781  0.28625533  0.16887751
   0.82233644  0.45401308  0.21068466
   0.48620189  0.44637857  0.25092991
   0.39545993  0.27509367  0.20575301
   0.65980847  0.42550448  0.25562607
   0.64503642  0.14400610  0.09234745
   0.48207204  0.10994067  0.15054966
   0.72647844  0.31813200  0.13021777
   0.56407711  0.29045948  0.17672212
   0.31866850  0.46036141  0.20356789
   0.73474214  0.94641220  0.03959619
   0.64878061  0.77850724  0.10167000
   0.90569079  0.93575361  0.03122738
   0.90728525  0.63690811  0.18804767
   0.73730072  0.61320227  0.15210888
   0.98476202  0.81185193  0.14236682
   0.81982363  0.78596243  0.10771241
   0.56748325  0.95947381  0.08301353
   0.23474066  0.94723447  0.02579208
   0.14547748  0.77067548  0.06669220
   0.40675176  0.93742094  0.03234937
   0.37913540  0.66005121  0.20826456
   0.23361126  0.60717670  0.12782215
   0.46234313  0.83370911  0.16335891
   0.30982398  0.79390984  0.10666805
   0.06960088  0.95746511  0.06477448
   0.58380683  0.80377197  0.27078838
   0.67038806  0.61184820  0.33352216
   0.48163823  0.61249621  0.29736668
slab_Cel1-OPT                           
           1
    13.687863    0.000000    0.000000
     0.000000   11.174308    0.000000
     0.000000    0.000000   15.000000
   C    N    Ag   Cu
    24    32     2     1
Direct configuration=    11
   0.07075177  0.38874111  0.22240979
   0.98152227  0.21824727  0.16795711
   0.22884540  0.39636966  0.18886590
   0.82411003  0.57477810  0.18270677
   0.14986859  0.24664510  0.12243982
   0.90747823  0.38448461  0.21860317
   0.56991247  0.39053986  0.23129198
   0.47600769  0.22195139  0.17882647
   0.73035301  0.39389686  0.19728145
   0.30985323  0.58130661  0.17951792
   0.64668476  0.24920482  0.13105944
   0.40252704  0.39306269  0.22050838
   0.81920130  0.89234350  0.05672872
   0.73294311  0.72276617  0.11811981
   0.98024945  0.89627468  0.07993956
   0.06849029  0.07694916  0.09361636
   0.90599230  0.74316730  0.14771507
   0.65494030  0.89258956  0.07288713
   0.31626831  0.89646659  0.05113329
   0.22452359  0.72019240  0.09889632
   0.47222116  0.90576033  0.09182550
   0.56511345  0.07885444  0.10917063
   0.38490403  0.76207241  0.16213904
   0.15306889  0.88969731  0.05222618
   0.98819858  0.43980325  0.24765980
   0.89966075  0.26886343  0.19581693
   0.15818940  0.43355534  0.24280976
   0.14807212  0.14338796  0.07956406
   0.98603439  0.10731247  0.13638846
   0.22959848  0.31517623  0.12452762
   0.06753834  0.28625968  0.16885445
   0.82221319  0.45399432  0.21065262
   0.48640197  0.44642231  0.25097795
   0.39536327  0.27491820  0.20574098
   0.65983183  0.42544773  0.25571542
   0.64518092  0.14392468  0.09215563
   0.48193247  0.10967289  0.15053589
   0.72629287  0.31840991  0.13027367
   0.56411701  0.29065617  0.17654679
   0.31875043  0.46051718  0.20359496
   0.73470924  0.94644830  0.03965785
   0.64865857  0.77832515  0.10117003
   0.90585616  0.93588647  0.03110685
   0.90723175  0.63680487  0.18807239
   0.73727706  0.61284088  0.15174870
   0.98484969  0.81182535  0.14247749
   0.81969710  0.78600832  0.10779699
   0.56737765  0.95905543  0.08274583
   0.23473437  0.94750860  0.02563033
   0.14539962  0.77035961  0.06658295
   0.40682801  0.93713582  0.03250846
   0.37920877  0.66034115  0.20827900
   0.23334206  0.60693096  0.12772058
   0.46254421  0.83374106  0.16329870
   0.31001456  0.79392025  0.10660951
   0.06950968  0.95756160  0.06473337
   0.58408421  0.80454928  0.27261370
   0.67049806  0.61244346  0.33535520
   0.48213339  0.61271915  0.29738893
slab_Cel1-OPT                           
           1
    13.673964    0.000000    0.000000
     0.000000   11.166005    0.000000
     0.000000    0.000000   15.000000
   C    N    Ag   Cu
    24    32     2     1
Direct configuration=    12
   0.07074223  0.38883489  0.22252486
   0.98145289  0.21800081  0.16796028
   0.22894525  0.39634020  0.18889693
   0.82375592  0.57469225  0.18258937
   0.14994024  0.24675585  0.12229374
   0.90748505  0.38439750  0.21877840
   0.57010596  0.39024999  0.23120256
   0.47631898  0.22208149  0.17863555
   0.73067187  0.39428983  0.19749427
   0.30980712  0.58184855  0.17938304
   0.64664445  0.24932208  0.13057332
   0.40290238  0.39276196  0.22055935
   0.81919687  0.89244700  0.05686419
   0.73269807  0.72259098  0.11769681
   0.98008581  0.89608462  0.08008388
   0.06840507  0.07721039  0.09355285
   0.90562119  0.74310721  0.14778968
   0.65467999  0.89218287  0.07254675
   0.31642448  0.89653552  0.05088308
   0.22511704  0.72036914  0.09881059
   0.47304722  0.90529460  0.09194965
   0.56511982  0.07809310  0.10872954
   0.38483156  0.76256793  0.16181010
   0.15306116  0.88948191  0.05173553
   0.98792888  0.43985395  0.24783886
   0.89949232  0.26889068  0.19608890
   0.15839292  0.43354342  0.24295868
   0.14804386  0.14329819  0.07935997
   0.98602854  0.10709270  0.13635675
   0.22976904  0.31544371  0.12446885
   0.06752188  0.28627162  0.16880879
   0.82214648  0.45405745  0.21058500
   0.48629415  0.44687395  0.25124747
   0.39520136  0.27468068  0.20580462
   0.65993245  0.42577392  0.25583870
   0.64511549  0.14384403  0.09186786
   0.48186029  0.10937660  0.15047859
   0.72602386  0.31872573  0.13022462
   0.56389009  0.29061297  0.17621402
   0.31899750  0.46082432  0.20364581
   0.73437309  0.94623462  0.03973250
   0.64840069  0.77795879  0.10027666
   0.90582032  0.93583856  0.03099183
   0.90691990  0.63684668  0.18801399
   0.73705498  0.61201767  0.15112527
   0.98477964  0.81197073  0.14262473
   0.81969804  0.78620891  0.10779853
   0.56731432  0.95880474  0.08208959
   0.23474981  0.94743445  0.02529968
   0.14538655  0.77011696  0.06620781
   0.40644108  0.93678894  0.03243803
   0.37949006  0.65989497  0.20880691
   0.23304719  0.60693113  0.12750717
   0.46323344  0.83367138  0.16337950
   0.30944845  0.79365111  0.10623348
   0.06939354  0.95772601  0.06460452
   0.58420454  0.80542300  0.27557292
   0.67012183  0.61341988  0.33821437
   0.48358369  0.61344626  0.29712837
slab_Cel1-OPT                           
           1
    13.665465    0.000000    0.000000
     0.000000   11.160929    0.000000
     0.000000    0.000000   15.000000
   C    N    Ag   Cu