  59  59   0   0
  0.3948347E+02  0.1375970E-08  0.1128670E-08  0.1500000E-08  0.1000000E-15
  1.000000000000000E-004
  CAR 
 slab_Cel1-OPT                           
      4.25507189    -27.75049078  301     -2.03863255      1.00000000
    -27.750  0.0000E+00  0.0000E+00
    -27.644  0.0000E+00  0.0000E+00
    -27.537  0.0000E+00  0.0000E+00
    -27.430  0.0000E+00  0.0000E+00
    -27.324  0.0000E+00  0.0000E+00
    -27.217  0.0000E+00  0.0000E+00
    -27.110  0.0000E+00  0.0000E+00
    -27.004  0.0000E+00  0.0000E+00
    -26.897  0.0000E+00  0.0000E+00
    -26.790  0.6350E-14  0.6774E-15
    -26.684  0.1012E-09  0.1080E-10
    -26.577  0.1835E-06  0.1959E-07
    -26.470  0.4157E-04  0.4454E-05
    -26.364  0.1407E-02  0.1546E-03
    -26.257  0.9611E-02  0.1180E-02
    -26.150  0.2153E-01  0.3477E-02
    -26.044  0.2686E-01  0.6342E-02
    -25.937  0.1383E-01  0.7817E-02
    -25.830  0.1676E-02  0.7996E-02
    -25.723  0.3485E-04  0.8000E-02
    -25.617  0.1023E-06  0.8000E-02
    -25.510  0.3790E-08  0.8000E-02
    -25.403  0.2970E-05  0.8000E-02
    -25.297  0.3053E-03  0.8033E-02
    -25.190  0.4699E-02  0.8534E-02
    -25.083  0.1441E-01  0.1007E-01
    -24.977  0.1518E-01  0.1169E-01
    -24.870  0.1153E-01  0.1292E-01
    -24.763  0.8738E-02  0.1385E-01
    -24.657  0.9351E-02  0.1485E-01
    -24.550  0.5407E-02  0.1543E-01
    -24.443  0.6578E-03  0.1550E-01
    -24.337  0.3813E-04  0.1550E-01
    -24.230  0.6819E-03  0.1558E-01
    -24.123  0.2693E-02  0.1586E-01
    -24.017  0.6619E-02  0.1657E-01
    -23.910  0.2532E-01  0.1927E-01
    -23.803  0.3203E-01  0.2269E-01
    -23.696  0.1439E-01  0.2422E-01
    -23.590  0.2477E-02  0.2449E-01
    -23.483  0.1349E-03  0.2450E-01
    -23.376  0.5642E-03  0.2456E-01
    -23.270  0.5280E-02  0.2512E-01
    -23.163  0.1022E-01  0.2621E-01
    -23.056  0.7782E-02  0.2705E-01
    -22.950  0.9130E-02  0.2802E-01
    -22.843  0.1282E-01  0.2939E-01
    -22.736  0.1267E-01  0.3074E-01
    -22.630  0.9066E-02  0.3171E-01
    -22.523  0.2579E-02  0.3198E-01
    -22.416  0.1768E-03  0.3200E-01
    -22.310  0.2421E-05  0.3200E-01
    -22.203  0.8577E-04  0.3201E-01
    -22.096  0.2270E-02  0.3225E-01
    -21.989  0.1485E-01  0.3384E-01
    -21.883  0.3656E-01  0.3774E-01
    -21.776  0.3794E-01  0.4178E-01
    -21.669  0.2907E-01  0.4488E-01
    -21.563  0.2180E-01  0.4721E-01
    -21.456  0.6926E-02  0.4795E-01
    -21.349  0.5742E-03  0.4801E-01
    -21.243  0.1572E-02  0.4818E-01
    -21.136  0.6246E-02  0.4884E-01
    -21.029  0.1598E-01  0.5055E-01
    -20.923  0.2173E-01  0.5287E-01
    -20.816  0.1874E-01  0.5487E-01
    -20.709  0.8885E-02  0.5581E-01
    -20.603  0.2303E-02  0.5606E-01
    -20.496  0.9268E-02  0.5705E-01
    -20.389  0.2438E-01  0.5965E-01
    -20.283  0.2389E-01  0.6220E-01
    -20.176  0.1405E-01  0.6370E-01
    -20.069  0.2714E-02  0.6399E-01
    -19.962  0.1195E-03  0.6400E-01
    -19.856  0.8885E-06  0.6400E-01
    -19.749  0.8681E-09  0.6400E-01
    -19.642  0.9796E-13  0.6400E-01
    -19.536  0.1041E-17  0.6400E-01
    -19.429  0.0000E+00  0.6400E-01
    -19.322  0.0000E+00  0.6400E-01
    -19.216  0.0000E+00  0.6400E-01
    -19.109  0.0000E+00  0.6400E-01
    -19.002  0.0000E+00  0.6400E-01
    -18.896  0.0000E+00  0.6400E-01
    -18.789  0.0000E+00  0.6400E-01
    -18.682  0.0000E+00  0.6400E-01
    -18.576  0.0000E+00  0.6400E-01
    -18.469  0.0000E+00  0.6400E-01
    -18.362  0.0000E+00  0.6400E-01
    -18.256  0.0000E+00  0.6400E-01
    -18.149  0.0000E+00  0.6400E-01
    -18.042  0.4334E-15  0.6400E-01
    -17.935  0.1326E-10  0.6400E-01
    -17.829  0.4463E-07  0.6400E-01
    -17.722  0.1744E-04  0.6400E-01
    -17.615  0.8863E-03  0.6410E-01
    -17.509  0.7318E-02  0.6488E-01
    -17.402  0.1514E-01  0.6649E-01
    -17.295  0.1445E-01  0.6803E-01
    -17.189  0.1244E-01  0.6936E-01
    -17.082  0.1936E-01  0.7143E-01
    -16.975  0.2278E-01  0.7386E-01
    -16.869  0.1854E-01  0.7584E-01
    -16.762  0.1147E-01  0.7706E-01
    -16.655  0.1090E-01  0.7822E-01
    -16.549  0.9674E-02  0.7925E-01
    -16.442  0.2225E-02  0.7949E-01
    -16.335  0.1496E-03  0.7951E-01
    -16.228  0.1117E-02  0.7963E-01
    -16.122  0.2566E-02  0.7990E-01
    -16.015  0.8906E-03  0.8000E-01
    -15.908  0.4376E-04  0.8000E-01
    -15.802  0.7163E-04  0.8001E-01
    -15.695  0.2318E-02  0.8025E-01
    -15.588  0.1599E-01  0.8196E-01
    -15.482  0.3115E-01  0.8528E-01
    -15.375  0.1816E-01  0.8722E-01
    -15.268  0.4116E-02  0.8766E-01
    -15.162  0.2781E-02  0.8796E-01
    -15.055  0.2520E-02  0.8823E-01
    -14.948  0.2450E-02  0.8849E-01
    -14.842  0.2303E-02  0.8873E-01
    -14.735  0.2146E-02  0.8896E-01
    -14.628  0.7900E-03  0.8905E-01
    -14.522  0.5924E-02  0.8968E-01
    -14.415  0.1447E-01  0.9122E-01
    -14.308  0.1122E-01  0.9242E-01
    -14.201  0.1114E-01  0.9361E-01
    -14.095  0.1188E-01  0.9487E-01
    -13.988  0.1635E-01  0.9662E-01
    -13.881  0.2685E-01  0.9948E-01
    -13.775  0.2711E-01  0.1024E+00
    -13.668  0.3037E-01  0.1056E+00
    -13.561  0.2980E-01  0.1088E+00
    -13.455  0.2022E-01  0.1110E+00
    -13.348  0.1777E-01  0.1128E+00
    -13.241  0.1315E-01  0.1143E+00
    -13.135  0.4774E-02  0.1148E+00
    -13.028  0.6531E-02  0.1155E+00
    -12.921  0.8073E-02  0.1163E+00
    -12.815  0.8303E-02  0.1172E+00
    -12.708  0.7289E-02  0.1180E+00
    -12.601  0.4797E-02  0.1185E+00
    -12.495  0.6113E-02  0.1191E+00
    -12.388  0.8723E-02  0.1201E+00
    -12.281  0.6037E-02  0.1207E+00
    -12.174  0.5630E-02  0.1213E+00
    -12.068  0.7548E-02  0.1221E+00
    -11.961  0.1432E-01  0.1237E+00
    -11.854  0.1924E-01  0.1257E+00
    -11.748  0.2244E-01  0.1281E+00
    -11.641  0.2330E-01  0.1306E+00
    -11.534  0.1893E-01  0.1326E+00
    -11.428  0.1817E-01  0.1345E+00
    -11.321  0.1927E-01  0.1366E+00
    -11.214  0.1694E-01  0.1384E+00
    -11.108  0.1056E-01  0.1395E+00
    -11.001  0.8426E-02  0.1404E+00
    -10.894  0.5354E-02  0.1410E+00
    -10.788  0.6047E-02  0.1416E+00
    -10.681  0.1236E-01  0.1430E+00
    -10.574  0.2023E-01  0.1451E+00
    -10.467  0.1980E-01  0.1472E+00
    -10.361  0.1797E-01  0.1492E+00
    -10.254  0.1529E-01  0.1508E+00
    -10.147  0.9204E-02  0.1518E+00
    -10.041  0.2323E-02  0.1520E+00
     -9.934  0.2062E-02  0.1522E+00
     -9.827  0.4669E-02  0.1527E+00
     -9.721  0.9477E-02  0.1537E+00
     -9.614  0.1138E-01  0.1550E+00
     -9.507  0.1838E-01  0.1569E+00
     -9.401  0.1970E-01  0.1590E+00
     -9.294  0.1475E-01  0.1606E+00
     -9.187  0.2609E-01  0.1634E+00
     -9.081  0.2928E-01  0.1665E+00
     -8.974  0.1860E-01  0.1685E+00
     -8.867  0.1142E-01  0.1697E+00
     -8.761  0.7431E-02  0.1705E+00
     -8.654  0.1028E-01  0.1716E+00
     -8.547  0.5276E-02  0.1722E+00
     -8.440  0.2751E-02  0.1724E+00
     -8.334  0.3395E-02  0.1728E+00
     -8.227  0.1353E-01  0.1743E+00
     -8.120  0.1662E-01  0.1760E+00
     -8.014  0.1904E-01  0.1781E+00
     -7.907  0.2483E-01  0.1807E+00
     -7.800  0.1086E-01  0.1819E+00
     -7.694  0.1290E-02  0.1820E+00
     -7.587  0.2779E-02  0.1823E+00
     -7.480  0.2052E-01  0.1845E+00
     -7.374  0.3675E-01  0.1884E+00
     -7.267  0.3113E-01  0.1917E+00
     -7.160  0.3117E-01  0.1951E+00
     -7.054  0.3687E-01  0.1990E+00
     -6.947  0.3278E-01  0.2025E+00
     -6.840  0.1610E-01  0.2042E+00
     -6.734  0.1047E-01  0.2053E+00
     -6.627  0.1052E-01  0.2064E+00
     -6.520  0.2139E-01  0.2087E+00
     -6.413  0.2549E-01  0.2114E+00
     -6.307  0.1810E-01  0.2134E+00
     -6.200  0.1430E-01  0.2149E+00
     -6.093  0.1086E-01  0.2161E+00
     -5.987  0.1060E-01  0.2172E+00
     -5.880  0.1105E-01  0.2184E+00
     -5.773  0.1446E-01  0.2199E+00
     -5.667  0.1908E-01  0.2219E+00
     -5.560  0.2288E-01  0.2244E+00
     -5.453  0.2963E-01  0.2276E+00
     -5.347  0.3330E-01  0.2311E+00
     -5.240  0.2810E-01  0.2341E+00
     -5.133  0.3525E-01  0.2379E+00
     -5.027  0.3636E-01  0.2417E+00
     -4.920  0.3410E-01  0.2454E+00
     -4.813  0.3083E-01  0.2487E+00
     -4.706  0.3171E-01  0.2521E+00
     -4.600  0.2814E-01  0.2551E+00
     -4.493  0.2254E-01  0.2575E+00
     -4.386  0.2804E-01  0.2604E+00
     -4.280  0.2652E-01  0.2633E+00
     -4.173  0.2435E-01  0.2659E+00
     -4.066  0.1755E-01  0.2677E+00
     -3.960  0.1949E-01  0.2698E+00
     -3.853  0.1660E-01  0.2716E+00
     -3.746  0.8267E-02  0.2725E+00
     -3.640  0.1807E-01  0.2744E+00
     -3.533  0.2262E-01  0.2768E+00
     -3.426  0.1002E-01  0.2779E+00
     -3.320  0.1014E-02  0.2780E+00
     -3.213  0.2064E-03  0.2780E+00
     -3.106  0.4971E-02  0.2786E+00
     -3.000  0.1934E-01  0.2806E+00
     -2.893  0.1519E-01  0.2822E+00
     -2.786  0.1218E-01  0.2835E+00
     -2.679  0.1204E-01  0.2848E+00
     -2.573  0.9343E-02  0.2858E+00
     -2.466  0.1700E-02  0.2860E+00
     -2.359  0.1456E-03  0.2860E+00
     -2.253  0.2688E-02  0.2863E+00
     -2.146  0.9917E-02  0.2874E+00
     -2.039  0.6017E-02  0.2880E+00
     -1.933  0.5936E-02  0.2886E+00
     -1.826  0.1383E-01  0.2901E+00
     -1.719  0.1282E-01  0.2915E+00
     -1.613  0.1295E-01  0.2929E+00
     -1.506  0.1164E-01  0.2941E+00
     -1.399  0.8898E-02  0.2950E+00
     -1.293  0.1102E-01  0.2962E+00
     -1.186  0.1757E-01  0.2981E+00
     -1.079  0.2462E-01  0.3007E+00
     -0.973  0.2148E-01  0.3030E+00
     -0.866  0.8607E-02  0.3039E+00
     -0.759  0.4663E-02  0.3044E+00
     -0.652  0.1136E-01  0.3056E+00
     -0.546  0.1987E-01  0.3078E+00
     -0.439  0.1937E-01  0.3098E+00
     -0.332  0.1363E-01  0.3113E+00
     -0.226  0.6112E-02  0.3119E+00
     -0.119  0.1907E-02  0.3121E+00
     -0.012  0.7955E-02  0.3130E+00
      0.094  0.8173E-02  0.3139E+00
      0.201  0.3387E-02  0.3142E+00
      0.308  0.9376E-02  0.3152E+00
      0.414  0.6600E-02  0.3159E+00
      0.521  0.7000E-03  0.3160E+00
      0.628  0.1283E-04  0.3160E+00
      0.734  0.3110E-03  0.3160E+00
      0.841  0.4947E-02  0.3166E+00
      0.948  0.1420E-01  0.3181E+00
      1.055  0.1589E-01  0.3198E+00
      1.161  0.1582E-01  0.3215E+00
      1.268  0.1397E-01  0.3229E+00
      1.375  0.1900E-01  0.3250E+00
      1.481  0.1942E-01  0.3270E+00
      1.588  0.2343E-01  0.3295E+00
      1.695  0.2266E-01  0.3320E+00
      1.801  0.2245E-01  0.3344E+00
      1.908  0.2473E-01  0.3370E+00
      2.015  0.2378E-01  0.3395E+00
      2.121  0.1523E-01  0.3412E+00
      2.228  0.9919E-02  0.3422E+00
      2.335  0.1174E-01  0.3435E+00
      2.441  0.1427E-01  0.3450E+00
      2.548  0.1793E-01  0.3469E+00
      2.655  0.1998E-01  0.3490E+00
      2.761  0.1702E-01  0.3509E+00
      2.868  0.9182E-02  0.3518E+00
      2.975  0.1507E-02  0.3520E+00
      3.082  0.4545E-04  0.3520E+00
      3.188  0.1963E-06  0.3520E+00
      3.295  0.1055E-09  0.3520E+00
      3.402  0.6503E-14  0.3520E+00
      3.508  0.0000E+00  0.3520E+00
      3.615  0.0000E+00  0.3520E+00
      3.722  0.0000E+00  0.3520E+00
      3.828  0.0000E+00  0.3520E+00
      3.935  0.0000E+00  0.3520E+00
      4.042  0.0000E+00  0.3520E+00
      4.148  0.0000E+00  0.3520E+00
      4.255  0.0000E+00  0.3520E+00
