       N       E                     dE             d eps       ncg     rms          rms(c)
DAV:   1     0.267652770599E+04    0.26765E+04   -0.10239E+05  1584   0.105E+03
DAV:   2     0.152545140788E+02   -0.26613E+04   -0.25302E+04  2016   0.298E+02
DAV:   3    -0.488071972200E+03   -0.50333E+03   -0.49451E+03  1728   0.143E+02
DAV:   4    -0.517666740915E+03   -0.29595E+02   -0.28502E+02  2128   0.530E+01
DAV:   5    -0.518408707916E+03   -0.74197E+00   -0.71006E+00  1888   0.487E+00    0.705E+01
DAV:   6    -0.603551218965E+03   -0.85143E+02   -0.68752E+02  1920   0.201E+02    0.487E+01
DAV:   7    -0.512686287715E+03    0.90865E+02   -0.21846E+02  1616   0.396E+01    0.323E+01
DAV:   8    -0.481980577013E+03    0.30706E+02   -0.10825E+02  1944   0.751E+01    0.135E+01
DAV:   9    -0.528677646785E+03   -0.46697E+02   -0.85673E+01  2184   0.122E+02    0.792E+01
DAV:  10    -0.500308980250E+03    0.28369E+02   -0.58710E+00  2024   0.636E+00    0.740E+01
DAV:  11    -0.481207004270E+03    0.19102E+02   -0.16509E+01  2080   0.169E+01    0.758E+00
DAV:  12    -0.482630941485E+03   -0.14239E+01   -0.80511E+00  2176   0.227E+01    0.954E+00
DAV:  13    -0.482770233602E+03   -0.13929E+00   -0.19234E+00  2000   0.915E+00    0.880E+00
DAV:  14    -0.483286351521E+03   -0.51612E+00   -0.44188E-01  2072   0.825E+00    0.932E+00
DAV:  15    -0.484244741680E+03   -0.95839E+00   -0.42892E-01  2120   0.941E+00    0.102E+01
DAV:  16    -0.484082502608E+03    0.16224E+00   -0.20302E-01  2120   0.233E+00    0.967E+00
DAV:  17    -0.483914708501E+03    0.16779E+00   -0.33382E-02  2008   0.175E+00    0.937E+00
DAV:  18    -0.483363818677E+03    0.55089E+00   -0.89648E-02  2064   0.515E+00    0.873E+00
DAV:  19    -0.483061203202E+03    0.30262E+00   -0.64470E-02  2200   0.294E+00    0.827E+00
DAV:  20    -0.482641990122E+03    0.41921E+00   -0.72040E-02  2128   0.439E+00    0.768E+00
DAV:  21    -0.482167868002E+03    0.47412E+00   -0.12482E-01  2168   0.538E+00    0.688E+00
DAV:  22    -0.481465351614E+03    0.70252E+00   -0.35493E-01  2136   0.959E+00    0.546E+00
DAV:  23    -0.481480503151E+03   -0.15152E-01   -0.76749E-02  1584   0.648E-01    0.541E+00
DAV:  24    -0.481460977194E+03    0.19526E-01   -0.24794E-03  2152   0.315E-01    0.537E+00
DAV:  25    -0.481469077560E+03   -0.81004E-02   -0.27185E-04  1704   0.149E-01    0.540E+00
DAV:  26    -0.481451290479E+03    0.17787E-01   -0.30178E-04  1600   0.298E-01    0.535E+00
DAV:  27    -0.480595256170E+03    0.85603E+00   -0.16110E+00  2144   0.219E+01    0.231E+00
DAV:  28    -0.480592013256E+03    0.32429E-02   -0.20460E-01  2080   0.162E+00    0.221E+00
DAV:  29    -0.480587571971E+03    0.44413E-02   -0.58146E-03  2312   0.272E-01    0.219E+00
DAV:  30    -0.480590619674E+03   -0.30477E-02   -0.13306E-03  1680   0.425E-01    0.214E+00
DAV:  31    -0.480591258662E+03   -0.63899E-03   -0.86576E-02  2192   0.381E+00    0.296E+00
DAV:  32    -0.480620474850E+03   -0.29216E-01   -0.34318E-02  2144   0.162E+00    0.366E+00
DAV:  33    -0.480598778110E+03    0.21697E-01   -0.37348E-02  2096   0.204E+00    0.302E+00
DAV:  34    -0.480613880583E+03   -0.15102E-01   -0.10694E-02  1960   0.638E-01    0.337E+00
DAV:  35    -0.480616779739E+03   -0.28992E-02   -0.15710E-03  2072   0.101E-01    0.344E+00
DAV:  36    -0.480617216478E+03   -0.43674E-03   -0.85015E-05  1568   0.809E-02    0.346E+00
DAV:  37    -0.480624306770E+03   -0.70903E-02   -0.12861E-03  1832   0.110E-01    0.360E+00
DAV:  38    -0.480625479298E+03   -0.11725E-02   -0.22944E-02  2104   0.169E+00    0.342E+00
DAV:  39    -0.480626503537E+03   -0.10242E-02   -0.26471E-03  1840   0.141E-01    0.348E+00
DAV:  40    -0.480627959921E+03   -0.14564E-02   -0.50362E-04  1800   0.235E-01    0.351E+00
DAV:  41    -0.480637320966E+03   -0.93610E-02   -0.60344E-03  1984   0.708E-01    0.375E+00
DAV:  42    -0.480666257483E+03   -0.28937E-01   -0.19874E-02  1960   0.115E+00    0.433E+00
DAV:  43    -0.480671661156E+03   -0.54037E-02   -0.58384E-03  1936   0.289E-01    0.465E+00
DAV:  44    -0.480709319788E+03   -0.37659E-01   -0.13366E-02  2200   0.129E+00    0.509E+00
DAV:  45    -0.480731381092E+03   -0.22061E-01   -0.62638E-03  1888   0.251E-01    0.542E+00
DAV:  46    -0.480762251531E+03   -0.30870E-01   -0.42725E-03  2208   0.792E-01    0.567E+00
DAV:  47    -0.480836252344E+03   -0.74001E-01   -0.25729E-02  2128   0.205E+00    0.613E+00
DAV:  48    -0.480851175088E+03   -0.14923E-01   -0.60983E-03  2040   0.346E-01    0.628E+00
DAV:  49    -0.480806425330E+03    0.44750E-01   -0.93102E-03  2160   0.130E+00    0.604E+00
DAV:  50    -0.480788652787E+03    0.17773E-01   -0.34204E-03  2048   0.512E-01    0.589E+00
DAV:  51    -0.480780029379E+03    0.86234E-02   -0.12682E-02  1904   0.916E-01    0.573E+00
DAV:  52    -0.480739146692E+03    0.40883E-01   -0.91027E-03  2048   0.104E+00    0.543E+00
DAV:  53    -0.480637840349E+03    0.10131E+00   -0.59341E-02  1984   0.200E+00    0.402E+00
DAV:  54    -0.480616564760E+03    0.21276E-01   -0.19733E-02  1848   0.385E-01    0.336E+00
DAV:  55    -0.480581248884E+03    0.35316E-01   -0.18696E-02  2088   0.140E+00    0.261E+00
DAV:  56    -0.480581803784E+03   -0.55490E-03   -0.16865E-02  2080   0.113E+00    0.213E+00
DAV:  57    -0.480560542365E+03    0.21261E-01   -0.20183E-02  2024   0.137E+00    0.144E+00
DAV:  58    -0.480550356949E+03    0.10185E-01   -0.20958E-02  2032   0.114E+00    0.737E-01
DAV:  59    -0.480550842566E+03   -0.48562E-03   -0.34488E-03  1848   0.161E-01    0.633E-01
DAV:  60    -0.480550326186E+03    0.51638E-03   -0.73174E-04  2072   0.258E-01    0.519E-01
DAV:  61    -0.480549768067E+03    0.55812E-03   -0.10362E-03  1952   0.140E-01    0.318E-01
DAV:  62    -0.480549471328E+03    0.29674E-03   -0.17310E-03  2016   0.447E-01    0.161E-01
DAV:  63    -0.480549651888E+03   -0.18056E-03   -0.89039E-04  2208   0.220E-01    0.117E-01
DAV:  64    -0.480549798384E+03   -0.14650E-03   -0.17664E-04  1656   0.799E-02    0.131E-01
DAV:  65    -0.480549878078E+03   -0.79694E-04   -0.38777E-05  1248   0.208E-02    0.144E-01
DAV:  66    -0.480549736882E+03    0.14120E-03   -0.10496E-04  1368   0.113E-01    0.756E-02
DAV:  67    -0.480549711395E+03    0.25487E-04   -0.79310E-05  1400   0.870E-02    0.398E-02
DAV:  68    -0.480549721580E+03   -0.10186E-04   -0.37650E-05  1224   0.543E-02    0.175E-02
DAV:  69    -0.480549748980E+03   -0.27400E-04   -0.17146E-05  1144   0.156E-02    0.304E-02
DAV:  70    -0.480549752367E+03   -0.33875E-05   -0.64710E-06  1016   0.296E-02
   1 F= -.48054975E+03 E0= -.48050614E+03  d E =-.480550E+03
       N       E                     dE             d eps       ncg     rms          rms(c)
DAV:   1    -0.480860066388E+03   -0.31032E+00   -0.20649E+01  1408   0.867E+00    0.198E+00
DAV:   2    -0.481284592846E+03   -0.42453E+00   -0.83009E-01  1992   0.481E+00    0.632E+00
DAV:   3    -0.480890350198E+03    0.39424E+00   -0.52438E-01  1904   0.344E+00    0.236E+00
DAV:   4    -0.480888953812E+03    0.13964E-02   -0.28449E-02  1888   0.654E-01    0.240E+00
DAV:   5    -0.480891600677E+03   -0.26469E-02   -0.93378E-02  2232   0.213E+00    0.154E+00
DAV:   6    -0.480878363194E+03    0.13237E-01   -0.41073E-02  1968   0.198E+00    0.745E-01
DAV:   7    -0.480876865057E+03    0.14981E-02   -0.67281E-03  1984   0.689E-01    0.773E-01
DAV:   8    -0.480874995733E+03    0.18693E-02   -0.19567E-03  1960   0.356E-01    0.513E-01
DAV:   9    -0.480874378746E+03    0.61699E-03   -0.57583E-04  1904   0.935E-02    0.278E-01
DAV:  10    -0.480874347815E+03    0.30931E-04   -0.20328E-04  1904   0.582E-02    0.145E-01
DAV:  11    -0.480874366790E+03   -0.18975E-04   -0.65925E-05  1576   0.438E-02    0.358E-02
DAV:  12    -0.480874411754E+03   -0.44964E-04   -0.25504E-05  1200   0.169E-02    0.251E-02
DAV:  13    -0.480874422263E+03   -0.10509E-04   -0.46549E-06   960   0.128E-02    0.336E-03
DAV:  14    -0.480874433561E+03   -0.11298E-04   -0.26224E-06   920   0.675E-03    0.718E-03
DAV:  15    -0.480874440940E+03   -0.73787E-05   -0.18846E-06   984   0.643E-03
   2 F= -.48087444E+03 E0= -.48083328E+03  d E =-.324689E+00
       N       E                     dE             d eps       ncg     rms          rms(c)
DAV:   1    -0.480950508362E+03   -0.76075E-01   -0.18947E+02  1408   0.264E+01    0.439E+00
DAV:   2    -0.482395409293E+03   -0.14449E+01   -0.54958E+00  1904   0.881E+00    0.113E+01
DAV:   3    -0.481283534455E+03    0.11119E+01   -0.48154E+00  1856   0.555E+00    0.355E+00
DAV:   4    -0.481264329173E+03    0.19205E-01   -0.14009E-01  1600   0.117E+00    0.339E+00
DAV:   5    -0.481254406531E+03    0.99226E-02   -0.96336E-02  1912   0.151E+00    0.160E+00
DAV:   6    -0.481249309185E+03    0.50973E-02   -0.91300E-02  2024   0.250E+00    0.102E+00
DAV:   7    -0.481242026228E+03    0.72830E-02   -0.33816E-02  2000   0.183E+00    0.678E-01
DAV:   8    -0.481240276617E+03    0.17496E-02   -0.63272E-03  2016   0.592E-01    0.613E-01
DAV:   9    -0.481238218870E+03    0.20577E-02   -0.26075E-03  1896   0.223E-01    0.149E-01
DAV:  10    -0.481238476451E+03   -0.25758E-03   -0.66132E-04  1896   0.101E-01    0.124E-01
DAV:  11    -0.481238508865E+03   -0.32415E-04   -0.55845E-05  1408   0.346E-02    0.633E-02
DAV:  12    -0.481238589464E+03   -0.80599E-04   -0.38989E-05  1248   0.205E-02    0.186E-02
DAV:  13    -0.481238634685E+03   -0.45221E-04   -0.12402E-05  1048   0.144E-02    0.493E-03
DAV:  14    -0.481238672189E+03   -0.37504E-04   -0.61263E-06  1016   0.904E-03    0.429E-03
DAV:  15    -0.481238698598E+03   -0.26409E-04   -0.32529E-06   992   0.693E-03    0.214E-03
DAV:  16    -0.481238722581E+03   -0.23984E-04   -0.31547E-06   968   0.603E-03    0.138E-03
DAV:  17    -0.481238736575E+03   -0.13994E-04   -0.21892E-06   992   0.457E-03    0.843E-04
DAV:  18    -0.481238741686E+03   -0.51104E-05   -0.96086E-07   976   0.352E-03
   3 F= -.48123874E+03 E0= -.48120667E+03  d E =-.688989E+00
       N       E                     dE             d eps       ncg     rms          rms(c)
DAV:   1    -0.481420383648E+03   -0.18165E+00   -0.43380E+01  1424   0.134E+01    0.156E+00
DAV:   2    -0.481566065550E+03   -0.14568E+00   -0.90913E-01  1968   0.318E+00    0.392E+00
DAV:   3    -0.481495614895E+03    0.70451E-01   -0.24734E-01  1864   0.152E+00    0.120E+00
DAV:   4    -0.481487130704E+03    0.84842E-02   -0.30453E-02  1872   0.121E+00    0.125E+00
DAV:   5    -0.481485034998E+03    0.20957E-02   -0.44055E-02  2032   0.196E+00    0.713E-01
DAV:   6    -0.481479195287E+03    0.58397E-02   -0.21740E-02  2080   0.136E+00    0.186E-01
DAV:   7    -0.481479248387E+03   -0.53100E-04   -0.21064E-03  1848   0.150E-01    0.102E-01
DAV:   8    -0.481479206746E+03    0.41641E-04   -0.44795E-04  1840   0.772E-02    0.624E-02
DAV:   9    -0.481479213776E+03   -0.70300E-05   -0.11215E-04  1728   0.326E-02    0.336E-02
DAV:  10    -0.481479239955E+03   -0.26180E-04   -0.17928E-05  1000   0.146E-02    0.135E-02
DAV:  11    -0.481479265670E+03   -0.25714E-04   -0.59080E-06   984   0.106E-02    0.540E-03
DAV:  12    -0.481479286692E+03   -0.21023E-04   -0.32998E-06   944   0.901E-03    0.278E-03
DAV:  13    -0.481479313621E+03   -0.26928E-04   -0.34966E-06   992   0.587E-03    0.157E-03
DAV:  14    -0.481479328888E+03   -0.15268E-04   -0.19354E-06   968   0.501E-03    0.127E-03
DAV:  15    -0.481479339727E+03   -0.10838E-04   -0.18142E-06  1016   0.423E-03    0.715E-04
DAV:  16    -0.481479345473E+03   -0.57468E-05   -0.95506E-07   984   0.342E-03
   4 F= -.48147935E+03 E0= -.48144744E+03  d E =-.240604E+00
       N       E                     dE             d eps       ncg     rms          rms(c)
DAV:   1    -0.481497762829E+03   -0.18423E-01   -0.19997E+01  1432   0.904E+00    0.103E+00
DAV:   2    -0.481566219299E+03   -0.68456E-01   -0.41444E-01  1968   0.224E+00    0.281E+00
DAV:   3    -0.481531924979E+03    0.34294E-01   -0.94334E-02  1856   0.111E+00    0.785E-01
DAV:   4    -0.481527602981E+03    0.43220E-02   -0.11312E-02  1696   0.404E-01    0.761E-01
DAV:   5    -0.481525015815E+03    0.25872E-02   -0.75157E-03  1904   0.365E-01    0.206E-01
DAV:   6    -0.481525005546E+03    0.10269E-04   -0.46320E-03  1960   0.593E-01    0.170E-01
DAV:   7    -0.481524728256E+03    0.27729E-03   -0.13007E-03  2136   0.344E-01    0.840E-02
DAV:   8    -0.481524697892E+03    0.30364E-04   -0.12049E-04  1808   0.591E-02    0.515E-02
DAV:   9    -0.481524700339E+03   -0.24471E-05   -0.66178E-05  1560   0.262E-02
   5 F= -.48152470E+03 E0= -.48149247E+03  d E =-.285959E+00
       N       E                     dE             d eps       ncg     rms          rms(c)
DAV:   1    -0.481647754208E+03   -0.12306E+00   -0.48149E+01  1424   0.134E+01    0.146E+00
DAV:   2    -0.481722528143E+03   -0.74774E-01   -0.90110E-01  1864   0.269E+00    0.105E+00
DAV:   3    -0.481735703254E+03   -0.13175E-01   -0.64943E-02  1896   0.100E+00    0.160E+00
DAV:   4    -0.481724187107E+03    0.11516E-01   -0.31325E-02  1872   0.879E-01    0.134E+00
DAV:   5    -0.481718442537E+03    0.57446E-02   -0.34621E-02  2008   0.169E+00    0.576E-01
DAV:   6    -0.481714591139E+03    0.38514E-02   -0.12453E-02  2000   0.107E+00    0.159E-01
DAV:   7    -0.481714512099E+03    0.79040E-04   -0.10485E-03  1856   0.982E-02    0.698E-02
DAV:   8    -0.481714527927E+03   -0.15829E-04   -0.28118E-04  1648   0.455E-02    0.445E-02
DAV:   9    -0.481714560695E+03   -0.32768E-04   -0.40556E-05  1288   0.283E-02    0.256E-02
DAV:  10    -0.481714601180E+03   -0.40485E-04   -0.16439E-05  1040   0.212E-02    0.184E-02
DAV:  11    -0.481714627821E+03   -0.26641E-04   -0.67218E-06   992   0.122E-02    0.644E-03
DAV:  12    -0.481714653469E+03   -0.25648E-04   -0.39835E-06   960   0.842E-03    0.396E-03
DAV:  13    -0.481714685845E+03   -0.32376E-04   -0.51611E-06  1008   0.736E-03    0.188E-03
DAV:  14    -0.481714703288E+03   -0.17443E-04   -0.28844E-06   984   0.563E-03    0.990E-04
DAV:  15    -0.481714712567E+03   -0.92782E-05   -0.21612E-06   968   0.469E-03
   6 F= -.48171471E+03 E0= -.48168684E+03  d E =-.190012E+00
       N       E                     dE             d eps       ncg     rms          rms(c)
DAV:   1    -0.481713701455E+03    0.10018E-02   -0.42600E+01  1432   0.126E+01    0.133E+00
DAV:   2    -0.481778670348E+03   -0.64969E-01   -0.78996E-01  1872   0.245E+00    0.857E-01
DAV:   3    -0.481780960601E+03   -0.22903E-02   -0.41251E-02  1936   0.783E-01    0.104E+00
DAV:   4    -0.481781590797E+03   -0.63020E-03   -0.21544E-02  1800   0.623E-01    0.131E+00
DAV:   5    -0.481775390210E+03    0.62006E-02   -0.22306E-02  1912   0.127E+00    0.509E-01
DAV:   6    -0.481772402915E+03    0.29873E-02   -0.10732E-02  2008   0.102E+00    0.150E-01
DAV:   7    -0.481772269829E+03    0.13309E-03   -0.89137E-04  1984   0.191E-01    0.554E-02
DAV:   8    -0.481772283571E+03   -0.13741E-04   -0.24032E-04  1768   0.619E-02    0.317E-02
DAV:   9    -0.481772317338E+03   -0.33767E-04   -0.36354E-05  1328   0.209E-02    0.128E-02
DAV:  10    -0.481772357035E+03   -0.39697E-04   -0.76009E-06   960   0.122E-02    0.543E-03
DAV:  11    -0.481772395981E+03   -0.38946E-04   -0.62268E-06  1000   0.106E-02    0.248E-03
DAV:  12    -0.481772424260E+03   -0.28279E-04   -0.32913E-06   960   0.809E-03    0.179E-03
DAV:  13    -0.481772453477E+03   -0.29217E-04   -0.46870E-06  1000   0.697E-03    0.132E-03
DAV:  14    -0.481772468252E+03   -0.14774E-04   -0.27666E-06   968   0.568E-03    0.795E-04
DAV:  15    -0.481772474734E+03   -0.64818E-05   -0.17599E-06   976   0.418E-03
   7 F= -.48177247E+03 E0= -.48174806E+03  d E =-.247774E+00
       N       E                     dE             d eps       ncg     rms          rms(c)
DAV:   1    -0.481878826702E+03   -0.10636E+00   -0.51794E+01  1464   0.133E+01    0.138E+00
DAV:   2    -0.482013957147E+03   -0.13513E+00   -0.93194E-01  1896   0.289E+00    0.353E+00
DAV:   3    -0.481960961975E+03    0.52995E-01   -0.17562E-01  1704   0.118E+00    0.114E+00
DAV:   4    -0.481950642561E+03    0.10319E-01   -0.28730E-02  1968   0.132E+00    0.955E-01
DAV:   5    -0.481946833859E+03    0.38087E-02   -0.29191E-02  2024   0.159E+00    0.528E-01
DAV:   6    -0.481945219150E+03    0.16147E-02   -0.92458E-03  1976   0.802E-01    0.232E-01
DAV:   7    -0.481944935238E+03    0.28391E-03   -0.14522E-03  1848   0.121E-01    0.809E-02
DAV:   8    -0.481944921492E+03    0.13746E-04   -0.32827E-04  1904   0.683E-02    0.358E-02
DAV:   9    -0.481944937749E+03   -0.16257E-04   -0.39922E-05  1240   0.210E-02    0.126E-02
DAV:  10    -0.481944959333E+03   -0.21584E-04   -0.95327E-06   920   0.116E-02    0.480E-03
DAV:  11    -0.481944972905E+03   -0.13572E-04   -0.32989E-06   976   0.902E-03    0.232E-03
DAV:  12    -0.481944985109E+03   -0.12204E-04   -0.18612E-06   920   0.553E-03    0.134E-03
DAV:  13    -0.481944997393E+03   -0.12284E-04   -0.20493E-06  1008   0.462E-03    0.881E-04
DAV:  14    -0.481945003662E+03   -0.62689E-05   -0.96764E-07   960   0.338E-03
   8 F= -.48194500E+03 E0= -.48192508E+03  d E =-.172529E+00
       N       E                     dE             d eps       ncg     rms          rms(c)
DAV:   1    -0.481770239761E+03    0.17476E+00   -0.18590E+02  1440   0.253E+01    0.252E+00
DAV:   2    -0.482192847933E+03   -0.42261E+00   -0.40474E+00  1896   0.632E+00    0.455E+00
DAV:   3    -0.482140772859E+03    0.52075E-01   -0.58815E-01  1784   0.217E+00    0.233E+00
DAV:   4    -0.482088140987E+03    0.52632E-01   -0.13400E-01  2008   0.311E+00    0.160E+00
DAV:   5    -0.482070179510E+03    0.17961E-01   -0.79386E-02  2056   0.261E+00    0.848E-01
DAV:   6    -0.482072463606E+03   -0.22841E-02   -0.30149E-02  1984   0.100E+00    0.927E-01
DAV:   7    -0.482067480378E+03    0.49832E-02   -0.70241E-03  1784   0.381E-01    0.128E-01
DAV:   8    -0.482067264232E+03    0.21615E-03   -0.14132E-03  1816   0.140E-01    0.650E-02
DAV:   9    -0.482067313313E+03   -0.49081E-04   -0.17165E-04  1760   0.419E-02    0.315E-02
DAV:  10    -0.482067366838E+03   -0.53525E-04   -0.40655E-05  1336   0.216E-02    0.118E-02
DAV:  11    -0.482067404383E+03   -0.37545E-04   -0.58509E-06   960   0.107E-02    0.477E-03
DAV:  12    -0.482067440424E+03   -0.36042E-04   -0.46896E-06  1040   0.817E-03    0.248E-03
DAV:  13    -0.482067478279E+03   -0.37855E-04   -0.43144E-06   976   0.659E-03    0.160E-03
DAV:  14    -0.482067497180E+03   -0.18901E-04   -0.23881E-06   984   0.504E-03    0.111E-03
DAV:  15    -0.482067514381E+03   -0.17202E-04   -0.32166E-06   992   0.468E-03    0.797E-04
DAV:  16    -0.482067521077E+03   -0.66960E-05   -0.13663E-06   984   0.390E-03
   9 F= -.48206752E+03 E0= -.48205488E+03  d E =-.295046E+00
       N       E                     dE             d eps       ncg     rms          rms(c)
DAV:   1    -0.482077187445E+03   -0.96731E-02   -0.95443E+01  1408   0.180E+01    0.168E+00
DAV:   2    -0.482235481692E+03   -0.15829E+00   -0.18520E+00  1992   0.466E+00    0.137E+00
DAV:   3    -0.482224332567E+03    0.11149E-01   -0.19244E-01  2216   0.387E+00    0.125E+00
DAV:   4    -0.482221441456E+03    0.28911E-02   -0.37146E-02  2096   0.131E+00    0.106E+00
DAV:   5    -0.482214557697E+03    0.68838E-02   -0.20490E-02  1856   0.736E-01    0.744E-01
DAV:   6    -0.482211284344E+03    0.32734E-02   -0.11887E-02  1888   0.643E-01    0.206E-01
DAV:   7    -0.482211040297E+03    0.24405E-03   -0.15563E-03  1920   0.234E-01    0.128E-01
DAV:   8    -0.482210931334E+03    0.10896E-03   -0.30273E-04  1648   0.564E-02    0.407E-02
DAV:   9    -0.482210957131E+03   -0.25797E-04   -0.74017E-05  1248   0.241E-02    0.216E-02
DAV:  10    -0.482210981347E+03   -0.24216E-04   -0.11895E-05  1008   0.133E-02    0.619E-03
DAV:  11    -0.482211009827E+03   -0.28480E-04   -0.49402E-06   952   0.899E-03    0.453E-03
DAV:  12    -0.482211029609E+03   -0.19782E-04   -0.27990E-06   944   0.646E-03    0.129E-03
DAV:  13    -0.482211050495E+03   -0.20887E-04   -0.31730E-06   960   0.479E-03    0.880E-04
DAV:  14    -0.482211061450E+03   -0.10955E-04   -0.17130E-06   976   0.409E-03    0.724E-04
DAV:  15    -0.482211066733E+03   -0.52829E-05   -0.11563E-06   968   0.305E-03
  10 F= -.48221107E+03 E0= -.48219831E+03  d E =-.143546E+00
       N       E                     dE             d eps       ncg     rms          rms(c)
DAV:   1    -0.482204209338E+03    0.68521E-02   -0.12296E+01  1408   0.644E+00    0.542E-01
DAV:   2    -0.482223297930E+03   -0.19089E-01   -0.22265E-01  1968   0.135E+00    0.356E-01
DAV:   3    -0.482222626828E+03    0.67110E-03   -0.97316E-03  2104   0.692E-01    0.328E-01
DAV:   4    -0.482223092689E+03   -0.46586E-03   -0.43325E-03  2056   0.517E-01    0.472E-01
DAV:   5    -0.482222127956E+03    0.96473E-03   -0.27339E-03  1880   0.246E-01    0.227E-01
DAV:   6    -0.482221626853E+03    0.50110E-03   -0.23040E-03  1936   0.394E-01    0.748E-02
DAV:   7    -0.482221606687E+03    0.20165E-04   -0.22189E-04  1800   0.618E-02    0.249E-02
DAV:   8    -0.482221608550E+03   -0.18623E-05   -0.30167E-05  1136   0.258E-02
  11 F= -.48222161E+03 E0= -.48220859E+03  d E =-.154087E+00
       N       E                     dE             d eps       ncg     rms          rms(c)
DAV:   1    -0.482245380434E+03   -0.23774E-01   -0.68359E+01  1408   0.152E+01    0.126E+00
DAV:   2    -0.482354556602E+03   -0.10918E+00   -0.11405E+00  1976   0.324E+00    0.140E+00
DAV:   3    -0.482351432227E+03    0.31244E-02   -0.90135E-02  2208   0.204E+00    0.162E+00
DAV:   4    -0.482336186190E+03    0.15246E-01   -0.30192E-02  1712   0.604E-01    0.633E-01
DAV:   5    -0.482332213300E+03    0.39729E-02   -0.17561E-02  2008   0.112E+00    0.366E-01
DAV:   6    -0.482331173449E+03    0.10399E-02   -0.63983E-03  2024   0.601E-01    0.168E-01
DAV:   7    -0.482331115808E+03    0.57641E-04   -0.94768E-04  1952   0.132E-01    0.492E-02
DAV:   8    -0.482331127744E+03   -0.11937E-04   -0.14987E-04  1664   0.390E-02    0.252E-02
DAV:   9    -0.482331153226E+03   -0.25482E-04   -0.25345E-05  1064   0.157E-02    0.109E-02
DAV:  10    -0.482331173188E+03   -0.19962E-04   -0.59275E-06   952   0.101E-02    0.390E-03
DAV:  11    -0.482331191077E+03   -0.17889E-04   -0.32033E-06   936   0.675E-03    0.198E-03
DAV:  12    -0.482331208433E+03   -0.17356E-04   -0.24136E-06   968   0.536E-03    0.109E-03
DAV:  13    -0.482331221393E+03   -0.12960E-04   -0.22522E-06   952   0.440E-03    0.777E-04
DAV:  14    -0.482331227198E+03   -0.58052E-05   -0.13219E-06   976   0.374E-03
  12 F= -.48233123E+03 E0= -.48232134E+03  d E =-.109619E+00
       N       E                     dE             d eps       ncg     rms          rms(c)
DAV:   1    -0.482317480225E+03    0.13741E-01   -0.24993E+01  1408   0.920E+00    0.715E-01
DAV:   2    -0.482355328324E+03   -0.37848E-01   -0.40357E-01  1864   0.174E+00    0.733E-01
DAV:   3    -0.482356620118E+03   -0.12918E-02   -0.28532E-02  1960   0.603E-01    0.926E-01
DAV:   4    -0.482350308693E+03    0.63114E-02   -0.91400E-03  1872   0.467E-01    0.285E-01
DAV:   5    -0.482349939131E+03    0.36956E-03   -0.42709E-03  2048   0.472E-01    0.256E-01
DAV:   6    -0.482349586136E+03    0.35300E-03   -0.33191E-03  2080   0.525E-01    0.134E-01
DAV:   7    -0.482349430653E+03    0.15548E-03   -0.65907E-04  1872   0.213E-01    0.332E-02
DAV:   8    -0.482349447618E+03   -0.16965E-04   -0.90432E-05  1336   0.216E-02    0.151E-02
DAV:   9    -0.482349458640E+03   -0.11021E-04   -0.13313E-05  1040   0.113E-02    0.566E-03
DAV:  10    -0.482349466241E+03   -0.76016E-05   -0.24830E-06   952   0.704E-03
  13 F= -.48234947E+03 E0= -.48234118E+03  d E =-.127858E+00
       N       E                     dE             d eps       ncg     rms          rms(c)
DAV:   1    -0.482351916960E+03   -0.24583E-02   -0.77321E+01  1440   0.160E+01    0.117E+00
DAV:   2    -0.482472260660E+03   -0.12034E+00   -0.13156E+00  1968   0.365E+00    0.110E+00
DAV:   3    -0.482466013063E+03    0.62476E-02   -0.88613E-02  2224   0.247E+00    0.105E+00
DAV:   4    -0.482460239775E+03    0.57733E-02   -0.18088E-02  1944   0.590E-01    0.675E-01
DAV:   5    -0.482456911128E+03    0.33286E-02   -0.11911E-02  2056   0.808E-01    0.427E-01
DAV:   6    -0.482455419835E+03    0.14913E-02   -0.78049E-03  2000   0.581E-01    0.111E-01
DAV:   7    -0.482455508066E+03   -0.88231E-04   -0.86751E-04  1928   0.124E-01    0.596E-02
DAV:   8    -0.482455495243E+03    0.12822E-04   -0.15099E-04  1584   0.379E-02    0.236E-02
DAV:   9    -0.482455516409E+03   -0.21166E-04   -0.27368E-05  1168   0.177E-02    0.996E-03
DAV:  10    -0.482455531353E+03   -0.14944E-04   -0.51325E-06   960   0.958E-03    0.440E-03
DAV:  11    -0.482455548696E+03   -0.17343E-04   -0.34351E-06   936   0.715E-03    0.251E-03
DAV:  12    -0.482455560336E+03   -0.11640E-04   -0.20563E-06   976   0.661E-03    0.124E-03
DAV:  13    -0.482455571092E+03   -0.10756E-04   -0.17370E-06   944   0.485E-03    0.834E-04
DAV:  14    -0.482455578379E+03   -0.72871E-05   -0.15517E-06   960   0.398E-03
  14 F= -.48245558E+03 E0= -.48244940E+03  d E =-.106112E+00
       N       E                     dE             d eps       ncg     rms          rms(c)
DAV:   1    -0.482420915384E+03    0.34656E-01   -0.47480E+01  1432   0.125E+01    0.885E-01
DAV:   2    -0.482488927544E+03   -0.68012E-01   -0.74459E-01  1960   0.254E+00    0.774E-01
DAV:   3    -0.482487118233E+03    0.18093E-02   -0.43530E-02  2208   0.159E+00    0.822E-01
DAV:   4    -0.482482580332E+03    0.45379E-02   -0.99604E-03  1920   0.476E-01    0.463E-01
DAV:   5    -0.482481469532E+03    0.11108E-02   -0.77785E-03  2056   0.676E-01    0.339E-01
DAV:   6    -0.482480422935E+03    0.10466E-02   -0.50136E-03  2032   0.532E-01    0.879E-02
DAV:   7    -0.482480479219E+03   -0.56284E-04   -0.56931E-04  1928   0.103E-01    0.445E-02
DAV:   8    -0.482480472504E+03    0.67150E-05   -0.98286E-05  1432   0.294E-02
  15 F= -.48248047E+03 E0= -.48247578E+03  d E =-.131006E+00
       N       E                     dE             d eps       ncg     rms          rms(c)
DAV:   1    -0.482488996158E+03   -0.85169E-02   -0.58873E+01  1440   0.137E+01    0.879E-01
DAV:   2    -0.482584387231E+03   -0.95391E-01   -0.10192E+00  2016   0.337E+00    0.953E-01
DAV:   3    -0.482576880947E+03    0.75063E-02   -0.55924E-02  2232   0.191E+00    0.662E-01
DAV:   4    -0.482574697819E+03    0.21831E-02   -0.91037E-03  1984   0.429E-01    0.547E-01
DAV:   5    -0.482572860996E+03    0.18368E-02   -0.70247E-03  1984   0.515E-01    0.385E-01
DAV:   6    -0.482571473967E+03    0.13870E-02   -0.64471E-03  1952   0.511E-01    0.848E-02
DAV:   7    -0.482571555102E+03   -0.81135E-04   -0.73852E-04  1904   0.903E-02    0.521E-02
DAV:   8    -0.482571539181E+03    0.15921E-04   -0.89785E-05  1464   0.304E-02    0.233E-02
DAV:   9    -0.482571552737E+03   -0.13556E-04   -0.27480E-05  1144   0.175E-02    0.102E-02
DAV:  10    -0.482571562465E+03   -0.97276E-05   -0.49484E-06   960   0.100E-02
  16 F= -.48257156E+03 E0= -.48256718E+03  d E =-.910900E-01
       N       E                     dE             d eps       ncg     rms          rms(c)
DAV:   1    -0.482479520811E+03    0.92032E-01   -0.91996E+01  1440   0.171E+01    0.111E+00
DAV:   2    -0.482634934174E+03   -0.15541E+00   -0.16566E+00  2032   0.420E+00    0.117E+00
DAV:   3    -0.482623443273E+03    0.11491E-01   -0.85759E-02  2192   0.242E+00    0.826E-01
DAV:   4    -0.482620121499E+03    0.33218E-02   -0.14859E-02  1984   0.570E-01    0.675E-01
DAV:   5    -0.482617363171E+03    0.27583E-02   -0.10646E-02  1984   0.640E-01    0.484E-01
DAV:   6    -0.482615087931E+03    0.22752E-02   -0.99608E-03  1960   0.653E-01    0.112E-01
DAV:   7    -0.482615195117E+03   -0.10719E-03   -0.12319E-03  1896   0.121E-01    0.654E-02
DAV:   8    -0.482615171927E+03    0.23190E-04   -0.14541E-04  1560   0.389E-02    0.291E-02
DAV:   9    -0.482615191371E+03   -0.19444E-04   -0.39083E-05  1192   0.196E-02    0.127E-02
DAV:  10    -0.482615206050E+03   -0.14679E-04   -0.58982E-06   968   0.110E-02    0.458E-03
DAV:  11    -0.482615223858E+03   -0.17808E-04   -0.44577E-06   952   0.683E-03    0.205E-03
DAV:  12    -0.482615237937E+03   -0.14079E-04   -0.17849E-06   968   0.591E-03    0.105E-03
DAV:  13    -0.482615252168E+03   -0.14231E-04   -0.17757E-06   968   0.397E-03    0.746E-04
DAV:  14    -0.482615261964E+03   -0.97957E-05   -0.14622E-06   960   0.414E-03
  17 F= -.48261526E+03 E0= -.48261121E+03  d E =-.134789E+00
       N       E                     dE             d eps       ncg     rms          rms(c)
DAV:   1    -0.482619267603E+03   -0.40154E-02   -0.57186E+01  1432   0.134E+01    0.872E-01
DAV:   2    -0.482711053961E+03   -0.91786E-01   -0.98677E-01  1960   0.307E+00    0.824E-01
DAV:   3    -0.482705340447E+03    0.57135E-02   -0.49679E-02  2232   0.175E+00    0.580E-01
DAV:   4    -0.482703631698E+03    0.17087E-02   -0.99909E-03  2088   0.711E-01    0.534E-01
DAV:   5    -0.482702638676E+03    0.99302E-03   -0.71972E-03  1760   0.362E-01    0.453E-01
DAV:   6    -0.482700597024E+03    0.20417E-02   -0.66463E-03  1936   0.542E-01    0.976E-02
DAV:   7    -0.482700621200E+03   -0.24176E-04   -0.74609E-04  1824   0.974E-02    0.546E-02
DAV:   8    -0.482700600430E+03    0.20770E-04   -0.10248E-04  1680   0.335E-02    0.254E-02
DAV:   9    -0.482700607759E+03   -0.73290E-05   -0.24897E-05  1096   0.150E-02
  18 F= -.48270061E+03 E0= -.48269729E+03  d E =-.853458E-01
       N       E                     dE             d eps       ncg     rms          rms(c)
DAV:   1    -0.482685745820E+03    0.14855E-01   -0.24788E+01  1424   0.883E+00    0.566E-01
DAV:   2    -0.482722649531E+03   -0.36904E-01   -0.39853E-01  1952   0.195E+00    0.526E-01
DAV:   3    -0.482720374269E+03    0.22753E-02   -0.19964E-02  2216   0.111E+00    0.383E-01
DAV:   4    -0.482719587973E+03    0.78630E-03   -0.43202E-03  2096   0.461E-01    0.348E-01
DAV:   5    -0.482719163508E+03    0.42447E-03   -0.32111E-03  1824   0.258E-01    0.288E-01
DAV:   6    -0.482718316266E+03    0.84724E-03   -0.27679E-03  1936   0.366E-01    0.590E-02
DAV:   7    -0.482718341289E+03   -0.25023E-04   -0.32362E-04  1792   0.626E-02    0.353E-02
DAV:   8    -0.482718336133E+03    0.51558E-05   -0.41784E-05  1256   0.220E-02
  19 F= -.48271834E+03 E0= -.48271547E+03  d E =-.103074E+00
       N       E                     dE             d eps       ncg     rms          rms(c)
DAV:   1    -0.482717397534E+03    0.94375E-03   -0.66418E+01  1408   0.144E+01    0.939E-01
DAV:   2    -0.482817230265E+03   -0.99833E-01   -0.10479E+00  1928   0.292E+00    0.104E+00
DAV:   3    -0.482811310240E+03    0.59200E-02   -0.59266E-02  2216   0.166E+00    0.831E-01
DAV:   4    -0.482805779749E+03    0.55305E-02   -0.11167E-02  1712   0.372E-01    0.484E-01
DAV:   5    -0.482804530003E+03    0.12497E-02   -0.99115E-03  2032   0.813E-01    0.373E-01
DAV:   6    -0.482803035874E+03    0.14941E-02   -0.74087E-03  2072   0.684E-01    0.103E-01
DAV:   7    -0.482803076706E+03   -0.40832E-04   -0.93764E-04  1960   0.130E-01    0.487E-02
DAV:   8    -0.482803067537E+03    0.91689E-05   -0.12802E-04  1600   0.311E-02    0.261E-02
DAV:   9    -0.482803080867E+03   -0.13329E-04   -0.23570E-05  1064   0.144E-02    0.896E-03
DAV:  10    -0.482803092542E+03   -0.11676E-04   -0.50401E-06   952   0.101E-02    0.332E-03
DAV:  11    -0.482803104571E+03   -0.12028E-04   -0.32073E-06   936   0.668E-03    0.186E-03
DAV:  12    -0.482803116978E+03   -0.12407E-04   -0.20087E-06   944   0.652E-03    0.125E-03
DAV:  13    -0.482803128099E+03   -0.11121E-04   -0.17253E-06   952   0.492E-03    0.705E-04
DAV:  14    -0.482803133946E+03   -0.58471E-05   -0.14062E-06   960   0.371E-03
  20 F= -.48280313E+03 E0= -.48280001E+03  d E =-.847978E-01
       N       E                     dE             d eps       ncg     rms          rms(c)
DAV:   1    -0.482777933738E+03    0.25194E-01   -0.36292E+01  1416   0.107E+01    0.685E-01
DAV:   2    -0.482828420661E+03   -0.50487E-01   -0.53267E-01  1904   0.204E+00    0.736E-01
DAV:   3    -0.482826178184E+03    0.22425E-02   -0.32510E-02  2208   0.113E+00    0.622E-01
DAV:   4    -0.482822930800E+03    0.32474E-02   -0.61859E-03  1728   0.278E-01    0.346E-01
DAV:   5    -0.482822393839E+03    0.53696E-03   -0.56053E-03  2032   0.614E-01    0.276E-01
DAV:   6    -0.482821558107E+03    0.83573E-03   -0.40464E-03  2040   0.522E-01    0.737E-02
DAV:   7    -0.482821593088E+03   -0.34981E-04   -0.57900E-04  1936   0.938E-02    0.369E-02
DAV:   8    -0.482821586118E+03    0.69699E-05   -0.75066E-05  1288   0.255E-02
  21 F= -.48282159E+03 E0= -.48281825E+03  d E =-.103250E+00
       N       E                     dE             d eps       ncg     rms          rms(c)
DAV:   1    -0.482806562284E+03    0.15031E-01   -0.73190E+01  1408   0.152E+01    0.122E+00
DAV:   2    -0.482956974730E+03   -0.15041E+00   -0.12378E+00  1976   0.348E+00    0.219E+00
DAV:   3    -0.482899289782E+03    0.57685E-01   -0.12475E-01  2064   0.218E+00    0.651E-01
DAV:   4    -0.482895350348E+03    0.39394E-02   -0.18943E-02  1880   0.517E-01    0.468E-01
DAV:   5    -0.482894840230E+03    0.51012E-03   -0.14264E-02  2048   0.979E-01    0.407E-01
DAV:   6    -0.482892989985E+03    0.18502E-02   -0.79883E-03  2040   0.788E-01    0.125E-01
DAV:   7    -0.482893010486E+03   -0.20501E-04   -0.11378E-03  1928   0.105E-01    0.519E-02
DAV:   8    -0.482893012559E+03   -0.20725E-05   -0.16476E-04  1616   0.365E-02    0.265E-02
DAV:   9    -0.482893036600E+03   -0.24041E-04   -0.30415E-05  1112   0.168E-02    0.146E-02
DAV:  10    -0.482893052847E+03   -0.16247E-04   -0.67632E-06   976   0.122E-02    0.408E-03
DAV:  11    -0.482893067774E+03   -0.14928E-04   -0.28270E-06   976   0.843E-03    0.331E-03
DAV:  12    -0.482893082799E+03   -0.15024E-04   -0.23143E-06   920   0.775E-03    0.189E-03
DAV:  13    -0.482893094096E+03   -0.11297E-04   -0.20327E-06   976   0.541E-03    0.860E-04
DAV:  14    -0.482893102215E+03   -0.81185E-05   -0.17525E-06   968   0.448E-03
  22 F= -.48289310E+03 E0= -.48289004E+03  d E =-.715161E-01
       N       E                     dE             d eps       ncg     rms          rms(c)
DAV:   1    -0.482887297103E+03    0.57970E-02   -0.11152E+01  1408   0.592E+00    0.441E-01
DAV:   2    -0.482907391879E+03   -0.20095E-01   -0.16278E-01  1832   0.111E+00    0.853E-01
DAV:   3    -0.482900485283E+03    0.69066E-02   -0.16067E-02  2032   0.570E-01    0.290E-01
DAV:   4    -0.482899579812E+03    0.90547E-03   -0.22517E-03  1856   0.189E-01    0.165E-01
DAV:   5    -0.482899372122E+03    0.20769E-03   -0.14480E-03  1992   0.194E-01    0.112E-01
DAV:   6    -0.482899306024E+03    0.66098E-04   -0.62336E-04  1960   0.221E-01    0.505E-02
DAV:   7    -0.482899285729E+03    0.20295E-04   -0.15511E-04  1408   0.115E-01    0.206E-02
DAV:   8    -0.482899288184E+03   -0.24551E-05   -0.20262E-05  1080   0.234E-02
  23 F= -.48289929E+03 E0= -.48289631E+03  d E =-.777021E-01
       N       E                     dE             d eps       ncg     rms          rms(c)
DAV:   1    -0.482883403423E+03    0.15882E-01   -0.68815E+01  1408   0.148E+01    0.119E+00
DAV:   2    -0.483018788342E+03   -0.13538E+00   -0.11786E+00  1984   0.334E+00    0.204E+00
DAV:   3    -0.482973270555E+03    0.45518E-01   -0.10563E-01  2088   0.203E+00    0.703E-01
DAV:   4    -0.482969264421E+03    0.40061E-02   -0.17668E-02  1896   0.564E-01    0.511E-01
DAV:   5    -0.482967944075E+03    0.13203E-02   -0.13250E-02  2104   0.958E-01    0.369E-01
DAV:   6    -0.482966495904E+03    0.14482E-02   -0.72439E-03  2080   0.730E-01    0.127E-01
DAV:   7    -0.482966503182E+03   -0.72779E-05   -0.10568E-03  1976   0.102E-01    0.530E-02
DAV:   8    -0.482966503297E+03   -0.11564E-06   -0.13828E-04  1440   0.316E-02    0.230E-02
DAV:   9    -0.482966526584E+03   -0.23287E-04   -0.28234E-05  1072   0.152E-02    0.121E-02
DAV:  10    -0.482966540248E+03   -0.13665E-04   -0.49382E-06   960   0.110E-02    0.347E-03
DAV:  11    -0.482966555825E+03   -0.15577E-04   -0.29618E-06   952   0.640E-03    0.183E-03
DAV:  12    -0.482966568223E+03   -0.12398E-04   -0.18656E-06   960   0.559E-03    0.143E-03
DAV:  13    -0.482966580024E+03   -0.11801E-04   -0.17823E-06   944   0.382E-03    0.841E-04
DAV:  14    -0.482966587506E+03   -0.74826E-05   -0.13635E-06   984   0.405E-03
  24 F= -.48296659E+03 E0= -.48296294E+03  d E =-.672993E-01
       N       E                     dE             d eps       ncg     rms          rms(c)
DAV:   1    -0.482962293220E+03    0.42868E-02   -0.82619E+00  1408   0.511E+00    0.377E-01
DAV:   2    -0.482976859736E+03   -0.14567E-01   -0.12486E-01  1944   0.973E-01    0.700E-01
DAV:   3    -0.482972681503E+03    0.41782E-02   -0.10233E-02  1896   0.394E-01    0.274E-01
DAV:   4    -0.482971980065E+03    0.70144E-03   -0.18461E-03  1920   0.229E-01    0.158E-01
DAV:   5    -0.482971889998E+03    0.90067E-04   -0.15315E-03  2032   0.355E-01    0.138E-01
DAV:   6    -0.482971710841E+03    0.17916E-03   -0.10570E-03  2024   0.286E-01    0.474E-02
DAV:   7    -0.482971709467E+03    0.13744E-05   -0.13957E-04  1480   0.447E-02    0.178E-02
DAV:   8    -0.482971712769E+03   -0.33024E-05   -0.22489E-05  1024   0.134E-02
  25 F= -.48297171E+03 E0= -.48296777E+03  d E =-.724246E-01
       N       E                     dE             d eps       ncg     rms          rms(c)
DAV:   1    -0.482928534802E+03    0.43175E-01   -0.78332E+01  1408   0.158E+01    0.131E+00
DAV:   2    -0.483103998429E+03   -0.17546E+00   -0.14668E+00  1920   0.386E+00    0.238E+00
DAV:   3    -0.483039434540E+03    0.64564E-01   -0.13553E-01  2088   0.232E+00    0.726E-01
DAV:   4    -0.483035624188E+03    0.38104E-02   -0.22824E-02  1896   0.702E-01    0.584E-01
DAV:   5    -0.483033831748E+03    0.17924E-02   -0.15395E-02  2112   0.102E+00    0.398E-01
DAV:   6    -0.483032269808E+03    0.15619E-02   -0.85439E-03  2040   0.735E-01    0.132E-01
DAV:   7    -0.483032304021E+03   -0.34213E-04   -0.11843E-03  1920   0.107E-01    0.599E-02
DAV:   8    -0.483032307220E+03   -0.31989E-05   -0.16739E-04  1632   0.349E-02    0.247E-02
DAV:   9    -0.483032337314E+03   -0.30094E-04   -0.31702E-05  1112   0.157E-02    0.141E-02
DAV:  10    -0.483032359224E+03   -0.21910E-04   -0.60426E-06   976   0.114E-02    0.459E-03
DAV:  11    -0.483032384111E+03   -0.24887E-04   -0.35312E-06   920   0.839E-03    0.315E-03
DAV:  12    -0.483032402607E+03   -0.18496E-04   -0.24636E-06   952   0.771E-03    0.262E-03
DAV:  13    -0.483032417546E+03   -0.14939E-04   -0.21364E-06   968   0.523E-03    0.996E-04
DAV:  14    -0.483032427138E+03   -0.95926E-05   -0.18015E-06   968   0.465E-03
  26 F= -.48303243E+03 E0= -.48302752E+03  d E =-.607144E-01
       N       E                     dE             d eps       ncg     rms          rms(c)
DAV:   1    -0.483030411207E+03    0.20063E-02   -0.31553E+00  1408   0.317E+00    0.234E-01
DAV:   2    -0.483036403946E+03   -0.59927E-02   -0.50666E-02  1960   0.655E-01    0.466E-01
DAV:   3    -0.483034584229E+03    0.18197E-02   -0.37068E-03  1688   0.225E-01    0.175E-01
DAV:   4    -0.483034341099E+03    0.24313E-03   -0.82645E-04  1912   0.196E-01    0.110E-01
DAV:   5    -0.483034295334E+03    0.45765E-04   -0.68486E-04  1992   0.248E-01    0.905E-02
DAV:   6    -0.483034221421E+03    0.73913E-04   -0.46505E-04  1704   0.169E-01    0.248E-02
DAV:   7    -0.483034226053E+03   -0.46322E-05   -0.57588E-05  1200   0.206E-02
  27 F= -.48303423E+03 E0= -.48302912E+03  d E =-.625133E-01
       N       E                     dE             d eps       ncg     rms          rms(c)
DAV:   1    -0.482986941491E+03    0.47280E-01   -0.65959E+01  1416   0.144E+01    0.116E+00
DAV:   2    -0.483140199891E+03   -0.15326E+00   -0.13185E+00  1928   0.365E+00    0.219E+00
DAV:   3    -0.483090082246E+03    0.50118E-01   -0.11061E-01  2096   0.208E+00    0.709E-01
DAV:   4    -0.483086503043E+03    0.35792E-02   -0.18485E-02  1952   0.760E-01    0.558E-01
DAV:   5    -0.483084466168E+03    0.20369E-02   -0.11999E-02  2032   0.899E-01    0.364E-01
DAV:   6    -0.483083310872E+03    0.11553E-02   -0.74597E-03  2048   0.613E-01    0.140E-01
DAV:   7    -0.483083291618E+03    0.19254E-04   -0.92997E-04  1896   0.917E-02    0.491E-02
DAV:   8    -0.483083296076E+03   -0.44587E-05   -0.12896E-04  1408   0.299E-02    0.229E-02
DAV:   9    -0.483083318173E+03   -0.22097E-04   -0.31339E-05  1080   0.179E-02    0.142E-02
DAV:  10    -0.483083336024E+03   -0.17851E-04   -0.67071E-06   960   0.113E-02    0.369E-03
DAV:  11    -0.483083352573E+03   -0.16548E-04   -0.34428E-06   920   0.746E-03    0.215E-03
DAV:  12    -0.483083367027E+03   -0.14455E-04   -0.22594E-06   960   0.561E-03    0.137E-03
DAV:  13    -0.483083377790E+03   -0.10762E-04   -0.16458E-06   944   0.448E-03    0.111E-03
DAV:  14    -0.483083386166E+03   -0.83761E-05   -0.15616E-06   976   0.409E-03
  28 F= -.48308339E+03 E0= -.48307800E+03  d E =-.491601E-01
       N       E                     dE             d eps       ncg     rms          rms(c)
DAV:   1    -0.483082019706E+03    0.13581E-02   -0.23156E+00  1424   0.269E+00    0.190E-01
DAV:   2    -0.483086087556E+03   -0.40678E-02   -0.35128E-02  2000   0.531E-01    0.377E-01
DAV:   3    -0.483084976381E+03    0.11112E-02   -0.23501E-03  1728   0.180E-01    0.148E-01
DAV:   4    -0.483084800579E+03    0.17580E-03   -0.49606E-04  1920   0.135E-01    0.880E-02
DAV:   5    -0.483084783699E+03    0.16880E-04   -0.46773E-04  1936   0.196E-01    0.735E-02
DAV:   6    -0.483084733506E+03    0.50192E-04   -0.29575E-04  1384   0.145E-01    0.220E-02
DAV:   7    -0.483084737078E+03   -0.35716E-05   -0.47437E-05  1264   0.205E-02
  29 F= -.48308474E+03 E0= -.48307929E+03  d E =-.505110E-01
       N       E                     dE             d eps       ncg     rms          rms(c)
DAV:   1    -0.483051705440E+03    0.33028E-01   -0.48419E+01  1416   0.124E+01    0.886E-01
DAV:   2    -0.483140478275E+03   -0.88773E-01   -0.92226E-01  1912   0.287E+00    0.123E+00
DAV:   3    -0.483130806952E+03    0.96713E-02   -0.51425E-02  2200   0.155E+00    0.838E-01
DAV:   4    -0.483126241854E+03    0.45651E-02   -0.12244E-02  1864   0.524E-01    0.508E-01
DAV:   5    -0.483124289280E+03    0.19526E-02   -0.83271E-03  2032   0.742E-01    0.306E-01
DAV:   6    -0.483123414515E+03    0.87477E-03   -0.58646E-03  2032   0.478E-01    0.742E-02
DAV:   7    -0.483123476281E+03   -0.61766E-04   -0.55399E-04  1832   0.631E-02    0.395E-02
DAV:   8    -0.483123480686E+03   -0.44051E-05   -0.74796E-05  1344   0.242E-02
  30 F= -.48312348E+03 E0= -.48311636E+03  d E =-.387436E-01
       N       E                     dE             d eps       ncg     rms          rms(c)
DAV:   1    -0.483122586542E+03    0.88974E-03   -0.15832E+00  1416   0.223E+00    0.146E-01
DAV:   2    -0.483124801113E+03   -0.22146E-02   -0.23672E-02  2000   0.417E-01    0.159E-01
DAV:   3    -0.483124796300E+03    0.48134E-05   -0.10322E-03  2000   0.117E-01    0.161E-01
DAV:   4    -0.483124585950E+03    0.21035E-03   -0.28852E-04  1656   0.668E-02    0.720E-02
DAV:   5    -0.483124563381E+03    0.22569E-04   -0.20794E-04  1664   0.389E-02    0.320E-02
DAV:   6    -0.483124571196E+03   -0.78151E-05   -0.36503E-05  1216   0.199E-02
  31 F= -.48312457E+03 E0= -.48311710E+03  d E =-.398341E-01
       N       E                     dE             d eps       ncg     rms          rms(c)
DAV:   1    -0.483097239467E+03    0.27324E-01   -0.43555E+01  1440   0.119E+01    0.815E-01
DAV:   2    -0.483178692710E+03   -0.81453E-01   -0.86008E-01  1984   0.301E+00    0.106E+00
DAV:   3    -0.483171871123E+03    0.68216E-02   -0.45826E-02  2192   0.157E+00    0.794E-01
DAV:   4    -0.483168227583E+03    0.36435E-02   -0.98295E-03  1856   0.424E-01    0.508E-01
DAV:   5    -0.483166302429E+03    0.19252E-02   -0.64224E-03  2032   0.619E-01    0.293E-01
DAV:   6    -0.483165591663E+03    0.71077E-03   -0.53661E-03  1968   0.409E-01    0.579E-02
DAV:   7    -0.483165661033E+03   -0.69370E-04   -0.45575E-04  1672   0.555E-02    0.376E-02
DAV:   8    -0.483165665366E+03   -0.43335E-05   -0.65861E-05  1368   0.255E-02
  32 F= -.48316567E+03 E0= -.48315755E+03  d E =-.410942E-01
       N       E                     dE             d eps       ncg     rms          rms(c)
DAV:   1    -0.483153076730E+03    0.12584E-01   -0.13656E+01  1440   0.662E+00    0.446E-01
DAV:   2    -0.483176174748E+03   -0.23098E-01   -0.24836E-01  1992   0.166E+00    0.548E-01
DAV:   3    -0.483174414026E+03    0.17607E-02   -0.13649E-02  2176   0.859E-01    0.424E-01
DAV:   4    -0.483173428734E+03    0.98529E-03   -0.28190E-03  1752   0.206E-01    0.293E-01
DAV:   5    -0.483172830549E+03    0.59819E-03   -0.19845E-03  2040   0.336E-01    0.162E-01
DAV:   6    -0.483172643182E+03    0.18737E-03   -0.16385E-03  1936   0.221E-01    0.372E-02
DAV:   7    -0.483172672916E+03   -0.29734E-04   -0.14102E-04  1656   0.315E-02    0.220E-02
DAV:   8    -0.483172683203E+03   -0.10288E-04   -0.18539E-05  1040   0.153E-02    0.110E-02
DAV:   9    -0.483172699298E+03   -0.16094E-04   -0.99539E-06  1016   0.104E-02    0.436E-03
DAV:  10    -0.483172711374E+03   -0.12077E-04   -0.20975E-06   968   0.742E-03    0.172E-03
DAV:  11    -0.483172723650E+03   -0.12276E-04   -0.16981E-06   928   0.426E-03    0.968E-04
DAV:  12    -0.483172732207E+03   -0.85564E-05   -0.99987E-07   968   0.380E-03
  33 F= -.48317273E+03 E0= -.48316421E+03  d E =-.481610E-01
       N       E                     dE             d eps       ncg     rms          rms(c)
DAV:   1    -0.483124863077E+03    0.47861E-01   -0.45400E+01  1440   0.126E+01    0.853E-01
DAV:   2    -0.483212158953E+03   -0.87296E-01   -0.96282E-01  2032   0.321E+00    0.819E-01
DAV:   3    -0.483205614945E+03    0.65440E-02   -0.50092E-02  2176   0.185E+00    0.486E-01
DAV:   4    -0.483204264465E+03    0.13505E-02   -0.85520E-03  2136   0.710E-01    0.437E-01
DAV:   5    -0.483205812003E+03   -0.15475E-02   -0.56954E-03  1816   0.276E-01    0.638E-01
DAV:   6    -0.483202917401E+03    0.28946E-02   -0.59069E-03  1848   0.359E-01    0.131E-01
DAV:   7    -0.483202907257E+03    0.10144E-04   -0.72525E-04  1648   0.848E-02    0.730E-02
DAV:   8    -0.483202866531E+03    0.40726E-04   -0.98917E-05  1632   0.340E-02    0.349E-02
DAV:   9    -0.483202878910E+03   -0.12379E-04   -0.40892E-05  1168   0.194E-02    0.142E-02
DAV:  10    -0.483202894280E+03   -0.15370E-04   -0.74681E-06   968   0.127E-02    0.412E-03
DAV:  11    -0.483202909127E+03   -0.14847E-04   -0.33030E-06   920   0.745E-03    0.255E-03
DAV:  12    -0.483202924978E+03   -0.15851E-04   -0.21756E-06   952   0.549E-03    0.120E-03
DAV:  13    -0.483202935887E+03   -0.10909E-04   -0.15212E-06   936   0.455E-03    0.108E-03
DAV:  14    -0.483202942789E+03   -0.69011E-05   -0.11319E-06   952   0.347E-03
  34 F= -.48320294E+03 E0= -.48319357E+03  d E =-.302106E-01
       N       E                     dE             d eps       ncg     rms          rms(c)
DAV:   1    -0.483202864136E+03    0.71752E-04   -0.10075E-01  1480   0.592E-01    0.379E-02
DAV:   2    -0.483203013965E+03   -0.14983E-03   -0.16560E-03  2040   0.122E-01    0.327E-02
DAV:   3    -0.483203010765E+03    0.31996E-05   -0.62664E-05  1416   0.476E-02
  35 F= -.48320301E+03 E0= -.48319376E+03  d E =-.302786E-01
       N       E                     dE             d eps       ncg     rms          rms(c)
DAV:   1    -0.483166209563E+03    0.36804E-01   -0.34826E+01  1440   0.113E+01    0.758E-01
DAV:   2    -0.483234174596E+03   -0.67965E-01   -0.75025E-01  2032   0.293E+00    0.756E-01
DAV:   3    -0.483228686106E+03    0.54885E-02   -0.41148E-02  2152   0.163E+00    0.450E-01
DAV:   4    -0.483228131677E+03    0.55443E-03   -0.63986E-03  1992   0.454E-01    0.483E-01
DAV:   5    -0.483227916074E+03    0.21560E-03   -0.35347E-03  1968   0.319E-01    0.435E-01
DAV:   6    -0.483226480931E+03    0.14351E-02   -0.48768E-03  1936   0.411E-01    0.677E-02
DAV:   7    -0.483226545334E+03   -0.64403E-04   -0.56265E-04  1784   0.637E-02    0.484E-02
DAV:   8    -0.483226530694E+03    0.14640E-04   -0.74894E-05  1496   0.317E-02    0.249E-02
DAV:   9    -0.483226539109E+03   -0.84152E-05   -0.25106E-05  1120   0.148E-02
  36 F= -.48322654E+03 E0= -.48321673E+03  d E =-.235283E-01
       N       E                     dE             d eps       ncg     rms          rms(c)
DAV:   1    -0.483225964365E+03    0.56633E-03   -0.72626E-01  1440   0.162E+00    0.106E-01
DAV:   2    -0.483227186708E+03   -0.12223E-02   -0.13443E-02  2040   0.402E-01    0.112E-01
DAV:   3    -0.483227113837E+03    0.72872E-04   -0.77211E-04  2056   0.189E-01    0.926E-02
DAV:   4    -0.483227082502E+03    0.31335E-04   -0.13566E-04  1376   0.462E-02    0.758E-02
DAV:   5    -0.483227051112E+03    0.31389E-04   -0.10936E-04  1384   0.916E-02    0.454E-02
DAV:   6    -0.483227046702E+03    0.44102E-05   -0.12087E-04  1632   0.588E-02    0.986E-03
DAV:   7    -0.483227051296E+03   -0.45939E-05   -0.84450E-06   976   0.124E-02
  37 F= -.48322705E+03 E0= -.48321717E+03  d E =-.240405E-01
       N       E                     dE             d eps       ncg     rms          rms(c)
DAV:   1    -0.483216468324E+03    0.10578E-01   -0.16178E+01  1424   0.813E+00    0.589E-01
DAV:   2    -0.483246520496E+03   -0.30052E-01   -0.33006E-01  2032   0.203E+00    0.669E-01
DAV:   3    -0.483245011125E+03    0.15094E-02   -0.23330E-02  2168   0.111E+00    0.638E-01
DAV:   4    -0.483242707989E+03    0.23031E-02   -0.52135E-03  1712   0.292E-01    0.354E-01
DAV:   5    -0.483241773700E+03    0.93429E-03   -0.32646E-03  2008   0.458E-01    0.189E-01
DAV:   6    -0.483241577723E+03    0.19598E-03   -0.18187E-03  1984   0.246E-01    0.465E-02
DAV:   7    -0.483241614619E+03   -0.36896E-04   -0.23056E-04  1872   0.423E-02    0.239E-02
DAV:   8    -0.483241615897E+03   -0.12787E-05   -0.25091E-05  1088   0.152E-02
  38 F= -.48324162E+03 E0= -.48323133E+03  d E =-.145646E-01
       N       E                     dE             d eps       ncg     rms          rms(c)
DAV:   1    -0.483241617206E+03   -0.25869E-05   -0.51184E-03  1480   0.144E-01    0.103E-02
DAV:   2    -0.483241630840E+03   -0.13635E-04   -0.99798E-05  1440   0.389E-02    0.110E-02
DAV:   3    -0.483241632471E+03   -0.16302E-05   -0.85184E-06  1008   0.243E-02
  39 F= -.48324163E+03 E0= -.48323128E+03  d E =-.145812E-01
       N       E                     dE             d eps       ncg     rms          rms(c)
DAV:   1    -0.483235977970E+03    0.56529E-02   -0.10207E+01  1408   0.654E+00    0.489E-01
DAV:   2    -0.483257172638E+03   -0.21195E-01   -0.21578E-01  2032   0.160E+00    0.703E-01
DAV:   3    -0.483254631545E+03    0.25411E-02   -0.15918E-02  2168   0.789E-01    0.505E-01
DAV:   4    -0.483253023010E+03    0.16085E-02   -0.38702E-03  1912   0.338E-01    0.270E-01
DAV:   5    -0.483252484999E+03    0.53801E-03   -0.24103E-03  2024   0.403E-01    0.148E-01
DAV:   6    -0.483252361276E+03    0.12372E-03   -0.11766E-03  1992   0.212E-01    0.363E-02
DAV:   7    -0.483252386054E+03   -0.24778E-04   -0.14690E-04  1744   0.352E-02    0.200E-02
DAV:   8    -0.483252390386E+03   -0.43317E-05   -0.18872E-05  1040   0.128E-02
  40 F= -.48325239E+03 E0= -.48324222E+03  d E =-.107579E-01
       N       E                     dE             d eps       ncg     rms          rms(c)
DAV:   1    -0.483252280278E+03    0.10578E-03   -0.16700E-01  1408   0.838E-01    0.586E-02
DAV:   2    -0.483252605497E+03   -0.32522E-03   -0.33624E-03  2064   0.176E-01    0.734E-02
DAV:   3    -0.483252594877E+03    0.10620E-04   -0.15968E-04  1488   0.463E-02    0.642E-02
DAV:   4    -0.483252565722E+03    0.29154E-04   -0.43186E-05  1240   0.357E-02    0.282E-02
DAV:   5    -0.483252569682E+03   -0.39593E-05   -0.40357E-05  1184   0.576E-02
  41 F= -.48325257E+03 E0= -.48324236E+03  d E =-.109372E-01
       N       E                     dE             d eps       ncg     rms          rms(c)
DAV:   1    -0.483250449466E+03    0.21163E-02   -0.80449E+00  1424   0.581E+00    0.447E-01
DAV:   2    -0.483271500348E+03   -0.21051E-01   -0.18798E-01  2000   0.160E+00    0.873E-01
DAV:   3    -0.483265733920E+03    0.57664E-02   -0.15435E-02  2072   0.746E-01    0.373E-01
DAV:   4    -0.483264836088E+03    0.89783E-03   -0.33727E-03  1936   0.390E-01    0.243E-01
DAV:   5    -0.483264437500E+03    0.39859E-03   -0.17124E-03  2048   0.336E-01    0.136E-01
DAV:   6    -0.483264377115E+03    0.60385E-04   -0.10637E-03  1976   0.176E-01    0.307E-02
DAV:   7    -0.483264396984E+03   -0.19869E-04   -0.94765E-05  1448   0.264E-02    0.169E-02
DAV:   8    -0.483264399891E+03   -0.29073E-05   -0.13979E-05   992   0.118E-02
  42 F= -.48326440E+03 E0= -.48325447E+03  d E =-.118302E-01
       N       E                     dE             d eps       ncg     rms          rms(c)
DAV:   1    -0.483248887805E+03    0.15509E-01   -0.11227E+01  1424   0.687E+00    0.526E-01
DAV:   2    -0.483278177804E+03   -0.29290E-01   -0.26482E-01  2016   0.189E+00    0.998E-01
DAV:   3    -0.483270505381E+03    0.76724E-02   -0.21239E-02  2128   0.902E-01    0.434E-01
DAV:   4    -0.483269270596E+03    0.12348E-02   -0.44856E-03  1944   0.439E-01    0.285E-01
DAV:   5    -0.483268726459E+03    0.54414E-03   -0.23245E-03  2048   0.392E-01    0.160E-01
DAV:   6    -0.483268621932E+03    0.10453E-03   -0.14906E-03  1944   0.212E-01    0.368E-02
DAV:   7    -0.483268649318E+03   -0.27385E-04   -0.14246E-04  1600   0.323E-02    0.201E-02
DAV:   8    -0.483268652970E+03   -0.36521E-05   -0.19677E-05  1032   0.131E-02
  43 F= -.48326865E+03 E0= -.48325899E+03  d E =-.160833E-01
       N       E                     dE             d eps       ncg     rms          rms(c)
DAV:   1    -0.483266260446E+03    0.23889E-02   -0.67367E+00  1408   0.528E+00    0.376E-01
DAV:   2    -0.483282196505E+03   -0.15936E-01   -0.15359E-01  2016   0.141E+00    0.660E-01
DAV:   3    -0.483279125586E+03    0.30709E-02   -0.10361E-02  2160   0.646E-01    0.333E-01
DAV:   4    -0.483278414301E+03    0.71129E-03   -0.22828E-03  1928   0.298E-01    0.208E-01
DAV:   5    -0.483278154610E+03    0.25969E-03   -0.12840E-03  2048   0.294E-01    0.124E-01
DAV:   6    -0.483278096815E+03    0.57795E-04   -0.89381E-04  1944   0.168E-01    0.250E-02
DAV:   7    -0.483278115659E+03   -0.18844E-04   -0.84853E-05  1416   0.240E-02    0.155E-02
DAV:   8    -0.483278118010E+03   -0.23515E-05   -0.98130E-06  1016   0.101E-02
  44 F= -.48327812E+03 E0= -.48326830E+03  d E =-.946504E-02
       N       E                     dE             d eps       ncg     rms          rms(c)
DAV:   1    -0.483272047591E+03    0.60681E-02   -0.56410E+00  1408   0.483E+00    0.343E-01
DAV:   2    -0.483285207503E+03   -0.13160E-01   -0.12617E-01  2000   0.127E+00    0.607E-01
DAV:   3    -0.483282646835E+03    0.25607E-02   -0.87978E-03  2168   0.580E-01    0.301E-01
DAV:   4    -0.483282058397E+03    0.58844E-03   -0.18945E-03  1928   0.270E-01    0.187E-01
DAV:   5    -0.483281854126E+03    0.20427E-03   -0.10914E-03  2040   0.272E-01    0.113E-01
DAV:   6    -0.483281805378E+03    0.48748E-04   -0.75102E-04  1936   0.157E-01    0.230E-02
DAV:   7    -0.483281820628E+03   -0.15250E-04   -0.71278E-05  1376   0.222E-02    0.141E-02
DAV:   8    -0.483281822437E+03   -0.18092E-05   -0.82623E-06   968   0.946E-03
  45 F= -.48328182E+03 E0= -.48327185E+03  d E =-.131695E-01
       N       E                     dE             d eps       ncg     rms          rms(c)
DAV:   1    -0.483285721574E+03   -0.39009E-02   -0.39739E+00  1432   0.415E+00    0.314E-01
DAV:   2    -0.483295823453E+03   -0.10102E-01   -0.82444E-02  2048   0.104E+00    0.673E-01
DAV:   3    -0.483292255434E+03    0.35680E-02   -0.77081E-03  2048   0.476E-01    0.235E-01
DAV:   4    -0.483291933349E+03    0.32209E-03   -0.15850E-03  1904   0.251E-01    0.148E-01
DAV:   5    -0.483291802181E+03    0.13117E-03   -0.98560E-04  2032   0.265E-01    0.891E-02
DAV:   6    -0.483291774752E+03    0.27429E-04   -0.45203E-04  1960   0.143E-01    0.221E-02
DAV:   7    -0.483291783811E+03   -0.90588E-05   -0.49030E-05  1336   0.195E-02
  46 F= -.48329178E+03 E0= -.48328196E+03  d E =-.996137E-02
       N       E                     dE             d eps       ncg     rms          rms(c)
DAV:   1    -0.483289761582E+03    0.20132E-02   -0.37906E+00  1432   0.405E+00    0.307E-01
DAV:   2    -0.483299306689E+03   -0.95451E-02   -0.78308E-02  2032   0.101E+00    0.651E-01
DAV:   3    -0.483295975315E+03    0.33314E-02   -0.72958E-03  2040   0.464E-01    0.229E-01
DAV:   4    -0.483295674815E+03    0.30050E-03   -0.14939E-03  1896   0.243E-01    0.144E-01
DAV:   5    -0.483295555927E+03    0.11889E-03   -0.94244E-04  2040   0.260E-01    0.868E-02
DAV:   6    -0.483295529433E+03    0.26493E-04   -0.42842E-04  1968   0.140E-01    0.213E-02
DAV:   7    -0.483295538446E+03   -0.90132E-05   -0.46198E-05  1296   0.189E-02
  47 F= -.48329554E+03 E0= -.48328587E+03  d E =-.137160E-01
       N       E                     dE             d eps       ncg     rms          rms(c)
DAV:   1    -0.483298276460E+03   -0.27470E-02   -0.36710E+00  1408   0.389E+00    0.285E-01
DAV:   2    -0.483307440609E+03   -0.91641E-02   -0.77928E-02  2032   0.104E+00    0.612E-01
DAV:   3    -0.483304516262E+03    0.29243E-02   -0.69205E-03  2080   0.468E-01    0.220E-01
DAV:   4    -0.483304234379E+03    0.28188E-03   -0.13234E-03  1928   0.249E-01    0.142E-01
DAV:   5    -0.483304121534E+03    0.11284E-03   -0.74146E-04  2024   0.224E-01    0.872E-02
DAV:   6    -0.483304102030E+03    0.19504E-04   -0.42461E-04  1928   0.123E-01    0.207E-02
DAV:   7    -0.483304109040E+03   -0.70105E-05   -0.40991E-05  1280   0.175E-02
  48 F= -.48330411E+03 E0= -.48329439E+03  d E =-.857059E-02
       N       E                     dE             d eps       ncg     rms          rms(c)
DAV:   1    -0.483286927530E+03    0.17174E-01   -0.12709E+01  1408   0.726E+00    0.541E-01
DAV:   2    -0.483322921626E+03   -0.35994E-01   -0.30785E-01  2048   0.205E+00    0.115E+00
DAV:   3    -0.483311911224E+03    0.11010E-01   -0.25451E-02  2064   0.931E-01    0.401E-01
DAV:   4    -0.483310856486E+03    0.10547E-02   -0.46627E-03  1936   0.462E-01    0.273E-01
DAV:   5    -0.483310397976E+03    0.45851E-03   -0.24615E-03  2080   0.397E-01    0.166E-01
DAV:   6    -0.483310290170E+03    0.10781E-03   -0.15358E-03  1984   0.233E-01    0.455E-02
DAV:   7    -0.483310306018E+03   -0.15847E-04   -0.15938E-04  1680   0.363E-02    0.199E-02
DAV:   8    -0.483310306223E+03   -0.20503E-06   -0.19029E-05  1056   0.130E-02
  49 F= -.48331031E+03 E0= -.48330053E+03  d E =-.147678E-01
       N       E                     dE             d eps       ncg     rms          rms(c)
DAV:   1    -0.483308534890E+03    0.17711E-02   -0.52895E+00  1416   0.463E+00    0.288E-01
DAV:   2    -0.483320068902E+03   -0.11534E-01   -0.11782E-01  2032   0.118E+00    0.429E-01
DAV:   3    -0.483318852888E+03    0.12160E-02   -0.58454E-03  2224   0.522E-01    0.265E-01
DAV:   4    -0.483318429001E+03    0.42389E-03   -0.11559E-03  1928   0.184E-01    0.171E-01
DAV:   5    -0.483318291089E+03    0.13791E-03   -0.79520E-04  2032   0.226E-01    0.111E-01
DAV:   6    -0.483318227761E+03    0.63328E-04   -0.67972E-04  1952   0.156E-01    0.199E-02
DAV:   7    -0.483318238972E+03   -0.11211E-04   -0.60484E-05  1384   0.199E-02    0.139E-02
DAV:   8    -0.483318239476E+03   -0.50422E-06   -0.62334E-06  1000   0.861E-03
  50 F= -.48331824E+03 E0= -.48330870E+03  d E =-.793325E-02
       N       E                     dE             d eps       ncg     rms          rms(c)
DAV:   1    -0.483307228562E+03    0.11010E-01   -0.80173E+00  1416   0.570E+00    0.354E-01
DAV:   2    -0.483325252539E+03   -0.18024E-01   -0.18275E-01  2032   0.143E+00    0.533E-01
DAV:   3    -0.483323367076E+03    0.18855E-02   -0.87491E-03  2200   0.628E-01    0.324E-01
DAV:   4    -0.483322719412E+03    0.64766E-03   -0.17383E-03  1936   0.227E-01    0.208E-01
DAV:   5    -0.483322511304E+03    0.20811E-03   -0.12227E-03  2056   0.283E-01    0.138E-01
DAV:   6    -0.483322399607E+03    0.11170E-03   -0.10526E-03  1976   0.198E-01    0.243E-02
DAV:   7    -0.483322415261E+03   -0.15654E-04   -0.94782E-05  1464   0.246E-02    0.170E-02
DAV:   8    -0.483322414856E+03    0.40420E-06   -0.97732E-06  1016   0.102E-02
  51 F= -.48332241E+03 E0= -.48331315E+03  d E =-.121086E-01
       N       E                     dE             d eps       ncg     rms          rms(c)
DAV:   1    -0.483324631370E+03   -0.22161E-02   -0.36304E+00  1408   0.384E+00    0.255E-01
DAV:   2    -0.483331940410E+03   -0.73090E-02   -0.79529E-02  2040   0.987E-01    0.273E-01
DAV:   3    -0.483331338417E+03    0.60199E-03   -0.45590E-03  2152   0.560E-01    0.192E-01
DAV:   4    -0.483331257945E+03    0.80471E-04   -0.76034E-04  1872   0.109E-01    0.180E-01
DAV:   5    -0.483331072603E+03    0.18534E-03   -0.51994E-04  1928   0.144E-01    0.951E-02
DAV:   6    -0.483331027190E+03    0.45413E-04   -0.39781E-04  1896   0.110E-01    0.257E-02
DAV:   7    -0.483331031922E+03   -0.47318E-05   -0.38544E-05  1304   0.185E-02
  52 F= -.48333103E+03 E0= -.48332176E+03  d E =-.861707E-02
       N       E                     dE             d eps       ncg     rms          rms(c)
DAV:   1    -0.483317027681E+03    0.14000E-01   -0.10233E+01  1408   0.647E+00    0.429E-01
DAV:   2    -0.483339248510E+03   -0.22221E-01   -0.23942E-01  2048   0.163E+00    0.442E-01
DAV:   3    -0.483337731434E+03    0.15171E-02   -0.12522E-02  2152   0.929E-01    0.323E-01
DAV:   4    -0.483337468101E+03    0.26333E-03   -0.20919E-03  1952   0.195E-01    0.296E-01
DAV:   5    -0.483336973692E+03    0.49441E-03   -0.14453E-03  1992   0.241E-01    0.163E-01
DAV:   6    -0.483336813822E+03    0.15987E-03   -0.11839E-03  1960   0.198E-01    0.426E-02
DAV:   7    -0.483336826550E+03   -0.12729E-04   -0.12118E-04  1456   0.309E-02    0.225E-02
DAV:   8    -0.483336827233E+03   -0.68234E-06   -0.15580E-05  1064   0.144E-02
  53 F= -.48333683E+03 E0= -.48332769E+03  d E =-.144124E-01
       N       E                     dE             d eps       ncg     rms          rms(c)
DAV:   1    -0.483339628331E+03   -0.28018E-02   -0.23224E+00  1408   0.299E+00    0.206E-01
DAV:   2    -0.483344017150E+03   -0.43888E-02   -0.45456E-02  2040   0.766E-01    0.299E-01
DAV:   3    -0.483343452693E+03    0.56446E-03   -0.32139E-03  2200   0.389E-01    0.191E-01
DAV:   4    -0.483343229665E+03    0.22303E-03   -0.63798E-04  1880   0.137E-01    0.111E-01
DAV:   5    -0.483343155928E+03    0.73737E-04   -0.35330E-04  1784   0.151E-01    0.642E-02
DAV:   6    -0.483343147735E+03    0.81928E-05   -0.21930E-04  1720   0.777E-02    0.124E-02
DAV:   7    -0.483343153464E+03   -0.57293E-05   -0.17702E-05  1064   0.130E-02
  54 F= -.48334315E+03 E0= -.48333392E+03  d E =-.632623E-02
       N       E                     dE             d eps       ncg     rms          rms(c)
DAV:   1    -0.483311592906E+03    0.31555E-01   -0.20971E+01  1408   0.905E+00    0.640E-01
DAV:   2    -0.483361868963E+03   -0.50276E-01   -0.51476E-01  2032   0.252E+00    0.930E-01
DAV:   3    -0.483355828326E+03    0.60406E-02   -0.31503E-02  2176   0.131E+00    0.591E-01
DAV:   4    -0.483353633848E+03    0.21945E-02   -0.58858E-03  1912   0.383E-01    0.344E-01
DAV:   5    -0.483352811632E+03    0.82222E-03   -0.28801E-03  2040   0.422E-01    0.207E-01
DAV:   6    -0.483352569903E+03    0.24173E-03   -0.23312E-03  1952   0.246E-01    0.396E-02
DAV:   7    -0.483352600905E+03   -0.31002E-04   -0.19479E-04  1632   0.370E-02    0.242E-02
DAV:   8    -0.483352605027E+03   -0.41215E-05   -0.22135E-05  1096   0.152E-02
  55 F= -.48335261E+03 E0= -.48334323E+03  d E =-.157778E-01
       N       E                     dE             d eps       ncg     rms          rms(c)
DAV:   1    -0.483356303810E+03   -0.37029E-02   -0.35304E+00  1408   0.376E+00    0.288E-01
DAV:   2    -0.483363345453E+03   -0.70416E-02   -0.70906E-02  2024   0.998E-01    0.445E-01
DAV:   3    -0.483362025904E+03    0.13195E-02   -0.62181E-03  2144   0.526E-01    0.259E-01
DAV:   4    -0.483361595977E+03    0.42993E-03   -0.13111E-03  1944   0.210E-01    0.142E-01
DAV:   5    -0.483361447127E+03    0.14885E-03   -0.70326E-04  2016   0.216E-01    0.772E-02
DAV:   6    -0.483361434205E+03    0.12922E-04   -0.29787E-04  1880   0.933E-02    0.179E-02
DAV:   7    -0.483361445283E+03   -0.11078E-04   -0.28418E-05  1184   0.146E-02    0.896E-03
DAV:   8    -0.483361449666E+03   -0.43834E-05   -0.40262E-06   968   0.849E-03
  56 F= -.48336145E+03 E0= -.48335239E+03  d E =-.884464E-02
       N       E                     dE             d eps       ncg     rms          rms(c)
DAV:   1    -0.483355549787E+03    0.58955E-02   -0.71664E+00  1408   0.537E+00    0.422E-01
DAV:   2    -0.483371690664E+03   -0.16141E-01   -0.16237E-01  2024   0.156E+00    0.668E-01
DAV:   3    -0.483368388119E+03    0.33025E-02   -0.14060E-02  2120   0.841E-01    0.368E-01
DAV:   4    -0.483367516057E+03    0.87206E-03   -0.28887E-03  1952   0.311E-01    0.208E-01
DAV:   5    -0.483367164126E+03    0.35193E-03   -0.13222E-03  2032   0.287E-01    0.113E-01
DAV:   6    -0.483367118066E+03    0.46060E-04   -0.63694E-04  1952   0.124E-01    0.256E-02
DAV:   7    -0.483367132583E+03   -0.14516E-04   -0.58348E-05  1360   0.206E-02    0.134E-02
DAV:   8    -0.483367135068E+03   -0.24853E-05   -0.72362E-06   976   0.115E-02
  57 F= -.48336714E+03 E0= -.48335853E+03  d E =-.145300E-01
       N       E                     dE             d eps       ncg     rms          rms(c)
DAV:   1    -0.483369004729E+03   -0.18721E-02   -0.38641E+00  1408   0.396E+00    0.287E-01
DAV:   2    -0.483376937892E+03   -0.79332E-02   -0.78966E-02  2032   0.108E+00    0.468E-01
DAV:   3    -0.483375353265E+03    0.15846E-02   -0.65077E-03  2120   0.547E-01    0.246E-01
DAV:   4    -0.483374954122E+03    0.39914E-03   -0.13096E-03  1928   0.215E-01    0.145E-01
DAV:   5    -0.483374801455E+03    0.15267E-03   -0.67436E-04  2008   0.206E-01    0.815E-02
DAV:   6    -0.483374781425E+03    0.20030E-04   -0.35217E-04  1888   0.100E-01    0.181E-02
DAV:   7    -0.483374790049E+03   -0.86245E-05   -0.32976E-05  1224   0.157E-02
  58 F= -.48337479E+03 E0= -.48336594E+03  d E =-.765498E-02
       N       E                     dE             d eps       ncg     rms          rms(c)
DAV:   1    -0.483365835132E+03    0.89463E-02   -0.77991E+00  1408   0.564E+00    0.417E-01
DAV:   2    -0.483383685812E+03   -0.17851E-01   -0.17745E-01  2040   0.164E+00    0.683E-01
DAV:   3    -0.483380156437E+03    0.35294E-02   -0.14001E-02  2112   0.831E-01    0.356E-01
DAV:   4    -0.483379316933E+03    0.83950E-03   -0.28206E-03  1936   0.309E-01    0.212E-01
DAV:   5    -0.483378968905E+03    0.34803E-03   -0.12854E-03  2016   0.279E-01    0.119E-01
DAV:   6    -0.483378903544E+03    0.65361E-04   -0.76100E-04  1960   0.139E-01    0.259E-02
DAV:   7    -0.483378919680E+03   -0.16136E-04   -0.70151E-05  1392   0.227E-02    0.152E-02
DAV:   8    -0.483378922949E+03   -0.32689E-05   -0.86539E-06   952   0.119E-02
  59 F= -.48337892E+03 E0= -.48336978E+03  d E =-.117879E-01
       N       E                     dE             d eps       ncg     rms          rms(c)
DAV:   1    -0.483379718313E+03   -0.79863E-03   -0.33110E+00  1408   0.362E+00    0.239E-01
DAV:   2    -0.483386259218E+03   -0.65409E-02   -0.65887E-02  2016   0.983E-01    0.382E-01
DAV:   3    -0.483385202410E+03    0.10568E-02   -0.46314E-03  2120   0.472E-01    0.206E-01
DAV:   4    -0.483384927618E+03    0.27479E-03   -0.86060E-04  1920   0.168E-01    0.129E-01
DAV:   5    -0.483384824390E+03    0.10323E-03   -0.45650E-04  2008   0.165E-01    0.764E-02
DAV:   6    -0.483384805883E+03    0.18507E-04   -0.32717E-04  1896   0.965E-02    0.154E-02
DAV:   7    -0.483384813583E+03   -0.77003E-05   -0.27149E-05  1192   0.146E-02
  60 F= -.48338481E+03 E0= -.48337574E+03  d E =-.589063E-02
       N       E                     dE             d eps       ncg     rms          rms(c)
DAV:   1    -0.483374772732E+03    0.10033E-01   -0.83277E+00  1408   0.576E+00    0.385E-01
DAV:   2    -0.483393300053E+03   -0.18527E-01   -0.18643E-01  2024   0.162E+00    0.609E-01
DAV:   3    -0.483390488834E+03    0.28112E-02   -0.11718E-02  2128   0.782E-01    0.331E-01
DAV:   4    -0.483389766743E+03    0.72209E-03   -0.21467E-03  1944   0.254E-01    0.209E-01
DAV:   5    -0.483389478304E+03    0.28844E-03   -0.10862E-03  2024   0.255E-01    0.127E-01
DAV:   6    -0.483389388529E+03    0.89775E-04   -0.89760E-04  1960   0.158E-01    0.245E-02
DAV:   7    -0.483389404210E+03   -0.15681E-04   -0.78135E-05  1480   0.241E-02    0.173E-02
DAV:   8    -0.483389406719E+03   -0.25087E-05   -0.81053E-06   984   0.119E-02
  61 F= -.48338941E+03 E0= -.48338052E+03  d E =-.104838E-01
       N       E                     dE             d eps       ncg     rms          rms(c)
DAV:   1    -0.483388835905E+03    0.56830E-03   -0.65217E-01  1408   0.160E+00    0.100E-01
DAV:   2    -0.483389843366E+03   -0.10075E-02   -0.10215E-02  2032   0.349E-01    0.143E-01
DAV:   3    -0.483389720616E+03    0.12275E-03   -0.60981E-04  1992   0.152E-01    0.883E-02
DAV:   4    -0.483389668978E+03    0.51639E-04   -0.12786E-04  1424   0.589E-02    0.506E-02
DAV:   5    -0.483389662021E+03    0.69568E-05   -0.11649E-04  1392   0.958E-02    0.335E-02
DAV:   6    -0.483389659321E+03    0.26997E-05   -0.65108E-05  1288   0.612E-02
  62 F= -.48338966E+03 E0= -.48338079E+03  d E =-.107364E-01
       N       E                     dE             d eps       ncg     rms          rms(c)
DAV:   1    -0.483389300285E+03    0.36174E-03   -0.43557E+00  1424   0.418E+00    0.260E-01
DAV:   2    -0.483397407839E+03   -0.81076E-02   -0.87528E-02  2032   0.105E+00    0.299E-01
DAV:   3    -0.483396763224E+03    0.64461E-03   -0.47003E-03  2104   0.554E-01    0.213E-01
DAV:   4    -0.483396573020E+03    0.19020E-03   -0.88827E-04  1744   0.103E-01    0.168E-01
DAV:   5    -0.483396403524E+03    0.16950E-03   -0.56094E-04  2024   0.166E-01    0.928E-02
DAV:   6    -0.483396358566E+03    0.44958E-04   -0.43216E-04  1912   0.113E-01    0.212E-02
DAV:   7    -0.483396365260E+03   -0.66935E-05   -0.36297E-05  1296   0.185E-02
  63 F= -.48339637E+03 E0= -.48338740E+03  d E =-.670594E-02
       N       E                     dE             d eps       ncg     rms          rms(c)
DAV:   1    -0.483387419781E+03    0.89388E-02   -0.70212E+00  1424   0.531E+00    0.331E-01
DAV:   2    -0.483401290970E+03   -0.13871E-01   -0.14913E-01  2040   0.135E+00    0.375E-01
DAV:   3    -0.483400267622E+03    0.10233E-02   -0.77348E-03  2104   0.711E-01    0.270E-01
DAV:   4    -0.483399967412E+03    0.30021E-03   -0.13437E-03  1784   0.128E-01    0.215E-01
DAV:   5    -0.483399685145E+03    0.28227E-03   -0.87752E-04  2032   0.204E-01    0.121E-01
DAV:   6    -0.483399593759E+03    0.91385E-04   -0.73866E-04  1968   0.150E-01    0.263E-02
DAV:   7    -0.483399604735E+03   -0.10975E-04   -0.65064E-05  1440   0.224E-02    0.170E-02
DAV:   8    -0.483399606180E+03   -0.14457E-05   -0.89860E-06   992   0.118E-02
  64 F= -.48339961E+03 E0= -.48339061E+03  d E =-.994686E-02
       N       E                     dE             d eps       ncg     rms          rms(c)
DAV:   1    -0.483397929894E+03    0.16748E-02   -0.49173E+00  1408   0.452E+00    0.295E-01
DAV:   2    -0.483407995983E+03   -0.10066E-01   -0.10105E-01  2048   0.119E+00    0.462E-01
DAV:   3    -0.483406447899E+03    0.15481E-02   -0.65267E-03  2112   0.561E-01    0.254E-01
DAV:   4    -0.483406029283E+03    0.41862E-03   -0.12948E-03  1960   0.208E-01    0.158E-01
DAV:   5    -0.483405866399E+03    0.16288E-03   -0.75482E-04  2056   0.217E-01    0.953E-02
DAV:   6    -0.483405816242E+03    0.50156E-04   -0.49617E-04  1952   0.127E-01    0.194E-02
DAV:   7    -0.483405824692E+03   -0.84497E-05   -0.44153E-05  1336   0.183E-02
  65 F= -.48340582E+03 E0= -.48339672E+03  d E =-.621851E-02
       N       E                     dE             d eps       ncg     rms          rms(c)
DAV:   1    -0.483403795628E+03    0.20206E-02   -0.22722E+00  1424   0.307E+00    0.199E-01
DAV:   2    -0.483407921907E+03   -0.41263E-02   -0.41921E-02  2048   0.760E-01    0.293E-01
DAV:   3    -0.483407344107E+03    0.57780E-03   -0.27199E-03  2104   0.356E-01    0.173E-01
DAV:   4    -0.483407154839E+03    0.18927E-03   -0.57700E-04  1880   0.136E-01    0.105E-01
DAV:   5    -0.483407086936E+03    0.67903E-04   -0.37991E-04  1984   0.158E-01    0.621E-02
DAV:   6    -0.483407071041E+03    0.15894E-04   -0.20637E-04  1848   0.861E-02    0.129E-02
DAV:   7    -0.483407076630E+03   -0.55885E-05   -0.17439E-05  1064   0.124E-02
  66 F= -.48340708E+03 E0= -.48339793E+03  d E =-.747045E-02
       N       E                     dE             d eps       ncg     rms          rms(c)
DAV:   1    -0.483404869417E+03    0.22016E-02   -0.48294E+00  1424   0.452E+00    0.299E-01
DAV:   2    -0.483414310501E+03   -0.94411E-02   -0.98077E-02  2040   0.116E+00    0.419E-01
DAV:   3    -0.483413141221E+03    0.11693E-02   -0.64532E-03  2160   0.580E-01    0.268E-01
DAV:   4    -0.483412690594E+03    0.45063E-03   -0.12960E-03  1928   0.188E-01    0.159E-01
DAV:   5    -0.483412526055E+03    0.16454E-03   -0.78487E-04  2088   0.219E-01    0.920E-02
DAV:   6    -0.483412485604E+03    0.40451E-04   -0.42443E-04  1992   0.121E-01    0.192E-02
DAV:   7    -0.483412494862E+03   -0.92580E-05   -0.41199E-05  1288   0.171E-02
  67 F= -.48341249E+03 E0= -.48340348E+03  d E =-.541823E-02
       N       E                     dE             d eps       ncg     rms          rms(c)
DAV:   1    -0.483410636038E+03    0.18496E-02   -0.20557E+00  1424   0.295E+00    0.191E-01
DAV:   2    -0.483414156547E+03   -0.35205E-02   -0.36784E-02  2056   0.683E-01    0.250E-01
DAV:   3    -0.483413802472E+03    0.35407E-03   -0.23346E-03  2160   0.331E-01    0.176E-01
DAV:   4    -0.483413606708E+03    0.19576E-03   -0.50971E-04  1872   0.113E-01    0.989E-02
DAV:   5    -0.483413552628E+03    0.54079E-04   -0.37561E-04  1984   0.159E-01    0.587E-02
DAV:   6    -0.483413538273E+03    0.14355E-04   -0.17108E-04  1680   0.865E-02    0.123E-02
DAV:   7    -0.483413543912E+03   -0.56385E-05   -0.18613E-05  1040   0.138E-02
  68 F= -.48341354E+03 E0= -.48340462E+03  d E =-.646728E-02
       N       E                     dE             d eps       ncg     rms          rms(c)
DAV:   1    -0.483408992435E+03    0.45458E-02   -0.58065E+00  1424   0.501E+00    0.325E-01
DAV:   2    -0.483421065265E+03   -0.12073E-01   -0.12246E-01  2056   0.126E+00    0.483E-01
DAV:   3    -0.483419468674E+03    0.15966E-02   -0.74573E-03  2192   0.599E-01    0.287E-01
DAV:   4    -0.483418940655E+03    0.52802E-03   -0.15400E-03  1952   0.216E-01    0.172E-01
DAV:   5    -0.483418765122E+03    0.17553E-03   -0.95916E-04  2072   0.247E-01    0.106E-01
DAV:   6    -0.483418704415E+03    0.60708E-04   -0.58221E-04  2000   0.147E-01    0.211E-02
DAV:   7    -0.483418714115E+03   -0.97003E-05   -0.56417E-05  1360   0.193E-02
  69 F= -.48341871E+03 E0= -.48340960E+03  d E =-.517020E-02
       N       E                     dE             d eps       ncg     rms          rms(c)
DAV:   1    -0.483417961787E+03    0.74263E-03   -0.86541E-01  1424   0.193E+00    0.122E-01
DAV:   2    -0.483419425356E+03   -0.14636E-02   -0.14971E-02  2064   0.414E-01    0.163E-01
DAV:   3    -0.483419283201E+03    0.14215E-03   -0.82239E-04  2120   0.182E-01    0.112E-01
DAV:   4    -0.483419197971E+03    0.85231E-04   -0.18949E-04  1672   0.681E-02    0.594E-02
DAV:   5    -0.483419188739E+03    0.92311E-05   -0.16638E-04  1440   0.113E-01    0.405E-02
DAV:   6    -0.483419180304E+03    0.84357E-05   -0.86571E-05  1376   0.735E-02
  70 F= -.48341918E+03 E0= -.48341000E+03  d E =-.563639E-02
       N       E                     dE             d eps       ncg     rms          rms(c)
DAV:   1    -0.483413868662E+03    0.53201E-02   -0.56503E+00  1424   0.502E+00    0.325E-01
DAV:   2    -0.483425494280E+03   -0.11626E-01   -0.12032E-01  2056   0.124E+00    0.448E-01
DAV:   3    -0.483424216147E+03    0.12781E-02   -0.68946E-03  2184   0.589E-01    0.287E-01
DAV:   4    -0.483423695742E+03    0.52041E-03   -0.14472E-03  1928   0.200E-01    0.179E-01
DAV:   5    -0.483423511865E+03    0.18388E-03   -0.10070E-03  2056   0.254E-01    0.103E-01
DAV:   6    -0.483423460796E+03    0.51069E-04   -0.54463E-04  2016   0.148E-01    0.204E-02
DAV:   7    -0.483423469864E+03   -0.90684E-05   -0.54259E-05  1376   0.197E-02
  71 F= -.48342347E+03 E0= -.48341459E+03  d E =-.428956E-02
       N       E                     dE             d eps       ncg     rms          rms(c)
DAV:   1    -0.483423328453E+03    0.13234E-03   -0.17455E-01  1424   0.882E-01    0.553E-02
DAV:   2    -0.483423608397E+03   -0.27994E-03   -0.29552E-03  2032   0.173E-01    0.576E-02
DAV:   3    -0.483423605479E+03    0.29183E-05   -0.13423E-04  1664   0.680E-02    0.557E-02
DAV:   4    -0.483423582780E+03    0.22698E-04   -0.35632E-05  1216   0.249E-02    0.253E-02
DAV:   5    -0.483423585619E+03   -0.28386E-05   -0.36552E-05  1128   0.514E-02
  72 F= -.48342359E+03 E0= -.48341472E+03  d E =-.440532E-02
       N       E                     dE             d eps       ncg     rms          rms(c)
DAV:   1    -0.483421749609E+03    0.18332E-02   -0.34858E+00  1416   0.403E+00    0.273E-01
DAV:   2    -0.483428224155E+03   -0.64745E-02   -0.67421E-02  2040   0.860E-01    0.356E-01
DAV:   3    -0.483427590600E+03    0.63355E-03   -0.40912E-03  2120   0.399E-01    0.256E-01
DAV:   4    -0.483427126243E+03    0.46436E-03   -0.95029E-04  1840   0.144E-01    0.131E-01
DAV:   5    -0.483427075561E+03    0.50681E-04   -0.81652E-04  1944   0.245E-01    0.852E-02
DAV:   6    -0.483427028707E+03    0.46855E-04   -0.35475E-04  1936   0.153E-01    0.208E-02
DAV:   7    -0.483427036698E+03   -0.79918E-05   -0.45630E-05  1192   0.171E-02
  73 F= -.48342704E+03 E0= -.48341806E+03  d E =-.345108E-02
       N       E                     dE             d eps       ncg     rms          rms(c)
DAV:   1    -0.483426821107E+03    0.20760E-03   -0.27309E-01  1416   0.113E+00    0.737E-02
DAV:   2    -0.483427271474E+03   -0.45037E-03   -0.48397E-03  2016   0.212E-01    0.781E-02
DAV:   3    -0.483427269900E+03    0.15740E-05   -0.23045E-04  1800   0.605E-02    0.762E-02
DAV:   4    -0.483427224804E+03    0.45096E-04   -0.65457E-05  1280   0.393E-02    0.320E-02
DAV:   5    -0.483427225519E+03   -0.71540E-06   -0.33414E-05  1128   0.366E-02
  74 F= -.48342723E+03 E0= -.48341814E+03  d E =-.363990E-02
       N       E                     dE             d eps       ncg     rms          rms(c)
DAV:   1    -0.483425450474E+03    0.17743E-02   -0.28738E+00  1408   0.376E+00    0.350E-01
DAV:   2    -0.483435548233E+03   -0.10098E-01   -0.62818E-02  1968   0.788E-01    0.809E-01
DAV:   3    -0.483429827145E+03    0.57211E-02   -0.96989E-03  1880   0.436E-01    0.217E-01
DAV:   4    -0.483429465388E+03    0.36176E-03   -0.12046E-03  1872   0.173E-01    0.116E-01
DAV:   5    -0.483429443396E+03    0.21992E-04   -0.63112E-04  2032   0.196E-01    0.908E-02
DAV:   6    -0.483429390787E+03    0.52609E-04   -0.36332E-04  1632   0.172E-01    0.356E-02
DAV:   7    -0.483429383516E+03    0.72703E-05   -0.55754E-05  1208   0.569E-02
  75 F= -.48342938E+03 E0= -.48342070E+03  d E =-.215800E-02
       N       E                     dE             d eps       ncg     rms          rms(c)
DAV:   1    -0.483429381408E+03    0.93783E-05   -0.83703E-03  1440   0.204E-01    0.185E-02
DAV:   2    -0.483429412513E+03   -0.31105E-04   -0.20508E-04  1704   0.437E-02    0.414E-02
DAV:   3    -0.483429398874E+03    0.13639E-04   -0.26307E-05  1176   0.221E-02    0.137E-02
DAV:   4    -0.483429399234E+03   -0.36029E-06   -0.37829E-06   936   0.139E-02
[...]
DAV:   4    -0.483433635687E+03    0.21190E-03   -0.37539E-04  1712   0.732E-02    0.885E-02
DAV:   5    -0.483433629262E+03    0.64245E-05   -0.32764E-04  1792   0.153E-01    0.630E-02
DAV:   6    -0.483433614198E+03    0.15064E-04   -0.15131E-04  1488   0.977E-02    0.141E-02
DAV:   7    -0.483433620185E+03   -0.59872E-05   -0.26037E-05  1088   0.165E-02
  79 F= -.48343362E+03 E0= -.48342509E+03  d E =-.198256E-02
       N       E                     dE             d eps       ncg     rms          rms(c)
DAV:   1    -0.483432910737E+03    0.70346E-03   -0.74442E-01  1440   0.191E+00    0.119E-01
DAV:   2    -0.483434117298E+03   -0.12066E-02   -0.13484E-02  2000   0.353E-01    0.936E-02
DAV:   3    -0.483434156741E+03   -0.39443E-04   -0.47578E-04  1992   0.855E-02    0.125E-01
DAV:   4    -0.483434045082E+03    0.11166E-03   -0.16250E-04  1456   0.598E-02    0.526E-02
DAV:   5    -0.483434047923E+03   -0.28413E-05   -0.74631E-05  1528   0.462E-02
  80 F= -.48343405E+03 E0= -.48342552E+03  d E =-.241030E-02
       N       E                     dE             d eps       ncg     rms          rms(c)
DAV:   1    -0.483433066500E+03    0.97858E-03   -0.18581E+00  1440   0.298E+00    0.192E-01
DAV:   2    -0.483436113496E+03   -0.30470E-02   -0.33856E-02  2000   0.595E-01    0.179E-01
DAV:   3    -0.483436149249E+03   -0.35753E-04   -0.16525E-03  2072   0.250E-01    0.207E-01
DAV:   4    -0.483435839954E+03    0.30929E-03   -0.44320E-04  1752   0.823E-02    0.853E-02
DAV:   5    -0.483435862106E+03   -0.22152E-04   -0.41195E-04  1952   0.170E-01    0.685E-02
DAV:   6    -0.483435826728E+03    0.35378E-04   -0.24075E-04  1536   0.142E-01    0.192E-02
DAV:   7    -0.483435832248E+03   -0.55201E-05   -0.37242E-05  1152   0.262E-02
  81 F= -.48343583E+03 E0= -.48342761E+03  d E =-.178433E-02
       N       E                     dE             d eps       ncg     rms          rms(c)
DAV:   1    -0.483435182194E+03    0.64453E-03   -0.52438E-01  1424   0.158E+00    0.100E-01
DAV:   2    -0.483436077833E+03   -0.89564E-03   -0.99098E-03  2008   0.314E-01    0.860E-02
DAV:   3    -0.483436085568E+03   -0.77347E-05   -0.38598E-04  1936   0.869E-02    0.101E-01
DAV:   4    -0.483436016269E+03    0.69299E-04   -0.11450E-04  1416   0.526E-02    0.487E-02
DAV:   5    -0.483436020662E+03   -0.43927E-05   -0.11309E-04  1312   0.107E-01    0.403E-02
DAV:   6    -0.483436009315E+03    0.11347E-04   -0.83917E-05  1272   0.835E-02    0.867E-03
DAV:   7    -0.483436012556E+03   -0.32408E-05   -0.18720E-05  1080   0.178E-02
  82 F= -.48343601E+03 E0= -.48342790E+03  d E =-.196463E-02
       N       E                     dE             d eps       ncg     rms          rms(c)
DAV:   1    -0.483435145739E+03    0.86358E-03   -0.15961E+00  1424   0.269E+00    0.160E-01
DAV:   2    -0.483437739214E+03   -0.25935E-02   -0.28714E-02  1976   0.540E-01    0.126E-01
DAV:   3    -0.483437677161E+03    0.62053E-04   -0.99882E-04  2184   0.216E-01    0.112E-01
DAV:   4    -0.483437667898E+03    0.92626E-05   -0.31412E-04  1864   0.116E-01    0.116E-01
DAV:   5    -0.483437624017E+03    0.43881E-04   -0.27824E-04  1624   0.104E-01    0.629E-02
DAV:   6    -0.483437595048E+03    0.28969E-04   -0.20988E-04  1392   0.126E-01    0.162E-02
DAV:   7    -0.483437598586E+03   -0.35383E-05   -0.28650E-05  1112   0.210E-02
  83 F= -.48343760E+03 E0= -.48342958E+03  d E =-.158603E-02
       N       E                     dE             d eps       ncg     rms          rms(c)
DAV:   1    -0.483435256406E+03    0.23386E-02   -0.19055E+00  1424   0.294E+00    0.175E-01
DAV:   2    -0.483438355118E+03   -0.30987E-02   -0.34303E-02  1984   0.588E-01    0.134E-01
DAV:   3    -0.483438261577E+03    0.93540E-04   -0.11580E-03  2216   0.234E-01    0.110E-01
DAV:   4    -0.483438293561E+03   -0.31984E-04   -0.40878E-04  1984   0.149E-01    0.132E-01
DAV:   5    -0.483438230091E+03    0.63470E-04   -0.30366E-04  1696   0.890E-02    0.717E-02
DAV:   6    -0.483438192218E+03    0.37872E-04   -0.24187E-04  1392   0.131E-01    0.189E-02
DAV:   7    -0.483438195300E+03   -0.30812E-05   -0.29192E-05  1136   0.237E-02
  84 F= -.48343820E+03 E0= -.48343027E+03  d E =-.218274E-02
       N       E                     dE             d eps       ncg     rms          rms(c)
DAV:   1    -0.483436432034E+03    0.17602E-02   -0.22601E+00  1408   0.315E+00    0.196E-01
DAV:   2    -0.483440412792E+03   -0.39808E-02   -0.43761E-02  1968   0.722E-01    0.174E-01
DAV:   3    -0.483440219591E+03    0.19320E-03   -0.19921E-03  2136   0.316E-01    0.138E-01
DAV:   4    -0.483440183732E+03    0.35859E-04   -0.42588E-04  1640   0.742E-02    0.126E-01
DAV:   5    -0.483440130506E+03    0.53225E-04   -0.37803E-04  1696   0.173E-01    0.930E-02
DAV:   6    -0.483440073486E+03    0.57020E-04   -0.30785E-04  1848   0.132E-01    0.154E-02
DAV:   7    -0.483440079641E+03   -0.61553E-05   -0.41255E-05  1208   0.160E-02
  85 F= -.48344008E+03 E0= -.48343227E+03  d E =-.188434E-02
       N       E                     dE             d eps       ncg     rms          rms(c)
DAV:   1    -0.483439638434E+03    0.43505E-03   -0.37027E-01  1408   0.128E+00    0.820E-02
DAV:   2    -0.483440357154E+03   -0.71872E-03   -0.79158E-03  2024   0.334E-01    0.787E-02
DAV:   3    -0.483440297148E+03    0.60006E-04   -0.42850E-04  1744   0.169E-01    0.445E-02
DAV:   4    -0.483440285959E+03    0.11189E-04   -0.70625E-05  1344   0.656E-02    0.305E-02
DAV:   5    -0.483440288393E+03   -0.24343E-05   -0.67804E-05  1576   0.309E-02
  86 F= -.48344029E+03 E0= -.48343251E+03  d E =-.209309E-02
       N       E                     dE             d eps       ncg     rms          rms(c)
DAV:   1    -0.483439219705E+03    0.10663E-02   -0.16682E+00  1440   0.269E+00    0.174E-01
DAV:   2    -0.483442247073E+03   -0.30274E-02   -0.34076E-02  2040   0.684E-01    0.165E-01
DAV:   3    -0.483442014697E+03    0.23238E-03   -0.18949E-03  2120   0.324E-01    0.108E-01
DAV:   4    -0.483442015532E+03   -0.83477E-06   -0.35738E-04  1816   0.786E-02    0.116E-01
DAV:   5    -0.483441965377E+03    0.50155E-04   -0.22029E-04  1536   0.119E-01    0.849E-02
DAV:   6    -0.483441920428E+03    0.44949E-04   -0.23136E-04  1744   0.106E-01    0.157E-02
DAV:   7    -0.483441925561E+03   -0.51327E-05   -0.32517E-05  1168   0.154E-02
  87 F= -.48344193E+03 E0= -.48343402E+03  d E =-.163717E-02
       N       E                     dE             d eps       ncg     rms          rms(c)
DAV:   1    -0.483441457743E+03    0.46269E-03   -0.38571E-01  1440   0.129E+00    0.854E-02
DAV:   2    -0.483442231535E+03   -0.77379E-03   -0.84997E-03  2040   0.342E-01    0.917E-02
DAV:   3    -0.483442170515E+03    0.61019E-04   -0.46250E-04  1896   0.147E-01    0.660E-02
DAV:   4    -0.483442159045E+03    0.11470E-04   -0.91523E-05  1400   0.449E-02    0.568E-02
DAV:   5    -0.483442140597E+03    0.18448E-04   -0.71050E-05  1352   0.791E-02    0.341E-02
DAV:   6    -0.483442136229E+03    0.43682E-05   -0.59470E-05  1312   0.462E-02
  88 F= -.48344214E+03 E0= -.48343418E+03  d E =-.184784E-02
       N       E                     dE             d eps       ncg     rms          rms(c)
DAV:   1    -0.483441019365E+03    0.11212E-02   -0.17393E+00  1440   0.268E+00    0.171E-01
DAV:   2    -0.483443843065E+03   -0.28237E-02   -0.30532E-02  1992   0.566E-01    0.181E-01
DAV:   3    -0.483443790236E+03    0.52829E-04   -0.14624E-03  1808   0.158E-01    0.179E-01
DAV:   4    -0.483443553372E+03    0.23686E-03   -0.37901E-04  1808   0.108E-01    0.820E-02
DAV:   5    -0.483443548966E+03    0.44058E-05   -0.33209E-04  1624   0.173E-01    0.691E-02
DAV:   6    -0.483443514872E+03    0.34094E-04   -0.22722E-04  1456   0.124E-01    0.173E-02
DAV:   7    -0.483443520626E+03   -0.57539E-05   -0.41544E-05  1184   0.203E-02
  89 F= -.48344352E+03 E0= -.48343574E+03  d E =-.138440E-02
       N       E                     dE             d eps       ncg     rms          rms(c)
DAV:   1    -0.483442920023E+03    0.59485E-03   -0.52888E-01  1424   0.148E+00    0.965E-02
DAV:   2    -0.483443847500E+03   -0.92748E-03   -0.10150E-02  2000   0.360E-01    0.104E-01
DAV:   3    -0.483443795354E+03    0.52145E-04   -0.55649E-04  1976   0.141E-01    0.885E-02
DAV:   4    -0.483443748752E+03    0.46603E-04   -0.11754E-04  1392   0.588E-02    0.543E-02
DAV:   5    -0.483443736426E+03    0.12326E-04   -0.94391E-05  1312   0.957E-02    0.391E-02
DAV:   6    -0.483443730258E+03    0.61674E-05   -0.79698E-05  1472   0.536E-02
  90 F= -.48344373E+03 E0= -.48343606E+03  d E =-.159403E-02
       N       E                     dE             d eps       ncg     rms          rms(c)
DAV:   1    -0.483442248968E+03    0.14875E-02   -0.20576E+00  1408   0.285E+00    0.178E-01
DAV:   2    -0.483445456231E+03   -0.32073E-02   -0.35367E-02  2008   0.596E-01    0.145E-01
DAV:   3    -0.483445430251E+03    0.25981E-04   -0.12959E-03  2016   0.180E-01    0.164E-01
DAV:   4    -0.483445267922E+03    0.16233E-03   -0.34996E-04  1688   0.735E-02    0.951E-02
DAV:   5    -0.483445254259E+03    0.13663E-04   -0.34540E-04  1680   0.175E-01    0.765E-02
DAV:   6    -0.483445205047E+03    0.49212E-04   -0.27678E-04  1488   0.144E-01    0.169E-02
DAV:   7    -0.483445211963E+03   -0.69165E-05   -0.47164E-05  1208   0.253E-02
  91 F= -.48344521E+03 E0= -.48343760E+03  d E =-.148171E-02
       N       E                     dE             d eps       ncg     rms          rms(c)
DAV:   1    -0.483444599552E+03    0.60550E-03   -0.52528E-01  1408   0.144E+00    0.918E-02
DAV:   2    -0.483445480546E+03   -0.88099E-03   -0.97658E-03  2000   0.344E-01    0.824E-02
DAV:   3    -0.483445429413E+03    0.51133E-04   -0.50471E-04  1936   0.162E-01    0.610E-02
DAV:   4    -0.483445422056E+03    0.73561E-05   -0.95454E-05  1400   0.403E-02
  92 F= -.48344542E+03 E0= -.48343813E+03  d E =-.169180E-02
       N       E                     dE             d eps       ncg     rms          rms(c)
DAV:   1    -0.483443847797E+03    0.15816E-02   -0.19103E+00  1408   0.270E+00    0.177E-01
DAV:   2    -0.483447127037E+03   -0.32792E-02   -0.36226E-02  1952   0.623E-01    0.169E-01
DAV:   3    -0.483446929054E+03    0.19798E-03   -0.15195E-03  2160   0.263E-01    0.140E-01
DAV:   4    -0.483446868099E+03    0.60955E-04   -0.38650E-04  1720   0.735E-02    0.118E-01
DAV:   5    -0.483446809784E+03    0.58315E-04   -0.38016E-04  1752   0.176E-01    0.842E-02
DAV:   6    -0.483446760544E+03    0.49241E-04   -0.30629E-04  1736   0.128E-01    0.146E-02
DAV:   7    -0.483446766578E+03   -0.60340E-05   -0.40341E-05  1160   0.156E-02
  93 F= -.48344677E+03 E0= -.48343906E+03  d E =-.134452E-02
       N       E                     dE             d eps       ncg     rms          rms(c)
DAV:   1    -0.483446301456E+03    0.45909E-03   -0.43473E-01  1408   0.129E+00    0.825E-02
DAV:   2    -0.483447062236E+03   -0.76078E-03   -0.83116E-03  1984   0.342E-01    0.892E-02
DAV:   3    -0.483447005059E+03    0.57176E-04   -0.47174E-04  1760   0.165E-01    0.615E-02
DAV:   4    -0.483446996168E+03    0.88914E-05   -0.86198E-05  1304   0.365E-02
  94 F= -.48344700E+03 E0= -.48343902E+03  d E =-.157411E-02
       N       E                     dE             d eps       ncg     rms          rms(c)
DAV:   1    -0.483444931895E+03    0.20732E-02   -0.19542E+00  1408   0.273E+00    0.262E-01
DAV:   2    -0.483451182095E+03   -0.62502E-02   -0.45798E-02  1872   0.574E-01    0.577E-01
DAV:   3    -0.483448501856E+03    0.26802E-02   -0.57737E-03  1824   0.306E-01    0.184E-01
DAV:   4    -0.483448233272E+03    0.26858E-03   -0.75142E-04  1808   0.108E-01    0.871E-02
DAV:   5    -0.483448208041E+03    0.25230E-04   -0.31878E-04  2016   0.995E-02    0.717E-02
DAV:   6    -0.483448174916E+03    0.33125E-04   -0.15668E-04  1488   0.103E-01    0.213E-02
DAV:   7    -0.483448171738E+03    0.31779E-05   -0.36469E-05  1144   0.554E-02
  95 F= -.48344817E+03 E0= -.48344054E+03  d E =-.117557E-02
       N       E                     dE             d eps       ncg     rms          rms(c)
DAV:   1    -0.483448029832E+03    0.14508E-03   -0.11443E-01  1408   0.659E-01    0.630E-02
DAV:   2    -0.483448436846E+03   -0.40701E-03   -0.27845E-03  1944   0.142E-01    0.154E-01
DAV:   3    -0.483448240998E+03    0.19585E-03   -0.30707E-04  1648   0.689E-02    0.436E-02
DAV:   4    -0.483448229658E+03    0.11339E-04   -0.47783E-05  1312   0.416E-02    0.215E-02
DAV:   5    -0.483448229844E+03   -0.18612E-06   -0.29991E-05  1104   0.547E-02
  96 F= -.48344823E+03 E0= -.48344059E+03  d E =-.123368E-02
       N       E                     dE             d eps       ncg     rms          rms(c)
DAV:   1    -0.483446985817E+03    0.12438E-02   -0.16362E+00  1408   0.251E+00    0.186E-01
DAV:   2    -0.483450073736E+03   -0.30879E-02   -0.33237E-02  1976   0.573E-01    0.232E-01
DAV:   3    -0.483449775311E+03    0.29842E-03   -0.16744E-03  1920   0.198E-01    0.175E-01
DAV:   4    -0.483449559453E+03    0.21586E-03   -0.56697E-04  1896   0.157E-01    0.937E-02
DAV:   5    -0.483449505399E+03    0.54055E-04   -0.43168E-04  1688   0.200E-01    0.662E-02
DAV:   6    -0.483449474879E+03    0.30520E-04   -0.25934E-04  1712   0.106E-01    0.130E-02
DAV:   7    -0.483449478038E+03   -0.31592E-05   -0.23103E-05  1080   0.176E-02
  97 F= -.48344948E+03 E0= -.48344190E+03  d E =-.124819E-02
       N       E                     dE             d eps       ncg     rms          rms(c)
DAV:   1    -0.483449170305E+03    0.30457E-03   -0.19852E-01  1408   0.879E-01    0.645E-02
DAV:   2    -0.483449585343E+03   -0.41504E-03   -0.45193E-03  2008   0.205E-01    0.720E-02
DAV:   3    -0.483449563531E+03    0.21812E-04   -0.19416E-04  1680   0.721E-02    0.617E-02
DAV:   4    -0.483449536980E+03    0.26551E-04   -0.63494E-05  1344   0.471E-02    0.334E-02
DAV:   5    -0.483449532107E+03    0.48731E-05   -0.51723E-05  1176   0.712E-02
  98 F= -.48344953E+03 E0= -.48344195E+03  d E =-.130226E-02
       N       E                     dE             d eps       ncg     rms          rms(c)
DAV:   1    -0.483448333030E+03    0.12039E-02   -0.17253E+00  1408   0.254E+00    0.159E-01
DAV:   2    -0.483450709525E+03   -0.23765E-02   -0.26839E-02  1960   0.490E-01    0.124E-01
DAV:   3    -0.483450690243E+03    0.19282E-04   -0.11716E-03  2072   0.160E-01    0.132E-01
DAV:   4    -0.483450601031E+03    0.89212E-04   -0.26337E-04  1608   0.613E-02    0.953E-02
DAV:   5    -0.483450569515E+03    0.31517E-04   -0.26068E-04  1432   0.140E-01    0.631E-02
DAV:   6    -0.483450537580E+03    0.31935E-04   -0.21258E-04  1376   0.132E-01    0.176E-02
DAV:   7    -0.483450542760E+03   -0.51798E-05   -0.44889E-05  1232   0.314E-02
  99 F= -.48345054E+03 E0= -.48344288E+03  d E =-.101065E-02
       N       E                     dE             d eps       ncg     rms          rms(c)
DAV:   1    -0.483450286855E+03    0.25072E-03   -0.25140E-01  1408   0.969E-01    0.614E-02
DAV:   2    -0.483450650269E+03   -0.36341E-03   -0.40342E-03  2000   0.201E-01    0.536E-02
DAV:   3    -0.483450644679E+03    0.55898E-05   -0.19332E-04  1720   0.918E-02    0.556E-02
DAV:   4    -0.483450626850E+03    0.17829E-04   -0.42988E-05  1240   0.320E-02    0.363E-02
DAV:   5    -0.483450622986E+03    0.38640E-05   -0.40745E-05  1184   0.488E-02
 100 F= -.48345062E+03 E0= -.48344298E+03  d E =-.109088E-02
       N       E                     dE             d eps       ncg     rms          rms(c)
DAV:   1    -0.483449518587E+03    0.11083E-02   -0.13413E+00  1432   0.227E+00    0.150E-01
DAV:   2    -0.483451861948E+03   -0.23434E-02   -0.25452E-02  1984   0.556E-01    0.163E-01
DAV:   3    -0.483451694695E+03    0.16725E-03   -0.13186E-03  2168   0.234E-01    0.124E-01
DAV:   4    -0.483451627227E+03    0.67468E-04   -0.28598E-04  1736   0.808E-02    0.100E-01
DAV:   5    -0.483451569215E+03    0.58012E-04   -0.23644E-04  1424   0.138E-01    0.603E-02
DAV:   6    -0.483451547401E+03    0.21814E-04   -0.20104E-04  1792   0.891E-02    0.143E-02
DAV:   7    -0.483451549537E+03   -0.21360E-05   -0.22563E-05  1096   0.175E-02
 101 F= -.48345155E+03 E0= -.48344365E+03  d E =-.926550E-03
       N       E                     dE             d eps       ncg     rms          rms(c)
DAV:   1    -0.483451544776E+03    0.26251E-05   -0.43882E-03  1464   0.132E-01    0.113E-02
DAV:   2    -0.483451554736E+03   -0.99603E-05   -0.10582E-04  1488   0.388E-02    0.954E-03
DAV:   3    -0.483451554926E+03   -0.19017E-06   -0.90357E-06   888   0.282E-02
 102 F= -.48345155E+03 E0= -.48344361E+03  d E =-.931940E-03
       N       E                     dE             d eps       ncg     rms          rms(c)
DAV:   1    -0.483451194913E+03    0.35982E-03   -0.86263E-01  1408   0.183E+00    0.129E-01
DAV:   2    -0.483452989423E+03   -0.17945E-02   -0.15579E-02  2008   0.432E-01    0.266E-01
DAV:   3    -0.483452480723E+03    0.50870E-03   -0.11911E-03  1728   0.135E-01    0.108E-01
DAV:   4    -0.483452393688E+03    0.87035E-04   -0.29250E-04  1544   0.138E-01    0.671E-02
DAV:   5    -0.483452368536E+03    0.25152E-04   -0.17307E-04  1496   0.117E-01    0.436E-02
DAV:   6    -0.483452362644E+03    0.58923E-05   -0.13369E-04  1560   0.647E-02    0.920E-03
DAV:   7    -0.483452363374E+03   -0.73040E-06   -0.10654E-05  1056   0.156E-02
 103 F= -.48345236E+03 E0= -.48344448E+03  d E =-.808448E-03
       N       E                     dE             d eps       ncg     rms          rms(c)
DAV:   1    -0.483452277110E+03    0.85534E-04   -0.98319E-02  1408   0.620E-01    0.428E-02
DAV:   2    -0.483452470865E+03   -0.19375E-03   -0.17837E-03  2008   0.147E-01    0.777E-02
DAV:   3    -0.483452427467E+03    0.43397E-04   -0.12399E-04  1480   0.460E-02    0.363E-02
DAV:   4    -0.483452418635E+03    0.88323E-05   -0.30298E-05  1104   0.447E-02
 104 F= -.48345242E+03 E0= -.48344448E+03  d E =-.863709E-03
       N       E                     dE             d eps       ncg     rms          rms(c)
DAV:   1    -0.483452113032E+03    0.31444E-03   -0.78565E-01  1408   0.175E+00    0.119E-01
DAV:   2    -0.483453192441E+03   -0.10794E-02   -0.12231E-02  1944   0.312E-01    0.887E-02
DAV:   3    -0.483453206832E+03   -0.14392E-04   -0.48090E-04  1936   0.841E-02    0.110E-01
DAV:   4    -0.483453133763E+03    0.73070E-04   -0.14761E-04  1424   0.497E-02    0.620E-02
DAV:   5    -0.483453126808E+03    0.69548E-05   -0.10892E-04  1344   0.880E-02    0.392E-02
DAV:   6    -0.483453118164E+03    0.86442E-05   -0.10431E-04  1312   0.967E-02    0.150E-02
DAV:   7    -0.483453118445E+03   -0.28135E-06   -0.22893E-05  1104   0.361E-02
 105 F= -.48345312E+03 E0= -.48344531E+03  d E =-.699810E-03
       N       E                     dE             d eps       ncg     rms          rms(c)
DAV:   1    -0.483452971665E+03    0.14650E-03   -0.11713E-01  1408   0.679E-01    0.469E-02
DAV:   2    -0.483453181944E+03   -0.21028E-03   -0.23245E-03  2032   0.167E-01    0.412E-02
DAV:   3    -0.483453167032E+03    0.14912E-04   -0.12377E-04  1536   0.876E-02    0.274E-02
DAV:   4    -0.483453166268E+03    0.76368E-06   -0.23108E-05  1064   0.309E-02
 106 F= -.48345317E+03 E0= -.48344551E+03  d E =-.747634E-03
       N       E                     dE             d eps       ncg     rms          rms(c)
DAV:   1    -0.483453043458E+03    0.12357E-03   -0.55248E-01  1408   0.146E+00    0.931E-02
DAV:   2    -0.483453840536E+03   -0.79708E-03   -0.88738E-03  2008   0.281E-01    0.729E-02
DAV:   3    -0.483453807651E+03    0.32884E-04   -0.33274E-04  2064   0.111E-01    0.604E-02
DAV:   4    -0.483453812848E+03   -0.51971E-05   -0.10605E-04  1440   0.530E-02    0.665E-02
DAV:   5    -0.483453801752E+03    0.11096E-04   -0.79625E-05  1384   0.656E-02    0.471E-02
DAV:   6    -0.483453785061E+03    0.16691E-04   -0.83261E-05  1240   0.829E-02    0.117E-02
DAV:   7    -0.483453786690E+03   -0.16286E-05   -0.14487E-05   992   0.180E-02
 107 F= -.48345379E+03 E0= -.48344589E+03  d E =-.620421E-03
