<?xml version="1.0" encoding="ISO-8859-1"?>
<modeling>
 <generator>
  <i name="program" type="string">vasp </i>
  <i name="version" type="string">6.3.2  </i>
  <i name="subversion" type="string">27Jun22 (build May 04 2024 18:40:40) complex                          parallel </i>
  <i name="platform" type="string">LinuxIFC </i>
  <i name="date" type="string">2024 09 03 </i>
  <i name="time" type="string">00:53:22 </i>
 </generator>
 <incar>
  <i type="string" name="SYSTEM">slab_Cel1-OPT</i>
  <i type="int" name="ISTART">     0</i>
  <i type="string" name="PREC">N</i>
  <i type="string" name="ALGO">N</i>
  <i type="int" name="ICHARG">     2</i>
  <i type="int" name="NELM">   200</i>
  <i type="int" name="IBRION">     2</i>
  <i name="EDIFF">      0.00001000</i>
  <i name="EDIFFG">     -0.05000000</i>
  <i type="int" name="NSW">  1000</i>
  <i type="int" name="ISIF">     3</i>
  <i name="ENCUT">    400.00000000</i>
  <i name="POTIM">      0.10000000</i>
  <i type="string" name="LREAL">AUTO</i>
  <i type="int" name="ISMEAR">     0</i>
  <i name="SIGMA">      0.10000000</i>
  <i type="logical" name="LWAVE"> F  </i>
  <i type="logical" name="LCHARG"> F  </i>
  <i type="logical" name="LELF"> F  </i>
  <i type="logical" name="LAECHG"> F  </i>
  <i type="logical" name="LDIPOL"> T  </i>
  <i type="int" name="IDIPOL">     3</i>
 </incar>
 <primitive_cell>
  <structure name="primitive_cell" >
   <crystal>
    <varray name="basis" >
     <v>      13.75970367       0.00000000       0.00000000 </v>
     <v>       0.00000000      11.28669971       0.00000000 </v>
     <v>       0.00000000       0.00000000      15.00000000 </v>
    </varray>
    <i name="volume">   2329.52465126 </i>
    <varray name="rec_basis" >
     <v>       0.07267598       0.00000000       0.00000000 </v>
     <v>       0.00000000       0.08859986       0.00000000 </v>
     <v>       0.00000000       0.00000000       0.06666667 </v>
    </varray>
   </crystal>
   <varray name="positions" >
    <v>       0.07054120       0.38816457       0.22227495 </v>
    <v>       0.98151180       0.21832942       0.16785344 </v>
    <v>       0.22877304       0.39667288       0.18904348 </v>
    <v>       0.82472337       0.57572318       0.18403191 </v>
    <v>       0.14970601       0.24663792       0.12277753 </v>
    <v>       0.90758628       0.38434512       0.21811946 </v>
    <v>       0.56886571       0.39316130       0.23173729 </v>
    <v>       0.47768100       0.22391730       0.18017943 </v>
    <v>       0.73035049       0.39802658       0.19909345 </v>
    <v>       0.31101118       0.58132963       0.17977696 </v>
    <v>       0.64681854       0.25040749       0.13377315 </v>
    <v>       0.40275100       0.39355427       0.22106508 </v>
    <v>       0.81808056       0.88988957       0.05647519 </v>
    <v>       0.73319531       0.72568325       0.12448457 </v>
    <v>       0.97932824       0.89597624       0.07999408 </v>
    <v>       0.06867909       0.07698375       0.09423854 </v>
    <v>       0.90528082       0.74258583       0.14719628 </v>
    <v>       0.65472406       0.89333727       0.07691603 </v>
    <v>       0.31825350       0.89473226       0.05377466 </v>
    <v>       0.22716619       0.72126926       0.10084126 </v>
    <v>       0.47498917       0.90396535       0.09489577 </v>
    <v>       0.56592959       0.08075138       0.11024766 </v>
    <v>       0.38612516       0.76037560       0.16363174 </v>
    <v>       0.15509033       0.88950396       0.05271529 </v>
    <v>       0.98784551       0.43883046       0.24713656 </v>
    <v>       0.89991795       0.26975381       0.19549767 </v>
    <v>       0.15759857       0.43325808       0.24240148 </v>
    <v>       0.14788829       0.14353661       0.08017307 </v>
    <v>       0.98633649       0.10796021       0.13653167 </v>
    <v>       0.22915942       0.31533454       0.12527490 </v>
    <v>       0.06735802       0.28598388       0.16888911 </v>
    <v>       0.82274912       0.45552252       0.21014877 </v>
    <v>       0.48493735       0.44793349       0.25146232 </v>
    <v>       0.39648714       0.27665554       0.20625030 </v>
    <v>       0.65756919       0.43524210       0.25419888 </v>
    <v>       0.64488604       0.14640144       0.09374788 </v>
    <v>       0.48286722       0.11321356       0.15081376 </v>
    <v>       0.72606390       0.31870920       0.13454719 </v>
    <v>       0.56470606       0.29135323       0.18008364 </v>
    <v>       0.31888640       0.46086995       0.20329135 </v>
    <v>       0.73287748       0.94248397       0.03965616 </v>
    <v>       0.64891188       0.78317499       0.11254597 </v>
    <v>       0.90382696       0.93469024       0.03189926 </v>
    <v>       0.90701680       0.63807548       0.18754912 </v>
    <v>       0.73647441       0.61699787       0.15934394 </v>
    <v>       0.98321706       0.81212363       0.14197152 </v>
    <v>       0.81925020       0.78400528       0.10639513 </v>
    <v>       0.56804185       0.96074410       0.08520074 </v>
    <v>       0.23699719       0.94478449       0.02657725 </v>
    <v>       0.14820250       0.77173059       0.06843984 </v>
    <v>       0.40793432       0.93556381       0.03646331 </v>
    <v>       0.38047481       0.65838217       0.20939239 </v>
    <v>       0.23501053       0.60894863       0.12850628 </v>
    <v>       0.46527775       0.83024755       0.16578047 </v>
    <v>       0.31113112       0.79334051       0.10891910 </v>
    <v>       0.06990262       0.95754122       0.06514651 </v>
    <v>       0.57736557       0.77647674       0.24193941 </v>
    <v>       0.65582252       0.60772566       0.29790490 </v>
    <v>       0.48700699       0.61617049       0.29396059 </v>
   </varray>
  </structure>
  <varray name="primitive_index" >
   <v type="int" >        1 </v>
   <v type="int" >        2 </v>
   <v type="int" >        3 </v>
   <v type="int" >        4 </v>
   <v type="int" >        5 </v>
   <v type="int" >        6 </v>
   <v type="int" >        7 </v>
   <v type="int" >        8 </v>
   <v type="int" >        9 </v>
   <v type="int" >       10 </v>
   <v type="int" >       11 </v>
   <v type="int" >       12 </v>
   <v type="int" >       13 </v>
   <v type="int" >       14 </v>
   <v type="int" >       15 </v>
   <v type="int" >       16 </v>
   <v type="int" >       17 </v>
   <v type="int" >       18 </v>
   <v type="int" >       19 </v>
   <v type="int" >       20 </v>
   <v type="int" >       21 </v>
   <v type="int" >       22 </v>
   <v type="int" >       23 </v>
   <v type="int" >       24 </v>
   <v type="int" >       25 </v>
   <v type="int" >       26 </v>
   <v type="int" >       27 </v>
   <v type="int" >       28 </v>
   <v type="int" >       29 </v>
   <v type="int" >       30 </v>
   <v type="int" >       31 </v>
   <v type="int" >       32 </v>
   <v type="int" >       33 </v>
   <v type="int" >       34 </v>
   <v type="int" >       35 </v>
   <v type="int" >       36 </v>
   <v type="int" >       37 </v>
   <v type="int" >       38 </v>
   <v type="int" >       39 </v>
   <v type="int" >       40 </v>
   <v type="int" >       41 </v>
   <v type="int" >       42 </v>
   <v type="int" >       43 </v>
   <v type="int" >       44 </v>
   <v type="int" >       45 </v>
   <v type="int" >       46 </v>
   <v type="int" >       47 </v>
   <v type="int" >       48 </v>
   <v type="int" >       49 </v>
   <v type="int" >       50 </v>
   <v type="int" >       51 </v>
   <v type="int" >       52 </v>
   <v type="int" >       53 </v>
   <v type="int" >       54 </v>
   <v type="int" >       55 </v>
   <v type="int" >       56 </v>
   <v type="int" >       57 </v>
   <v type="int" >       58 </v>
   <v type="int" >       59 </v>
  </varray>
 </primitive_cell>
 <kpoints>
  <generation param="Gamma">
   <v type="int" name="divisions">       2        2        1 </v>
   <v name="usershift">      0.00000000       0.00000000       0.00000000 </v>
   <v name="genvec1">      0.50000000       0.00000000       0.00000000 </v>
   <v name="genvec2">      0.00000000       0.50000000       0.00000000 </v>
   <v name="genvec3">      0.00000000       0.00000000       1.00000000 </v>
   <v name="shift">      0.00000000       0.00000000       0.00000000 </v>
  </generation>
  <varray name="kpointlist" >
   <v>       0.00000000       0.00000000       0.00000000 </v>
   <v>       0.50000000       0.00000000       0.00000000 </v>
   <v>       0.00000000       0.50000000       0.00000000 </v>
   <v>       0.50000000       0.50000000       0.00000000 </v>
  </varray>
  <varray name="weights" >
   <v>       0.25000000 </v>
   <v>       0.25000000 </v>
   <v>       0.25000000 </v>
   <v>       0.25000000 </v>
  </varray>
 </kpoints>
 <parameters>
  <separator name="general" >
   <i type="string" name="SYSTEM">slab_Cel1-OPT</i>
   <i type="logical" name="LCOMPAT"> F  </i>
  </separator>
  <separator name="electronic" >
   <i type="string" name="PREC">n</i>
   <i name="ENMAX">    400.00000000</i>
   <i name="ENAUG">    644.87300000</i>
   <i name="EDIFF">      0.00001000</i>
   <i type="int" name="IALGO">    38</i>
   <i type="int" name="IWAVPR">    11</i>
   <i type="int" name="NBANDS">   176</i>
   <i type="int" name="NBANDSLOW">    -1</i>
   <i type="int" name="NBANDSHIGH">    -1</i>
   <i name="NELECT">    288.00000000</i>
   <i type="int" name="TURBO">     0</i>
   <i type="int" name="IRESTART">     0</i>
   <i type="int" name="NREBOOT">     0</i>
   <i type="int" name="NMIN">     0</i>
   <i name="EREF">      0.00000000</i>
   <separator name="electronic smearing" >
    <i type="int" name="ISMEAR">     0</i>
    <i name="SIGMA">      0.10000000</i>
    <i name="KSPACING">      0.50000000</i>
    <i type="logical" name="KGAMMA"> T  </i>
    <i type="logical" name="KBLOWUP"> T  </i>
   </separator>
   <separator name="electronic projectors" >
    <i type="logical" name="LREAL"> T  </i>
    <v name="ROPT">     -0.00050000     -0.00050000     -0.00050000     -0.00050000     -0.00050000</v>
    <i type="int" name="LMAXPAW">  -100</i>
    <i type="int" name="LMAXMIX">     2</i>
    <i type="logical" name="NLSPLINE"> F  </i>
   </separator>
   <separator name="electronic startup" >
    <i type="int" name="ISTART">     0</i>
    <i type="int" name="ICHARG">     2</i>
    <i type="int" name="INIWAV">     1</i>
   </separator>
   <separator name="electronic spin" >
    <i type="int" name="ISPIN">     1</i>
    <i type="logical" name="LNONCOLLINEAR"> F  </i>
    <v name="MAGMOM">      1.00000000      1.00000000      1.00000000      1.00000000      1.00000000      1.00000000      1.00000000      1.00000000      1.00000000      1.00000000      1.00000000      1.00000000      1.00000000      1.00000000      1.00000000      1.00000000      1.00000000      1.00000000      1.00000000      1.00000000
      1.00000000      1.00000000      1.00000000      1.00000000      1.00000000      1.00000000      1.00000000      1.00000000      1.00000000      1.00000000      1.00000000      1.00000000      1.00000000      1.00000000      1.00000000      1.00000000      1.00000000      1.00000000      1.00000000      1.00000000
      1.00000000      1.00000000      1.00000000      1.00000000      1.00000000      1.00000000      1.00000000      1.00000000      1.00000000      1.00000000      1.00000000      1.00000000      1.00000000      1.00000000      1.00000000      1.00000000      1.00000000      1.00000000      1.00000000</v>
    <i name="NUPDOWN">     -1.00000000</i>
    <i type="logical" name="LSORBIT"> F  </i>
    <v name="SAXIS">      0.00000000      0.00000000      1.00000000</v>
    <i type="logical" name="LSPIRAL"> F  </i>
    <v name="QSPIRAL">      0.00000000      0.00000000      0.00000000</v>
    <i type="logical" name="LZEROZ"> F  </i>
   </separator>
   <separator name="electronic exchange-correlation" >
    <i type="logical" name="LASPH"> F  </i>
    <i type="logical" name="LMETAGGA"> F  </i>
   </separator>
   <separator name="electronic convergence" >
    <i type="int" name="NELM">   200</i>
    <i type="int" name="NELMDL">    -5</i>
    <i type="int" name="NELMIN">     2</i>
    <i name="ENINI">    400.00000000</i>
    <separator name="electronic convergence detail" >
     <i type="logical" name="LDIAG"> T  </i>
     <i type="logical" name="LSUBROT"> F  </i>
     <i name="WEIMIN">      0.00100000</i>
     <i name="EBREAK">      0.00000001</i>
     <i name="DEPER">      0.30000000</i>
     <i type="int" name="NRMM">     4</i>
     <i name="TIME">      0.40000000</i>
    </separator>
   </separator>
   <separator name="electronic mixer" >
    <i name="AMIX">      0.40000000</i>
    <i name="BMIX">      1.00000000</i>
    <i name="AMIN">      0.10000000</i>
    <i name="AMIX_MAG">      1.60000000</i>
    <i name="BMIX_MAG">      1.00000000</i>
    <separator name="electronic mixer details" >
     <i type="int" name="IMIX">     4</i>
     <i type="logical" name="MIXFIRST"> F  </i>
     <i type="int" name="MAXMIX">   -45</i>
     <i name="WC">    100.00000000</i>
     <i type="int" name="INIMIX">     1</i>
     <i type="int" name="MIXPRE">     1</i>
     <i type="int" name="MREMOVE">     5</i>
    </separator>
   </separator>
   <separator name="electronic dipolcorrection" >
    <i type="logical" name="LDIPOL"> T  </i>
    <i type="logical" name="LMONO"> F  </i>
    <i type="int" name="IDIPOL">     3</i>
    <i name="EPSILON">      1.00000000</i>
    <v name="DIPOL">   -100.00000000   -100.00000000   -100.00000000</v>
    <i name="EFIELD">      0.00000000</i>
   </separator>
  </separator>
  <separator name="grids" >
   <i type="int" name="NGX">    70</i>
   <i type="int" name="NGY">    56</i>
   <i type="int" name="NGZ">    80</i>
   <i type="int" name="NGXF">   140</i>
   <i type="int" name="NGYF">   112</i>
   <i type="int" name="NGZF">   160</i>
   <i type="logical" name="ADDGRID"> F  </i>
  </separator>
  <separator name="ionic" >
   <i type="int" name="NSW">  1000</i>
   <i type="int" name="IBRION">     2</i>
   <i type="int" name="MDALGO">     0</i>
   <i type="int" name="ISIF">     3</i>
   <i name="PSTRESS">      0.00000000</i>
   <i name="EDIFFG">     -0.05000000</i>
   <i type="int" name="NFREE">     1</i>
   <i name="POTIM">      0.10000000</i>
   <i name="SMASS">     -3.00000000</i>
   <i name="SCALEE">      1.00000000</i>
  </separator>
  <separator name="ionic md" >
   <i name="TEBEG">      0.00010000</i>
   <i name="TEEND">      0.00010000</i>
   <i type="int" name="NBLOCK">     1</i>
   <i type="int" name="KBLOCK">  1000</i>
   <i type="int" name="NPACO">   256</i>
   <i name="APACO">     10.00000000</i>
  </separator>
  <separator name="symmetry" >
   <i type="int" name="ISYM">     2</i>
   <i name="SYMPREC">      0.00001000</i>
  </separator>
  <separator name="dos" >
   <i type="int" name="LORBIT">     0</i>
   <v name="RWIGS">     -1.00000000     -1.00000000     -1.00000000     -1.00000000     -1.00000000</v>
   <i type="int" name="NEDOS">   301</i>
   <i name="EMIN">     10.00000000</i>
   <i name="EMAX">    -10.00000000</i>
   <i name="EFERMI">      0.00000000</i>
  </separator>
  <separator name="writing" >
   <i type="int" name="NWRITE">     2</i>
   <i type="logical" name="LWAVE"> F  </i>
   <i type="logical" name="LDOWNSAMPLE"> F  </i>
   <i type="logical" name="LCHARG"> F  </i>
   <i type="logical" name="LPARD"> F  </i>
   <i type="logical" name="LVTOT"> F  </i>
   <i type="logical" name="LVHAR"> F  </i>
   <i type="logical" name="LELF"> F  </i>
   <i type="logical" name="LOPTICS"> F  </i>
   <v name="STM">      0.00000000      0.00000000      0.00000000      0.00000000      0.00000000      0.00000000      0.00000000</v>
  </separator>
  <separator name="performance" >
   <i type="int" name="NPAR">     4</i>
   <i type="int" name="NSIM">     4</i>
   <i type="int" name="NBLK">    -1</i>
   <i type="logical" name="LPLANE"> T  </i>
   <i type="logical" name="LSCALAPACK"> T  </i>
   <i type="logical" name="LSCAAWARE"> F  </i>
   <i type="logical" name="LSCALU"> F  </i>
   <i type="logical" name="LASYNC"> F  </i>
   <i type="logical" name="LORBITALREAL"> F  </i>
  </separator>
  <separator name="miscellaneous" >
   <i type="int" name="IDIOT">     3</i>
   <i type="int" name="PHON_NSTRUCT">    -1</i>
   <i type="logical" name="LMUSIC"> F  </i>
   <v name="POMASS">     12.01100000     14.00100000    196.96600000     63.54600000    106.42000000</v>
   <v name="DARWINR">      0.00000000      0.00000000      0.00000000      0.00000000      0.00000000</v>
   <v name="DARWINV">      1.00000000      1.00000000      1.00000000      1.00000000      1.00000000</v>
   <i type="logical" name="LCORR"> T  </i>
  </separator>
  <i type="logical" name="GGA_COMPAT"> T  </i>
  <i type="logical" name="LBERRY"> F  </i>
  <i type="int" name="ICORELEVEL">     0</i>
  <i type="logical" name="LDAU"> F  </i>
  <i type="int" name="I_CONSTRAINED_M">     0</i>
  <separator name="electronic exchange-correlation" >
   <i type="string" name="GGA">--</i>
   <i type="int" name="VOSKOWN">     0</i>
   <i type="logical" name="LHFCALC"> F  </i>
   <i type="string" name="PRECFOCK"></i>
   <i type="logical" name="LSYMGRAD"> F  </i>
   <i type="logical" name="LHFONE"> F  </i>
   <i type="logical" name="LRHFCALC"> F  </i>
   <i type="logical" name="LTHOMAS"> F  </i>
   <i type="logical" name="LMODELHF"> F  </i>
   <i type="logical" name="LFOCKACE"> F  </i>
   <i name="ENCUT4O">     -1.00000000</i>
   <i type="int" name="EXXOEP">     0</i>
   <i type="int" name="FOURORBIT">     0</i>
   <i name="AEXX">      0.00000000</i>
   <i name="HFALPHA">      0.00000000</i>
   <i name="MCALPHA">      0.00000000</i>
   <i name="ALDAX">      1.00000000</i>
   <i name="AGGAX">      1.00000000</i>
   <i name="ALDAC">      1.00000000</i>
   <i name="AGGAC">      1.00000000</i>
   <i type="int" name="NKREDX">     1</i>
   <i type="int" name="NKREDY">     1</i>
   <i type="int" name="NKREDZ">     1</i>
   <i type="logical" name="SHIFTRED"> F  </i>
   <i type="logical" name="ODDONLY"> F  </i>
   <i type="logical" name="EVENONLY"> F  </i>
   <i type="int" name="LMAXFOCK">     0</i>
   <i type="int" name="NMAXFOCKAE">     0</i>
   <i type="logical" name="LFOCKAEDFT"> F  </i>
   <i name="HFSCREEN">      0.00000000</i>
   <i name="HFSCREENC">      0.00000000</i>
   <i type="int" name="NBANDSGWLOW">     0</i>
  </separator>
  <separator name="vdW DFT" >
   <i type="logical" name="LUSE_VDW"> F  </i>
   <i name="Zab_VDW">     -0.84910000</i>
   <i name="PARAM1">      0.12340000</i>
   <i name="PARAM2">      1.00000000</i>
   <i name="PARAM3">      0.00000000</i>
  </separator>
  <separator name="model GW" >
   <i type="int" name="MODEL_GW">     0</i>
   <i name="MODEL_EPS0">     23.69008120</i>
   <i name="MODEL_ALPHA">      1.00000000</i>
  </separator>
  <separator name="linear response parameters" >
   <i type="logical" name="LEPSILON"> F  </i>
   <i type="logical" name="LRPA"> F  </i>
   <i type="logical" name="LNABLA"> F  </i>
   <i type="logical" name="LVEL"> F  </i>
   <i name="CSHIFT">      0.10000000</i>
   <i name="OMEGAMAX">     -1.00000000</i>
   <i name="DEG_THRESHOLD">      0.00200000</i>
   <i name="RTIME">     -0.10000000</i>
   <i name="WPLASMAI">      0.00000000</i>
   <v name="DFIELD">      0.00000000      0.00000000      0.00000000</v>
   <v name="WPLASMA">      0.00000000      0.00000000      0.00000000      0.00000000      0.00000000      0.00000000      0.00000000      0.00000000      0.00000000</v>
  </separator>
  <separator name="orbital magnetization" >
   <i type="logical" name="NUCIND"> F  </i>
   <v name="MAGPOS">      0.00000000      0.00000000      0.00000000</v>
   <i type="logical" name="LNICSALL"> T  </i>
   <i type="logical" name="ORBITALMAG"> F  </i>
   <i type="logical" name="LMAGBLOCH"> F  </i>
   <i type="logical" name="LCHIMAG"> F  </i>
   <i type="logical" name="LGAUGE"> T  </i>
   <i type="int" name="MAGATOM">     0</i>
   <v name="MAGDIPOL">      0.00000000      0.00000000      0.00000000</v>
   <v name="AVECCONST">      0.00000000      0.00000000      0.00000000</v>
  </separator>
  <separator name="response functions" >
   <i type="logical" name="LFINITE_TEMPERATURE"> F  </i>
   <i type="logical" name="LADDER"> F  </i>
   <i type="logical" name="LRPAFORCE"> F  </i>
   <i type="logical" name="LFXC"> F  </i>
   <i type="logical" name="LHARTREE"> T  </i>
   <i type="int" name="IBSE">     0</i>
   <v type="int" name="KPOINT">    -1     0     0     0</v>
   <i type="logical" name="LTCTC"> F  </i>
   <i type="logical" name="LTCTE"> F  </i>
   <i type="logical" name="LTETE"> F  </i>
   <i type="logical" name="LTRIPLET"> F  </i>
   <i type="logical" name="LFXCEPS"> F  </i>
   <i type="logical" name="LFXHEG"> F  </i>
   <i type="int" name="NATURALO">     2</i>
   <i type="logical" name="LHOLEGF"> F  </i>
   <i type="logical" name="L2ORDER"> F  </i>
   <i type="logical" name="LDMP1"> F  </i>
   <i type="logical" name="LMP2LT"> F  </i>
   <i type="logical" name="LSMP2LT"> F  </i>
   <i type="logical" name="LGWLF"> F  </i>
   <i name="ENCUTGW">     -2.00000000</i>
   <i name="ENCUTGWSOFT">     -2.00000000</i>
   <i name="ENCUTLF">     -1.00000000</i>
   <i type="logical" name="LESF_SPLINES"> F  </i>
   <i type="int" name="LMAXMP2">    -1</i>
   <i name="SCISSOR">      0.00000000</i>
   <i type="int" name="NOMEGA">     0</i>
   <i type="int" name="NOMEGAR">     0</i>
   <i type="int" name="NBANDSGW">    -1</i>
   <i type="int" name="NBANDSO">    -1</i>
   <i type="int" name="NBANDSV">    -1</i>
   <i type="int" name="NELMGW">     1</i>
   <i type="int" name="NELMHF">     1</i>
   <i type="int" name="DIM">     3</i>
   <i type="int" name="IESPILON">     4</i>
   <i type="int" name="ANTIRES">     0</i>
   <i name="OMEGAMAX">    -30.00000000</i>
   <i name="OMEGAMIN">    -30.00000000</i>
   <i name="OMEGATL">   -200.00000000</i>
   <i type="int" name="OMEGAGRID">     0</i>
   <i name="CSHIFT">     -0.10000000</i>
   <i type="logical" name="LSELFENERGY"> F  </i>
   <i type="logical" name="LSPECTRAL"> F  </i>
   <i type="logical" name="LSPECTRALGW"> F  </i>
   <i type="logical" name="LSINGLES"> F  </i>
   <i type="logical" name="LFERMIGW"> F  </i>
   <i type="logical" name="ODDONLYGW"> F  </i>
   <i type="logical" name="EVENONLYGW"> F  </i>
   <i type="int" name="NKREDLFX">     1</i>
   <i type="int" name="NKREDLFY">     1</i>
   <i type="int" name="NKREDLFZ">     1</i>
   <i type="int" name="MAXMEM">  2800</i>
   <i type="int" name="TELESCOPE">     0</i>
   <i type="int" name="NTAUPAR">    -1</i>
   <i type="int" name="NOMEGAPAR">    -1</i>
   <i name="DAMP_NEWTON">      0.80000001</i>
   <i name="LAMBDA">      1.00000000</i>
  </separator>
  <separator name="External order field" >
   <i name="OFIELD_KAPPA">      0.00000000</i>
   <v name="OFIELD_K">      0.00000000      0.00000000      0.00000000</v>
   <i name="OFIELD_Q6_NEAR">      0.00000000</i>
   <i name="OFIELD_Q6_FAR">      0.00000000</i>
   <i name="OFIELD_A">      0.00000000</i>
  </separator>
  <separator name="optional k-points parameters" >
   <i type="int" name="KPOINTS_OPT_MODE">     1</i>
   <i type="logical" name="LKPOINTS_OPT"> F  </i>
  </separator>
  <separator name="solvation model" >
   <i type="logical" name="LSOL"> F  </i>
  </separator>
 </parameters>
 <atominfo>
  <atoms>      59 </atoms>
  <types>       5 </types>
  <array name="atoms" >
   <dimension dim="1">ion</dimension>
   <field type="string">element</field>
   <field type="int">atomtype</field>
   <set>
    <rc><c>C </c><c>   1</c></rc>
    <rc><c>C </c><c>   1</c></rc>
    <rc><c>C </c><c>   1</c></rc>
    <rc><c>C </c><c>   1</c></rc>
    <rc><c>C </c><c>   1</c></rc>
    <rc><c>C </c><c>   1</c></rc>
    <rc><c>C </c><c>   1</c></rc>
    <rc><c>C </c><c>   1</c></rc>
    <rc><c>C </c><c>   1</c></rc>
    <rc><c>C </c><c>   1</c></rc>
    <rc><c>C </c><c>   1</c></rc>
    <rc><c>C </c><c>   1</c></rc>
    <rc><c>C </c><c>   1</c></rc>
    <rc><c>C </c><c>   1</c></rc>
    <rc><c>C </c><c>   1</c></rc>
    <rc><c>C </c><c>   1</c></rc>
    <rc><c>C </c><c>   1</c></rc>
    <rc><c>C </c><c>   1</c></rc>
    <rc><c>C </c><c>   1</c></rc>
    <rc><c>C </c><c>   1</c></rc>
    <rc><c>C </c><c>   1</c></rc>
    <rc><c>C </c><c>   1</c></rc>
    <rc><c>C </c><c>   1</c></rc>
    <rc><c>C </c><c>   1</c></rc>
    <rc><c>N </c><c>   2</c></rc>
    <rc><c>N </c><c>   2</c></rc>
    <rc><c>N </c><c>   2</c></rc>
    <rc><c>N </c><c>   2</c></rc>
    <rc><c>N </c><c>   2</c></rc>
    <rc><c>N </c><c>   2</c></rc>
    <rc><c>N </c><c>   2</c></rc>
    <rc><c>N </c><c>   2</c></rc>
    <rc><c>N </c><c>   2</c></rc>
    <rc><c>N </c><c>   2</c></rc>
    <rc><c>N </c><c>   2</c></rc>
    <rc><c>N </c><c>   2</c></rc>
    <rc><c>N </c><c>   2</c></rc>
    <rc><c>N </c><c>   2</c></rc>
    <rc><c>N </c><c>   2</c></rc>
    <rc><c>N </c><c>   2</c></rc>
    <rc><c>N </c><c>   2</c></rc>
    <rc><c>N </c><c>   2</c></rc>
    <rc><c>N </c><c>   2</c></rc>
    <rc><c>N </c><c>   2</c></rc>
    <rc><c>N </c><c>   2</c></rc>
    <rc><c>N </c><c>   2</c></rc>
    <rc><c>N </c><c>   2</c></rc>
    <rc><c>N </c><c>   2</c></rc>
    <rc><c>N </c><c>   2</c></rc>
    <rc><c>N </c><c>   2</c></rc>
    <rc><c>N </c><c>   2</c></rc>
    <rc><c>N </c><c>   2</c></rc>
    <rc><c>N </c><c>   2</c></rc>
    <rc><c>N </c><c>   2</c></rc>
    <rc><c>N </c><c>   2</c></rc>
    <rc><c>N </c><c>   2</c></rc>
    <rc><c>Au</c><c>   3</c></rc>
    <rc><c>Cu</c><c>   4</c></rc>
    <rc><c>Pd</c><c>   5</c></rc>
   </set>
  </array>
  <array name="atomtypes" >
   <dimension dim="1">type</dimension>
   <field type="int">atomspertype</field>
   <field type="string">element</field>
   <field>mass</field>
   <field>valence</field>
   <field type="string">pseudopotential</field>
   <set>
    <rc><c>  24</c><c>C </c><c>     12.01100000</c><c>      4.00000000</c><c>  PAW_PBE C 08Apr2002                   </c></rc>
    <rc><c>  32</c><c>N </c><c>     14.00100000</c><c>      5.00000000</c><c>  PAW_PBE N 08Apr2002                   </c></rc>
    <rc><c>   1</c><c>Au</c><c>    196.96600000</c><c>     11.00000000</c><c>  PAW_PBE Au 04Oct2007                  </c></rc>
    <rc><c>   1</c><c>Cu</c><c>     63.54600000</c><c>     11.00000000</c><c>  PAW_PBE Cu 22Jun2005                  </c></rc>
    <rc><c>   1</c><c>Pd</c><c>    106.42000000</c><c>     10.00000000</c><c>  PAW_PBE Pd 04Jan2005                  </c></rc>
   </set>
  </array>
 </atominfo>
 <structure name="initialpos" >
  <crystal>
   <varray name="basis" >
    <v>      13.75970367       0.00000000       0.00000000 </v>
    <v>       0.00000000      11.28669971       0.00000000 </v>
    <v>       0.00000000       0.00000000      15.00000000 </v>
   </varray>
   <i name="volume">   2329.52465126 </i>
   <varray name="rec_basis" >
    <v>       0.07267598       0.00000000       0.00000000 </v>
    <v>       0.00000000       0.08859986       0.00000000 </v>
    <v>       0.00000000       0.00000000       0.06666667 </v>
   </varray>
  </crystal>
  <varray name="positions" >
   <v>       0.07054120       0.38816457       0.22227495 </v>
   <v>       0.98151180       0.21832942       0.16785344 </v>
   <v>       0.22877304       0.39667288       0.18904348 </v>
   <v>       0.82472337       0.57572318       0.18403191 </v>
   <v>       0.14970601       0.24663792       0.12277753 </v>
   <v>       0.90758628       0.38434512       0.21811946 </v>
   <v>       0.56886571       0.39316130       0.23173729 </v>
   <v>       0.47768100       0.22391730       0.18017943 </v>
   <v>       0.73035049       0.39802658       0.19909345 </v>
   <v>       0.31101118       0.58132963       0.17977696 </v>
   <v>       0.64681854       0.25040749       0.13377315 </v>
   <v>       0.40275100       0.39355427       0.22106508 </v>
   <v>       0.81808056       0.88988957       0.05647519 </v>
   <v>       0.73319531       0.72568325       0.12448457 </v>
   <v>       0.97932824       0.89597624       0.07999408 </v>
   <v>       0.06867909       0.07698375       0.09423854 </v>
   <v>       0.90528082       0.74258583       0.14719628 </v>
   <v>       0.65472406       0.89333727       0.07691603 </v>
   <v>       0.31825350       0.89473226       0.05377466 </v>
   <v>       0.22716619       0.72126926       0.10084126 </v>
   <v>       0.47498917       0.90396535       0.09489577 </v>
   <v>       0.56592959       0.08075138       0.11024766 </v>
   <v>       0.38612516       0.76037560       0.16363174 </v>
   <v>       0.15509033       0.88950396       0.05271529 </v>
   <v>       0.98784551       0.43883046       0.24713656 </v>
   <v>       0.89991795       0.26975381       0.19549767 </v>
   <v>       0.15759857       0.43325808       0.24240148 </v>
   <v>       0.14788829       0.14353661       0.08017307 </v>
   <v>       0.98633649       0.10796021       0.13653167 </v>
   <v>       0.22915942       0.31533454       0.12527490 </v>
   <v>       0.06735802       0.28598388       0.16888911 </v>
   <v>       0.82274912       0.45552252       0.21014877 </v>
   <v>       0.48493735       0.44793349       0.25146232 </v>
   <v>       0.39648714       0.27665554       0.20625030 </v>
   <v>       0.65756919       0.43524210       0.25419888 </v>
   <v>       0.64488604       0.14640144       0.09374788 </v>
   <v>       0.48286722       0.11321356       0.15081376 </v>
   <v>       0.72606390       0.31870920       0.13454719 </v>
   <v>       0.56470606       0.29135323       0.18008364 </v>
   <v>       0.31888640       0.46086995       0.20329135 </v>
   <v>       0.73287748       0.94248397       0.03965616 </v>
   <v>       0.64891188       0.78317499       0.11254597 </v>
   <v>       0.90382696       0.93469024       0.03189926 </v>
   <v>       0.90701680       0.63807548       0.18754912 </v>
   <v>       0.73647441       0.61699787       0.15934394 </v>
   <v>       0.98321706       0.81212363       0.14197152 </v>
   <v>       0.81925020       0.78400528       0.10639513 </v>
   <v>       0.56804185       0.96074410       0.08520074 </v>
   <v>       0.23699719       0.94478449       0.02657725 </v>
   <v>       0.14820250       0.77173059       0.06843984 </v>
   <v>       0.40793432       0.93556381       0.03646331 </v>
   <v>       0.38047481       0.65838217       0.20939239 </v>
   <v>       0.23501053       0.60894863       0.12850628 </v>
   <v>       0.46527775       0.83024755       0.16578047 </v>
   <v>       0.31113112       0.79334051       0.10891910 </v>
   <v>       0.06990262       0.95754122       0.06514651 </v>
   <v>       0.57736557       0.77647674       0.24193941 </v>
   <v>       0.65582252       0.60772566       0.29790490 </v>
   <v>       0.48700699       0.61617049       0.29396059 </v>
  </varray>
 </structure>
 <calculation>
  <scstep>
   <time name="dav">    1.66    1.67</time>
   <time name="total">    1.70    1.71</time>
   <dipole>
    <v name="dipole">      0.00000000       0.00000000       0.00009731 </v>
    <i name="Tr[quadrupol]">  -8097.46652441 </i>
    <i name="Echarged">      0.00000000 </i>
    <i name="Edipol_quadrupol">      0.00000000 </i>
    <i name="Eion">      0.00000000 </i>
   </dipole>
   <energy>
    <i name="alphaZ">    175.55631531 </i>
    <i name="ewald">  28784.59497549 </i>
    <i name="hartreedc"> -41331.08005166 </i>
    <i name="XCdc">    987.93632087 </i>
    <i name="pawpsdc">  12071.41900247 </i>
    <i name="pawaedc"> -12143.72838148 </i>
    <i name="eentropy">     -0.08681676 </i>
    <i name="bandstr">   -989.11915996 </i>
    <i name="atom">  15121.03550171 </i>
    <i name="e_fr_energy">   2676.52770599 </i>
    <i name="e_wo_entrp">   2676.61452274 </i>
    <i name="e_0_energy">   2676.57111437 </i>
   </energy>
  </scstep>
  <scstep>
   <time name="dav">    1.91    1.91</time>
   <time name="total">    1.91    1.91</time>
   <dipole>
    <v name="dipole">      0.00000000       0.00000000       0.00009731 </v>
    <i name="Tr[quadrupol]">  -8097.46652441 </i>
    <i name="Echarged">      0.00000000 </i>
    <i name="Edipol_quadrupol">      0.00000000 </i>
    <i name="Eion">      0.00000000 </i>
   </dipole>
   <energy>
    <i name="e_fr_energy">     15.25451408 </i>
    <i name="e_wo_entrp">     15.27092359 </i>
    <i name="e_0_energy">     15.26271884 </i>
   </energy>
  </scstep>
  <scstep>
   <time name="dav">    1.72    1.72</time>
   <time name="total">    1.72    1.73</time>
   <dipole>
    <v name="dipole">      0.00000000       0.00000000       0.00009731 </v>
    <i name="Tr[quadrupol]">  -8097.46652441 </i>
    <i name="Echarged">      0.00000000 </i>
    <i name="Edipol_quadrupol">      0.00000000 </i>
    <i name="Eion">      0.00000000 </i>
   </dipole>
   <energy>
    <i name="e_fr_energy">   -488.07197220 </i>
    <i name="e_wo_entrp">   -487.93298154 </i>
    <i name="e_0_energy">   -488.00247687 </i>
   </energy>
  </scstep>
  <scstep>
   <time name="dav">    1.99    1.99</time>
   <time name="total">    1.99    1.99</time>
   <dipole>
    <v name="dipole">      0.00000000       0.00000000       0.00009731 </v>
    <i name="Tr[quadrupol]">  -8097.46652441 </i>
    <i name="Echarged">      0.00000000 </i>
    <i name="Edipol_quadrupol">      0.00000000 </i>
    <i name="Eion">      0.00000000 </i>
   </dipole>
   <energy>
    <i name="e_fr_energy">   -517.66674092 </i>
    <i name="e_wo_entrp">   -517.50555106 </i>
    <i name="e_0_energy">   -517.58614599 </i>
   </energy>
  </scstep>
  <scstep>
   <time name="dav">    1.81    1.81</time>
   <time name="total">    1.85    1.86</time>
   <dipole>
    <v name="dipole">      0.00000000       0.00000000       0.00009731 </v>
    <i name="Tr[quadrupol]">  -8097.46652441 </i>
    <i name="Echarged">      0.00000000 </i>
    <i name="Edipol_quadrupol">      0.00000000 </i>
    <i name="Eion">      0.00000000 </i>
   </dipole>
   <energy>
    <i name="e_fr_energy">   -518.40870792 </i>
    <i name="e_wo_entrp">   -518.24347308 </i>
    <i name="e_0_energy">   -518.32609050 </i>
   </energy>
  </scstep>
  <scstep>
   <time name="dav">    1.84    1.84</time>
   <time name="total">    1.91    1.92</time>
   <dipole>
    <v name="dipole">      0.00000000       0.00000000      -1.40727088 </v>
    <i name="Tr[quadrupol]">  -8100.08338849 </i>
    <i name="Echarged">      0.00000000 </i>
    <i name="Edipol_quadrupol">      0.00000000 </i>
    <i name="Eion">      0.00000000 </i>
   </dipole>
   <energy>
    <i name="e_fr_energy">   -603.55121897 </i>
    <i name="e_wo_entrp">   -603.47662732 </i>
    <i name="e_0_energy">   -603.51392314 </i>
   </energy>
  </scstep>
  <scstep>
   <time name="dav">    1.66    1.66</time>
   <time name="total">    1.73    1.74</time>
   <dipole>
    <v name="dipole">      0.00000000       0.00000000      -0.61637919 </v>
    <i name="Tr[quadrupol]">  -8099.41040259 </i>
    <i name="Echarged">      0.00000000 </i>
    <i name="Edipol_quadrupol">      0.00000000 </i>
    <i name="Eion">      0.00000000 </i>
   </dipole>
   <energy>
    <i name="e_fr_energy">   -512.68628772 </i>
    <i name="e_wo_entrp">   -512.68628772 </i>
    <i name="e_0_energy">   -512.68628772 </i>
   </energy>
  </scstep>
  <scstep>
   <time name="dav">    1.85    1.85</time>
   <time name="total">    1.93    1.93</time>
   <dipole>
    <v name="dipole">      0.00000000       0.00000000      -0.41444997 </v>
    <i name="Tr[quadrupol]">  -8099.71163008 </i>
    <i name="Echarged">      0.00000000 </i>
    <i name="Edipol_quadrupol">      0.00000000 </i>
    <i name="Eion">      0.00000000 </i>
   </dipole>
   <energy>
    <i name="e_fr_energy">   -481.98057701 </i>
    <i name="e_wo_entrp">   -481.97146297 </i>
    <i name="e_0_energy">   -481.97601999 </i>
   </energy>
  </scstep>
  <scstep>
   <time name="dav">    2.06    2.06</time>
   <time name="total">    2.14    2.14</time>
   <dipole>
    <v name="dipole">      0.00000000       0.00000000      -0.06428430 </v>
    <i name="Tr[quadrupol]">  -8100.04516464 </i>
    <i name="Echarged">      0.00000000 </i>
    <i name="Edipol_quadrupol">      0.00000000 </i>
    <i name="Eion">      0.00000000 </i>
   </dipole>
   <energy>
    <i name="e_fr_energy">   -528.67764678 </i>
    <i name="e_wo_entrp">   -528.59267186 </i>
    <i name="e_0_energy">   -528.63515932 </i>
   </energy>
  </scstep>
  <scstep>
   <time name="dav">    1.92    1.92</time>
   <time name="total">    1.99    1.99</time>
   <dipole>
    <v name="dipole">      0.00000000       0.00000000      -0.13881816 </v>
    <i name="Tr[quadrupol]">  -8100.12440228 </i>
    <i name="Echarged">      0.00000000 </i>
    <i name="Edipol_quadrupol">      0.00000000 </i>
    <i name="Eion">      0.00000000 </i>
   </dipole>
   <energy>
    <i name="e_fr_energy">   -500.30898025 </i>
    <i name="e_wo_entrp">   -500.22147655 </i>
    <i name="e_0_energy">   -500.26522840 </i>
   </energy>
  </scstep>
  <scstep>
   <time name="dav">    1.95    1.95</time>
   <time name="total">    2.03    2.03</time>
   <dipole>
    <v name="dipole">      0.00000000       0.00000000      -0.22772333 </v>
    <i name="Tr[quadrupol]">  -8100.25074807 </i>
    <i name="Echarged">      0.00000000 </i>
    <i name="Edipol_quadrupol">      0.00000000 </i>
    <i name="Eion">      0.00000000 </i>
   </dipole>
   <energy>
    <i name="e_fr_energy">   -481.20700427 </i>
    <i name="e_wo_entrp">   -481.12901201 </i>
    <i name="e_0_energy">   -481.16800814 </i>
   </energy>
  </scstep>
  <scstep>
   <time name="dav">    2.04    2.05</time>
   <time name="total">    2.12    2.13</time>
   <dipole>
    <v name="dipole">      0.00000000       0.00000000      -0.33549913 </v>
    <i name="Tr[quadrupol]">  -8100.50229162 </i>
    <i name="Echarged">      0.00000000 </i>
    <i name="Edipol_quadrupol">      0.00000000 </i>
    <i name="Eion">      0.00000000 </i>
   </dipole>
   <energy>
    <i name="e_fr_energy">   -482.63094148 </i>
    <i name="e_wo_entrp">   -482.63094147 </i>
    <i name="e_0_energy">   -482.63094148 </i>
   </energy>
  </scstep>
  <scstep>
   <time name="dav">    1.94    1.94</time>
   <time name="total">    2.01    2.02</time>
   <dipole>
    <v name="dipole">      0.00000000       0.00000000      -0.28893266 </v>
    <i name="Tr[quadrupol]">  -8100.80210953 </i>
    <i name="Echarged">      0.00000000 </i>
    <i name="Edipol_quadrupol">      0.00000000 </i>
    <i name="Eion">      0.00000000 </i>
   </dipole>
   <energy>
    <i name="e_fr_energy">   -482.77023360 </i>
    <i name="e_wo_entrp">   -482.76970765 </i>
    <i name="e_0_energy">   -482.76997063 </i>
   </energy>
  </scstep>
  <scstep>
   <time name="dav">    1.95    1.95</time>
   <time name="total">    2.03    2.03</time>
   <dipole>
    <v name="dipole">      0.00000000       0.00000000      -0.24454366 </v>
    <i name="Tr[quadrupol]">  -8101.01751289 </i>
    <i name="Echarged">      0.00000000 </i>
    <i name="Edipol_quadrupol">      0.00000000 </i>
    <i name="Eion">      0.00000000 </i>
   </dipole>
   <energy>
    <i name="e_fr_energy">   -483.28635152 </i>
    <i name="e_wo_entrp">   -483.27641202 </i>
    <i name="e_0_energy">   -483.28138177 </i>
   </energy>
  </scstep>
  <scstep>
   <time name="dav">    1.99    1.99</time>
   <time name="total">    2.07    2.07</time>
   <dipole>
    <v name="dipole">      0.00000000       0.00000000      -0.22939857 </v>
    <i name="Tr[quadrupol]">  -8101.25277876 </i>
    <i name="Echarged">      0.00000000 </i>
    <i name="Edipol_quadrupol">      0.00000000 </i>
    <i name="Eion">      0.00000000 </i>
   </dipole>
   <energy>
    <i name="e_fr_energy">   -484.24474168 </i>
    <i name="e_wo_entrp">   -484.22253511 </i>
    <i name="e_0_energy">   -484.23363840 </i>
   </energy>
  </scstep>
  <scstep>
   <time name="dav">    1.99    1.99</time>
   <time name="total">    2.07    2.07</time>
   <dipole>
    <v name="dipole">      0.00000000       0.00000000      -0.21392701 </v>
    <i name="Tr[quadrupol]">  -8101.57832603 </i>
    <i name="Echarged">      0.00000000 </i>
    <i name="Edipol_quadrupol">      0.00000000 </i>
    <i name="Eion">      0.00000000 </i>
   </dipole>
   <energy>
    <i name="e_fr_energy">   -484.08250261 </i>
    <i name="e_wo_entrp">   -484.03009161 </i>
    <i name="e_0_energy">   -484.05629711 </i>
   </energy>
  </scstep>
  <scstep>
   <time name="dav">    1.90    1.91</time>
   <time name="total">    1.98    1.99</time>
   <dipole>
    <v name="dipole">      0.00000000       0.00000000      -0.20280796 </v>
    <i name="Tr[quadrupol]">  -8101.84127916 </i>
    <i name="Echarged">      0.00000000 </i>
    <i name="Edipol_quadrupol">      0.00000000 </i>
    <i name="Eion">      0.00000000 </i>
   </dipole>
   <energy>
    <i name="e_fr_energy">   -483.91470850 </i>
    <i name="e_wo_entrp">   -483.86723087 </i>
    <i name="e_0_energy">   -483.89096968 </i>
   </energy>
  </scstep>
  <scstep>
   <time name="dav">    1.95    1.95</time>
   <time name="total">    2.03    2.03</time>
   <dipole>
    <v name="dipole">      0.00000000       0.00000000      -0.18321179 </v>
    <i name="Tr[quadrupol]">  -8101.96799986 </i>
    <i name="Echarged">      0.00000000 </i>
    <i name="Edipol_quadrupol">      0.00000000 </i>
    <i name="Eion">      0.00000000 </i>
   </dipole>
   <energy>
    <i name="e_fr_energy">   -483.36381868 </i>
    <i name="e_wo_entrp">   -483.29282885 </i>
    <i name="e_0_energy">   -483.32832376 </i>
   </energy>
  </scstep>
  <scstep>
   <time name="dav">    2.06    2.06</time>
   <time name="total">    2.14    2.14</time>
   <dipole>
    <v name="dipole">      0.00000000       0.00000000      -0.17720760 </v>
    <i name="Tr[quadrupol]">  -8102.02363995 </i>
    <i name="Echarged">      0.00000000 </i>
    <i name="Edipol_quadrupol">      0.00000000 </i>
    <i name="Eion">      0.00000000 </i>
   </dipole>
   <energy>
    <i name="e_fr_energy">   -483.06120320 </i>
    <i name="e_wo_entrp">   -482.99364570 </i>
    <i name="e_0_energy">   -483.02742445 </i>
   </energy>
  </scstep>
  <scstep>
   <time name="dav">    2.07    2.07</time>
   <time name="total">    2.15    2.15</time>
   <dipole>
    <v name="dipole">      0.00000000       0.00000000      -0.16333137 </v>
    <i name="Tr[quadrupol]">  -8102.12304101 </i>
    <i name="Echarged">      0.00000000 </i>
    <i name="Edipol_quadrupol">      0.00000000 </i>
    <i name="Eion">      0.00000000 </i>
   </dipole>
   <energy>
    <i name="e_fr_energy">   -482.64199012 </i>
    <i name="e_wo_entrp">   -482.56688291 </i>
    <i name="e_0_energy">   -482.60443652 </i>
   </energy>
  </scstep>
  <scstep>
   <time name="dav">    2.03    2.04</time>
   <time name="total">    2.11    2.12</time>
   <dipole>
    <v name="dipole">      0.00000000       0.00000000      -0.14792069 </v>
    <i name="Tr[quadrupol]">  -8102.22456210 </i>
    <i name="Echarged">      0.00000000 </i>
    <i name="Edipol_quadrupol">      0.00000000 </i>
    <i name="Eion">      0.00000000 </i>
   </dipole>
   <energy>
    <i name="e_fr_energy">   -482.16786800 </i>
    <i name="e_wo_entrp">   -482.09068097 </i>
    <i name="e_0_energy">   -482.12927449 </i>
   </energy>
  </scstep>
  <scstep>
   <time name="dav">    2.04    2.04</time>
   <time name="total">    2.13    2.13</time>
   <dipole>
    <v name="dipole">      0.00000000       0.00000000      -0.11907731 </v>
    <i name="Tr[quadrupol]">  -8102.36871473 </i>
    <i name="Echarged">      0.00000000 </i>
    <i name="Edipol_quadrupol">      0.00000000 </i>
    <i name="Eion">      0.00000000 </i>
   </dipole>
   <energy>
    <i name="e_fr_energy">   -481.46535161 </i>
    <i name="e_wo_entrp">   -481.38028250 </i>
    <i name="e_0_energy">   -481.42281706 </i>
   </energy>
  </scstep>
  <scstep>
   <time name="dav">    1.57    1.57</time>
   <time name="total">    1.65    1.66</time>
   <dipole>
    <v name="dipole">      0.00000000       0.00000000      -0.11942259 </v>
    <i name="Tr[quadrupol]">  -8102.36608530 </i>
    <i name="Echarged">      0.00000000 </i>
    <i name="Edipol_quadrupol">      0.00000000 </i>
    <i name="Eion">      0.00000000 </i>
   </dipole>
   <energy>
    <i name="e_fr_energy">   -481.48050315 </i>
    <i name="e_wo_entrp">   -481.39649216 </i>
    <i name="e_0_energy">   -481.43849766 </i>
   </energy>
  </scstep>
  <scstep>
   <time name="dav">    2.02    2.02</time>
   <time name="total">    2.10    2.10</time>
   <dipole>
    <v name="dipole">      0.00000000       0.00000000      -0.11837421 </v>
    <i name="Tr[quadrupol]">  -8102.36588080 </i>
    <i name="Echarged">      0.00000000 </i>
    <i name="Edipol_quadrupol">      0.00000000 </i>
    <i name="Eion">      0.00000000 </i>
   </dipole>
   <energy>
    <i name="e_fr_energy">   -481.46097719 </i>
    <i name="e_wo_entrp">   -481.37622635 </i>
    <i name="e_0_energy">   -481.41860177 </i>
   </energy>
  </scstep>
  <scstep>
   <time name="dav">    1.67    1.68</time>
   <time name="total">    1.75    1.75</time>
   <dipole>
    <v name="dipole">      0.00000000       0.00000000      -0.11857845 </v>
    <i name="Tr[quadrupol]">  -8102.36575645 </i>
    <i name="Echarged">      0.00000000 </i>
    <i name="Edipol_quadrupol">      0.00000000 </i>
    <i name="Eion">      0.00000000 </i>
   </dipole>
   <energy>
    <i name="e_fr_energy">   -481.46907756 </i>
    <i name="e_wo_entrp">   -481.38435811 </i>
    <i name="e_0_energy">   -481.42671784 </i>
   </energy>
  </scstep>
  <scstep>
   <time name="dav">    1.60    1.60</time>
   <time name="total">    1.68    1.68</time>
   <dipole>
    <v name="dipole">      0.00000000       0.00000000      -0.11775679 </v>
    <i name="Tr[quadrupol]">  -8102.36588923 </i>
    <i name="Echarged">      0.00000000 </i>
    <i name="Edipol_quadrupol">      0.00000000 </i>
    <i name="Eion">      0.00000000 </i>
   </dipole>
   <energy>
    <i name="e_fr_energy">   -481.45129048 </i>
    <i name="e_wo_entrp">   -481.36660415 </i>
    <i name="e_0_energy">   -481.40894731 </i>
   </energy>
  </scstep>
  <scstep>
   <time name="dav">    2.01    2.02</time>
   <time name="total">    2.09    2.09</time>
   <dipole>
    <v name="dipole">      0.00000000       0.00000000      -0.04820352 </v>
    <i name="Tr[quadrupol]">  -8102.56372963 </i>
    <i name="Echarged">      0.00000000 </i>
    <i name="Edipol_quadrupol">      0.00000000 </i>
    <i name="Eion">      0.00000000 </i>
   </dipole>
   <energy>
    <i name="e_fr_energy">   -480.59525617 </i>
    <i name="e_wo_entrp">   -480.50574503 </i>
    <i name="e_0_energy">   -480.55050060 </i>
   </energy>
  </scstep>
  <scstep>
   <time name="dav">    1.96    1.96</time>
   <time name="total">    2.04    2.04</time>
   <dipole>
    <v name="dipole">      0.00000000       0.00000000      -0.04483342 </v>
    <i name="Tr[quadrupol]">  -8102.58620531 </i>
    <i name="Echarged">      0.00000000 </i>
    <i name="Edipol_quadrupol">      0.00000000 </i>
    <i name="Eion">      0.00000000 </i>
   </dipole>
   <energy>
    <i name="e_fr_energy">   -480.59201326 </i>
    <i name="e_wo_entrp">   -480.50292474 </i>
    <i name="e_0_energy">   -480.54746900 </i>
   </energy>
  </scstep>
  <scstep>
   <time name="dav">    2.14    2.14</time>
   <time name="total">    2.22    2.22</time>
   <dipole>
    <v name="dipole">      0.00000000       0.00000000      -0.04447278 </v>
    <i name="Tr[quadrupol]">  -8102.59340953 </i>
    <i name="Echarged">      0.00000000 </i>
    <i name="Edipol_quadrupol">      0.00000000 </i>
    <i name="Eion">      0.00000000 </i>
   </dipole>
   <energy>
    <i name="e_fr_energy">   -480.58757197 </i>
    <i name="e_wo_entrp">   -480.49870492 </i>
    <i name="e_0_energy">   -480.54313844 </i>
   </energy>
  </scstep>
  <scstep>
   <time name="dav">    1.66    1.66</time>
   <time name="total">    1.74    1.74</time>
   <dipole>
    <v name="dipole">      0.00000000       0.00000000      -0.04591731 </v>
    <i name="Tr[quadrupol]">  -8102.59047967 </i>
    <i name="Echarged">      0.00000000 </i>
    <i name="Edipol_quadrupol">      0.00000000 </i>
    <i name="Eion">      0.00000000 </i>
   </dipole>
   <energy>
    <i name="e_fr_energy">   -480.59061967 </i>
    <i name="e_wo_entrp">   -480.50151121 </i>
    <i name="e_0_energy">   -480.54606544 </i>
   </energy>
  </scstep>
  <scstep>
   <time name="dav">    2.07    2.07</time>
   <time name="total">    2.15    2.15</time>
   <dipole>
    <v name="dipole">      0.00000000       0.00000000      -0.03154843 </v>
    <i name="Tr[quadrupol]">  -8102.67117322 </i>
    <i name="Echarged">      0.00000000 </i>
    <i name="Edipol_quadrupol">      0.00000000 </i>
    <i name="Eion">      0.00000000 </i>
   </dipole>
   <energy>
    <i name="e_fr_energy">   -480.59125866 </i>
    <i name="e_wo_entrp">   -480.50554974 </i>
    <i name="e_0_energy">   -480.54840420 </i>
   </energy>
  </scstep>
  <scstep>
   <time name="dav">    2.01    2.02</time>
   <time name="total">    2.09    2.10</time>
   <dipole>
    <v name="dipole">      0.00000000       0.00000000      -0.02120766 </v>
    <i name="Tr[quadrupol]">  -8102.77321985 </i>
    <i name="Echarged">      0.00000000 </i>
    <i name="Edipol_quadrupol">      0.00000000 </i>
    <i name="Eion">      0.00000000 </i>
   </dipole>
   <energy>
    <i name="e_fr_energy">   -480.62047485 </i>
    <i name="e_wo_entrp">   -480.53733090 </i>
    <i name="e_0_energy">   -480.57890288 </i>
   </energy>
  </scstep>
  <scstep>
   <time name="dav">    1.97    1.97</time>
   <time name="total">    2.05    2.05</time>
   <dipole>
    <v name="dipole">      0.00000000       0.00000000      -0.02417554 </v>
    <i name="Tr[quadrupol]">  -8102.79194567 </i>
    <i name="Echarged">      0.00000000 </i>
    <i name="Edipol_quadrupol">      0.00000000 </i>
    <i name="Eion">      0.00000000 </i>
   </dipole>
   <energy>
    <i name="e_fr_energy">   -480.59877811 </i>
    <i name="e_wo_entrp">   -480.51305532 </i>
    <i name="e_0_energy">   -480.55591672 </i>
   </energy>
  </scstep>
  <scstep>
   <time name="dav">    1.89    1.89</time>
   <time name="total">    1.97    1.97</time>
   <dipole>
    <v name="dipole">      0.00000000       0.00000000      -0.01766880 </v>
    <i name="Tr[quadrupol]">  -8102.82585713 </i>
    <i name="Echarged">      0.00000000 </i>
    <i name="Edipol_quadrupol">      0.00000000 </i>
    <i name="Eion">      0.00000000 </i>
   </dipole>
   <energy>
    <i name="e_fr_energy">   -480.61388058 </i>
    <i name="e_wo_entrp">   -480.52962821 </i>
    <i name="e_0_energy">   -480.57175440 </i>
   </energy>
  </scstep>
  <scstep>
   <time name="dav">    1.95    1.96</time>
   <time name="total">    2.03    2.04</time>
   <dipole>
    <v name="dipole">      0.00000000       0.00000000      -0.01587132 </v>
    <i name="Tr[quadrupol]">  -8102.83438671 </i>
    <i name="Echarged">      0.00000000 </i>
    <i name="Edipol_quadrupol">      0.00000000 </i>
    <i name="Eion">      0.00000000 </i>
   </dipole>
   <energy>
    <i name="e_fr_energy">   -480.61677974 </i>
    <i name="e_wo_entrp">   -480.53263365 </i>
    <i name="e_0_energy">   -480.57470669 </i>
   </energy>
  </scstep>
  <scstep>
   <time name="dav">    1.62    1.62</time>
   <time name="total">    1.70    1.70</time>
   <dipole>
    <v name="dipole">      0.00000000       0.00000000      -0.01535182 </v>
    <i name="Tr[quadrupol]">  -8102.83523980 </i>
    <i name="Echarged">      0.00000000 </i>
    <i name="Edipol_quadrupol">      0.00000000 </i>
    <i name="Eion">      0.00000000 </i>
   </dipole>
   <energy>
    <i name="e_fr_energy">   -480.61721648 </i>
    <i name="e_wo_entrp">   -480.53316054 </i>
    <i name="e_0_energy">   -480.57518851 </i>
   </energy>
  </scstep>
  <scstep>
   <time name="dav">    1.76    1.77</time>
   <time name="total">    1.84    1.85</time>
   <dipole>
    <v name="dipole">      0.00000000       0.00000000      -0.01190643 </v>
    <i name="Tr[quadrupol]">  -8102.84833805 </i>
    <i name="Echarged">      0.00000000 </i>
    <i name="Edipol_quadrupol">      0.00000000 </i>
    <i name="Eion">      0.00000000 </i>
   </dipole>
   <energy>
    <i name="e_fr_energy">   -480.62430677 </i>
    <i name="e_wo_entrp">   -480.54064489 </i>
    <i name="e_0_energy">   -480.58247583 </i>
   </energy>
  </scstep>
  <scstep>
   <time name="dav">    1.97    1.97</time>
   <time name="total">    2.07    2.07</time>
   <dipole>
    <v name="dipole">      0.00000000       0.00000000      -0.01006998 </v>
    <i name="Tr[quadrupol]">  -8102.83739058 </i>
    <i name="Echarged">      0.00000000 </i>
    <i name="Edipol_quadrupol">      0.00000000 </i>
    <i name="Eion">      0.00000000 </i>
   </dipole>
   <energy>
    <i name="e_fr_energy">   -480.62547930 </i>
    <i name="e_wo_entrp">   -480.54024025 </i>
    <i name="e_0_energy">   -480.58285978 </i>
   </energy>
  </scstep>
  <scstep>
   <time name="dav">    1.76    1.76</time>
   <time name="total">    1.84    1.84</time>
   <dipole>
    <v name="dipole">      0.00000000       0.00000000      -0.00868450 </v>
    <i name="Tr[quadrupol]">  -8102.83285817 </i>
    <i name="Echarged">      0.00000000 </i>
    <i name="Edipol_quadrupol">      0.00000000 </i>
    <i name="Eion">      0.00000000 </i>
   </dipole>
   <energy>
    <i name="e_fr_energy">   -480.62650354 </i>
    <i name="e_wo_entrp">   -480.54145349 </i>
    <i name="e_0_energy">   -480.58397852 </i>
   </energy>
  </scstep>
  <scstep>
   <time name="dav">    1.75    1.75</time>
   <time name="total">    1.83    1.83</time>
   <dipole>
    <v name="dipole">      0.00000000       0.00000000      -0.00768293 </v>
    <i name="Tr[quadrupol]">  -8102.82919874 </i>
    <i name="Echarged">      0.00000000 </i>
    <i name="Edipol_quadrupol">      0.00000000 </i>
    <i name="Eion">      0.00000000 </i>
   </dipole>
   <energy>
    <i name="e_fr_energy">   -480.62795992 </i>
    <i name="e_wo_entrp">   -480.54292631 </i>
    <i name="e_0_energy">   -480.58544312 </i>
   </energy>
  </scstep>
  <scstep>
   <time name="dav">    1.88    1.88</time>
   <time name="total">    1.96    1.96</time>
   <dipole>
    <v name="dipole">      0.00000000       0.00000000       0.00158297 </v>
    <i name="Tr[quadrupol]">  -8102.81592512 </i>
    <i name="Echarged">      0.00000000 </i>
    <i name="Edipol_quadrupol">      0.00000000 </i>
    <i name="Eion">      0.00000000 </i>
   </dipole>
   <energy>
    <i name="e_fr_energy">   -480.63732097 </i>
    <i name="e_wo_entrp">   -480.55295724 </i>
    <i name="e_0_energy">   -480.59513910 </i>
   </energy>
  </scstep>
  <scstep>
   <time name="dav">    1.86    1.87</time>
   <time name="total">    1.94    1.95</time>
   <dipole>
    <v name="dipole">      0.00000000       0.00000000       0.01974669 </v>
    <i name="Tr[quadrupol]">  -8102.82837081 </i>
    <i name="Echarged">      0.00000000 </i>
    <i name="Edipol_quadrupol">      0.00000000 </i>
    <i name="Eion">      0.00000000 </i>
   </dipole>
   <energy>
    <i name="e_fr_energy">   -480.66625748 </i>
    <i name="e_wo_entrp">   -480.58334612 </i>
    <i name="e_0_energy">   -480.62480180 </i>
   </energy>
  </scstep>
  <scstep>
   <time name="dav">    1.85    1.85</time>
   <time name="total">    1.93    1.93</time>
   <dipole>
    <v name="dipole">      0.00000000       0.00000000       0.03519488 </v>
    <i name="Tr[quadrupol]">  -8102.83966801 </i>
    <i name="Echarged">      0.00000000 </i>
    <i name="Edipol_quadrupol">      0.00000000 </i>
    <i name="Eion">      0.00000000 </i>
   </dipole>
   <energy>
    <i name="e_fr_energy">   -480.67166116 </i>
    <i name="e_wo_entrp">   -480.59070466 </i>
    <i name="e_0_energy">   -480.63118291 </i>
   </energy>
  </scstep>
  <scstep>
   <time name="dav">    2.06    2.06</time>
   <time name="total">    2.14    2.14</time>
   <dipole>
    <v name="dipole">      0.00000000       0.00000000       0.04449405 </v>
    <i name="Tr[quadrupol]">  -8102.85340101 </i>
    <i name="Echarged">      0.00000000 </i>
    <i name="Edipol_quadrupol">      0.00000000 </i>
    <i name="Eion">      0.00000000 </i>
   </dipole>
   <energy>
    <i name="e_fr_energy">   -480.70931979 </i>
    <i name="e_wo_entrp">   -480.62963264 </i>
    <i name="e_0_energy">   -480.66947621 </i>
   </energy>
  </scstep>
  <scstep>
   <time name="dav">    1.81    1.81</time>
   <time name="total">    1.89    1.89</time>
   <dipole>
    <v name="dipole">      0.00000000       0.00000000       0.05342925 </v>
    <i name="Tr[quadrupol]">  -8102.86483447 </i>
    <i name="Echarged">      0.00000000 </i>
    <i name="Edipol_quadrupol">      0.00000000 </i>
    <i name="Eion">      0.00000000 </i>
   </dipole>
   <energy>
    <i name="e_fr_energy">   -480.73138109 </i>
    <i name="e_wo_entrp">   -480.65301053 </i>
    <i name="e_0_energy">   -480.69219581 </i>
   </energy>
  </scstep>
  <scstep>
   <time name="dav">    2.05    2.05</time>
   <time name="total">    2.13    2.14</time>
   <dipole>
    <v name="dipole">      0.00000000       0.00000000       0.06154511 </v>
    <i name="Tr[quadrupol]">  -8102.91339717 </i>
    <i name="Echarged">      0.00000000 </i>
    <i name="Edipol_quadrupol">      0.00000000 </i>
    <i name="Eion">      0.00000000 </i>
   </dipole>
   <energy>
    <i name="e_fr_energy">   -480.76225153 </i>
    <i name="e_wo_entrp">   -480.68460486 </i>
    <i name="e_0_energy">   -480.72342820 </i>
   </energy>
  </scstep>
  <scstep>
   <time name="dav">    1.99    2.00</time>
   <time name="total">    2.07    2.08</time>
   <dipole>
    <v name="dipole">      0.00000000       0.00000000       0.06674203 </v>
    <i name="Tr[quadrupol]">  -8102.94979252 </i>
    <i name="Echarged">      0.00000000 </i>
    <i name="Edipol_quadrupol">      0.00000000 </i>
    <i name="Eion">      0.00000000 </i>
   </dipole>
   <energy>
    <i name="e_fr_energy">   -480.83625234 </i>
    <i name="e_wo_entrp">   -480.75904298 </i>
    <i name="e_0_energy">   -480.79764766 </i>
   </energy>
  </scstep>
  <scstep>
   <time name="dav">    1.92    1.92</time>
   <time name="total">    2.00    2.01</time>
   <dipole>
    <v name="dipole">      0.00000000       0.00000000       0.06781464 </v>
    <i name="Tr[quadrupol]">  -8102.95348812 </i>
    <i name="Echarged">      0.00000000 </i>
    <i name="Edipol_quadrupol">      0.00000000 </i>
    <i name="Eion">      0.00000000 </i>
   </dipole>
   <energy>
    <i name="e_fr_energy">   -480.85117509 </i>
    <i name="e_wo_entrp">   -480.77422960 </i>
    <i name="e_0_energy">   -480.81270234 </i>
   </energy>
  </scstep>
  <scstep>
   <time name="dav">    2.02    2.02</time>
   <time name="total">    2.10    2.10</time>
   <dipole>
    <v name="dipole">      0.00000000       0.00000000       0.06807797 </v>
    <i name="Tr[quadrupol]">  -8102.95330644 </i>
    <i name="Echarged">      0.00000000 </i>
    <i name="Edipol_quadrupol">      0.00000000 </i>
    <i name="Eion">      0.00000000 </i>
   </dipole>
   <energy>
    <i name="e_fr_energy">   -480.80642533 </i>
    <i name="e_wo_entrp">   -480.72936777 </i>
    <i name="e_0_energy">   -480.76789655 </i>
   </energy>
  </scstep>
  <scstep>
   <time name="dav">    1.93    1.93</time>
   <time name="total">    2.01    2.01</time>
   <dipole>
    <v name="dipole">      0.00000000       0.00000000       0.06897056 </v>
    <i name="Tr[quadrupol]">  -8102.95336400 </i>
    <i name="Echarged">      0.00000000 </i>
    <i name="Edipol_quadrupol">      0.00000000 </i>
    <i name="Eion">      0.00000000 </i>
   </dipole>
   <energy>
    <i name="e_fr_energy">   -480.78865279 </i>
    <i name="e_wo_entrp">   -480.71156758 </i>
    <i name="e_0_energy">   -480.75011018 </i>
   </energy>
  </scstep>
  <scstep>
   <time name="dav">    1.88    1.88</time>
   <time name="total">    1.96    1.96</time>
   <dipole>
    <v name="dipole">      0.00000000       0.00000000       0.07388315 </v>
    <i name="Tr[quadrupol]">  -8102.87962748 </i>
    <i name="Echarged">      0.00000000 </i>
    <i name="Edipol_quadrupol">      0.00000000 </i>
    <i name="Eion">      0.00000000 </i>
   </dipole>
   <energy>
    <i name="e_fr_energy">   -480.78002938 </i>
    <i name="e_wo_entrp">   -480.70069808 </i>
    <i name="e_0_energy">   -480.74036373 </i>
   </energy>
  </scstep>
  <scstep>
   <time name="dav">    1.93    1.94</time>
   <time name="total">    2.01    2.02</time>
   <dipole>
    <v name="dipole">      0.00000000       0.00000000       0.07669717 </v>
    <i name="Tr[quadrupol]">  -8102.89249247 </i>
    <i name="Echarged">      0.00000000 </i>
    <i name="Edipol_quadrupol">      0.00000000 </i>
    <i name="Eion">      0.00000000 </i>
   </dipole>
   <energy>
    <i name="e_fr_energy">   -480.73914669 </i>
    <i name="e_wo_entrp">   -480.65983558 </i>
    <i name="e_0_energy">   -480.69949113 </i>
   </energy>
  </scstep>
  <scstep>
   <time name="dav">    1.88    1.88</time>
   <time name="total">    1.96    1.96</time>
   <dipole>
    <v name="dipole">      0.00000000       0.00000000       0.06627653 </v>
    <i name="Tr[quadrupol]">  -8102.89726306 </i>
    <i name="Echarged">      0.00000000 </i>
    <i name="Edipol_quadrupol">      0.00000000 </i>
    <i name="Eion">      0.00000000 </i>
   </dipole>
   <energy>
    <i name="e_fr_energy">   -480.63784035 </i>
    <i name="e_wo_entrp">   -480.55318182 </i>
    <i name="e_0_energy">   -480.59551108 </i>
   </energy>
  </scstep>
  <scstep>
   <time name="dav">    1.81    1.81</time>
   <time name="total">    1.89    1.89</time>
   <dipole>
    <v name="dipole">      0.00000000       0.00000000       0.05516153 </v>
    <i name="Tr[quadrupol]">  -8102.86518529 </i>
    <i name="Echarged">      0.00000000 </i>
    <i name="Edipol_quadrupol">      0.00000000 </i>
    <i name="Eion">      0.00000000 </i>
   </dipole>
   <energy>
    <i name="e_fr_energy">   -480.61656476 </i>
    <i name="e_wo_entrp">   -480.52962368 </i>
    <i name="e_0_energy">   -480.57309422 </i>
   </energy>
  </scstep>
  <scstep>
   <time name="dav">    1.96    1.96</time>
   <time name="total">    2.04    2.04</time>
   <dipole>
    <v name="dipole">      0.00000000       0.00000000       0.04846128 </v>
    <i name="Tr[quadrupol]">  -8102.86951166 </i>
    <i name="Echarged">      0.00000000 </i>
    <i name="Edipol_quadrupol">      0.00000000 </i>
    <i name="Eion">      0.00000000 </i>
   </dipole>
   <energy>
    <i name="e_fr_energy">   -480.58124888 </i>
    <i name="e_wo_entrp">   -480.49319078 </i>
    <i name="e_0_energy">   -480.53721983 </i>
   </energy>
  </scstep>
  <scstep>
   <time name="dav">    1.97    1.97</time>
   <time name="total">    2.05    2.05</time>
   <dipole>
    <v name="dipole">      0.00000000       0.00000000       0.04045324 </v>
    <i name="Tr[quadrupol]">  -8102.86821765 </i>
    <i name="Echarged">      0.00000000 </i>
    <i name="Edipol_quadrupol">      0.00000000 </i>
    <i name="Eion">      0.00000000 </i>
   </dipole>
   <energy>
    <i name="e_fr_energy">   -480.58180378 </i>
    <i name="e_wo_entrp">   -480.49251579 </i>
    <i name="e_0_energy">   -480.53715979 </i>
   </energy>
  </scstep>
  <scstep>
   <time name="dav">    1.91    1.92</time>
   <time name="total">    1.99    2.00</time>
   <dipole>
    <v name="dipole">      0.00000000       0.00000000       0.03818056 </v>
    <i name="Tr[quadrupol]">  -8102.91750385 </i>
    <i name="Echarged">      0.00000000 </i>
    <i name="Edipol_quadrupol">      0.00000000 </i>
    <i name="Eion">      0.00000000 </i>
   </dipole>
   <energy>
    <i name="e_fr_energy">   -480.56054236 </i>
    <i name="e_wo_entrp">   -480.47148400 </i>
    <i name="e_0_energy">   -480.51601318 </i>
   </energy>
  </scstep>
  <scstep>
   <time name="dav">    1.92    1.92</time>
   <time name="total">    2.00    2.00</time>
   <dipole>
    <v name="dipole">      0.00000000       0.00000000       0.03799077 </v>
    <i name="Tr[quadrupol]">  -8102.98892584 </i>
    <i name="Echarged">      0.00000000 </i>
    <i name="Edipol_quadrupol">      0.00000000 </i>
    <i name="Eion">      0.00000000 </i>
   </dipole>
   <energy>
    <i name="e_fr_energy">   -480.55035695 </i>
    <i name="e_wo_entrp">   -480.46184168 </i>
    <i name="e_0_energy">   -480.50609931 </i>
   </energy>
  </scstep>
  <scstep>
   <time name="dav">    1.77    1.78</time>
   <time name="total">    1.86    1.86</time>
   <dipole>
    <v name="dipole">      0.00000000       0.00000000       0.04166451 </v>
    <i name="Tr[quadrupol]">  -8103.04063018 </i>
    <i name="Echarged">      0.00000000 </i>
    <i name="Edipol_quadrupol">      0.00000000 </i>
    <i name="Eion">      0.00000000 </i>
   </dipole>
   <energy>
    <i name="e_fr_energy">   -480.55084257 </i>
    <i name="e_wo_entrp">   -480.46230028 </i>
    <i name="e_0_energy">   -480.50657142 </i>
   </energy>
  </scstep>
  <scstep>
   <time name="dav">    2.00    2.00</time>
   <time name="total">    2.08    2.08</time>
   <dipole>
    <v name="dipole">      0.00000000       0.00000000       0.04452690 </v>
    <i name="Tr[quadrupol]">  -8103.07806120 </i>
    <i name="Echarged">      0.00000000 </i>
    <i name="Edipol_quadrupol">      0.00000000 </i>
    <i name="Eion">      0.00000000 </i>
   </dipole>
   <energy>
    <i name="e_fr_energy">   -480.55032619 </i>
    <i name="e_wo_entrp">   -480.46186878 </i>
    <i name="e_0_energy">   -480.50609748 </i>
   </energy>
  </scstep>
  <scstep>
   <time name="dav">    1.86    1.86</time>
   <time name="total">    1.94    1.94</time>
   <dipole>
    <v name="dipole">      0.00000000       0.00000000       0.04338954 </v>
    <i name="Tr[quadrupol]">  -8103.09416193 </i>
    <i name="Echarged">      0.00000000 </i>
    <i name="Edipol_quadrupol">      0.00000000 </i>
    <i name="Eion">      0.00000000 </i>
   </dipole>
   <energy>
    <i name="e_fr_energy">   -480.54976807 </i>
    <i name="e_wo_entrp">   -480.46190465 </i>
    <i name="e_0_energy">   -480.50583636 </i>
   </energy>
  </scstep>
  <scstep>
   <time name="dav">    1.90    1.91</time>
   <time name="total">    1.98    1.99</time>
   <dipole>
    <v name="dipole">      0.00000000       0.00000000       0.04087864 </v>
    <i name="Tr[quadrupol]">  -8103.11199958 </i>
    <i name="Echarged">      0.00000000 </i>
    <i name="Edipol_quadrupol">      0.00000000 </i>
    <i name="Eion">      0.00000000 </i>
   </dipole>
   <energy>
    <i name="e_fr_energy">   -480.54947133 </i>
    <i name="e_wo_entrp">   -480.46183936 </i>
    <i name="e_0_energy">   -480.50565535 </i>
   </energy>
  </scstep>
  <scstep>
   <time name="dav">    2.05    2.05</time>
   <time name="total">    2.13    2.14</time>
   <dipole>
    <v name="dipole">      0.00000000       0.00000000       0.03954124 </v>
    <i name="Tr[quadrupol]">  -8103.11616208 </i>
    <i name="Echarged">      0.00000000 </i>
    <i name="Edipol_quadrupol">      0.00000000 </i>
    <i name="Eion">      0.00000000 </i>
   </dipole>
   <energy>
    <i name="e_fr_energy">   -480.54965189 </i>
    <i name="e_wo_entrp">   -480.46220732 </i>
    <i name="e_0_energy">   -480.50592960 </i>
   </energy>
  </scstep>
  <scstep>
   <time name="dav">    1.64    1.64</time>
   <time name="total">    1.72    1.72</time>
   <dipole>
    <v name="dipole">      0.00000000       0.00000000       0.03886653 </v>
    <i name="Tr[quadrupol]">  -8103.11392424 </i>
    <i name="Echarged">      0.00000000 </i>
    <i name="Edipol_quadrupol">      0.00000000 </i>
    <i name="Eion">      0.00000000 </i>
   </dipole>
   <energy>
    <i name="e_fr_energy">   -480.54979838 </i>
    <i name="e_wo_entrp">   -480.46239715 </i>
    <i name="e_0_energy">   -480.50609777 </i>
   </energy>
  </scstep>
  <scstep>
   <time name="dav">    1.31    1.31</time>
   <time name="total">    1.39    1.40</time>
   <dipole>
    <v name="dipole">      0.00000000       0.00000000       0.03932670 </v>
    <i name="Tr[quadrupol]">  -8103.12321667 </i>
    <i name="Echarged">      0.00000000 </i>
    <i name="Edipol_quadrupol">      0.00000000 </i>
    <i name="Eion">      0.00000000 </i>
   </dipole>
   <energy>
    <i name="e_fr_energy">   -480.54987808 </i>
    <i name="e_wo_entrp">   -480.46238963 </i>
    <i name="e_0_energy">   -480.50613386 </i>
   </energy>
  </scstep>
  <scstep>
   <time name="dav">    1.42    1.42</time>
   <time name="total">    1.50    1.50</time>
   <dipole>
    <v name="dipole">      0.00000000       0.00000000       0.03924341 </v>
    <i name="Tr[quadrupol]">  -8103.12572126 </i>
    <i name="Echarged">      0.00000000 </i>
    <i name="Edipol_quadrupol">      0.00000000 </i>
    <i name="Eion">      0.00000000 </i>
   </dipole>
   <energy>
    <i name="e_fr_energy">   -480.54973688 </i>
    <i name="e_wo_entrp">   -480.46247937 </i>
    <i name="e_0_energy">   -480.50610813 </i>
   </energy>
  </scstep>
  <scstep>
   <time name="dav">    1.43    1.43</time>
   <time name="total">    1.51    1.51</time>
   <dipole>
    <v name="dipole">      0.00000000       0.00000000       0.03943444 </v>
    <i name="Tr[quadrupol]">  -8103.13004452 </i>
    <i name="Echarged">      0.00000000 </i>
    <i name="Edipol_quadrupol">      0.00000000 </i>
    <i name="Eion">      0.00000000 </i>
   </dipole>
   <energy>
    <i name="e_fr_energy">   -480.54971139 </i>
    <i name="e_wo_entrp">   -480.46246002 </i>
    <i name="e_0_energy">   -480.50608571 </i>
   </energy>
  </scstep>
  <scstep>
   <time name="dav">    1.30    1.30</time>
   <time name="total">    1.40    1.41</time>
   <dipole>
    <v name="dipole">      0.00000000       0.00000000       0.03937848 </v>
    <i name="Tr[quadrupol]">  -8103.13185846 </i>
    <i name="Echarged">      0.00000000 </i>
    <i name="Edipol_quadrupol">      0.00000000 </i>
    <i name="Eion">      0.00000000 </i>
   </dipole>
   <energy>
    <i name="e_fr_energy">   -480.54972158 </i>
    <i name="e_wo_entrp">   -480.46251461 </i>
    <i name="e_0_energy">   -480.50611809 </i>
   </energy>
  </scstep>
  <scstep>
   <time name="dav">    1.24    1.24</time>
   <time name="total">    1.32    1.32</time>
   <dipole>
    <v name="dipole">      0.00000000       0.00000000       0.03943266 </v>
    <i name="Tr[quadrupol]">  -8103.13492104 </i>
    <i name="Echarged">      0.00000000 </i>
    <i name="Edipol_quadrupol">      0.00000000 </i>
    <i name="Eion">      0.00000000 </i>
   </dipole>
   <energy>
    <i name="e_fr_energy">   -480.54974898 </i>
    <i name="e_wo_entrp">   -480.46246588 </i>
    <i name="e_0_energy">   -480.50610743 </i>
   </energy>
  </scstep>
  <scstep>
   <time name="dav">    1.14    1.14</time>
   <time name="total">    1.17    1.18</time>
   <dipole>
    <v name="dipole">      0.00000000       0.00000000       0.03925502 </v>
    <i name="Tr[quadrupol]">  -8103.13541401 </i>
    <i name="Echarged">      0.00000000 </i>
    <i name="Edipol_quadrupol">      0.00000000 </i>
    <i name="Eion">      0.00000000 </i>
   </dipole>
   <energy>
    <i name="alphaZ">    175.54283831 </i>
    <i name="ewald">  28784.59497549 </i>
    <i name="hartreedc"> -41956.27621197 </i>
    <i name="XCdc">   1018.21763766 </i>
    <i name="pawpsdc">  30967.86227420 </i>
    <i name="pawaedc"> -31060.48555404 </i>
    <i name="eentropy">     -0.08721619 </i>
    <i name="bandstr">  -3530.95399754 </i>
    <i name="atom">  15121.03550171 </i>
    <i name="e_fr_energy">   -480.54975237 </i>
    <i name="e_wo_entrp">   -480.46253618 </i>
    <i name="e_0_energy">   -480.50614427 </i>
   </energy>
  </scstep>
  <structure>
   <crystal>
    <varray name="basis" >
     <v>      13.75970367       0.00000000       0.00000000 </v>
     <v>       0.00000000      11.28669971       0.00000000 </v>
     <v>       0.00000000       0.00000000      15.00000000 </v>
    </varray>
    <i name="volume">   2329.52465126 </i>
    <varray name="rec_basis" >
     <v>       0.07267598       0.00000000       0.00000000 </v>
     <v>       0.00000000       0.08859986       0.00000000 </v>
     <v>       0.00000000       0.00000000       0.06666667 </v>
    </varray>
   </crystal>
   <varray name="positions" >
    <v>       0.07054120       0.38816457       0.22227495 </v>
    <v>       0.98151180       0.21832942       0.16785344 </v>
    <v>       0.22877304       0.39667288       0.18904348 </v>
    <v>       0.82472337       0.57572318       0.18403191 </v>
    <v>       0.14970601       0.24663792       0.12277753 </v>
    <v>       0.90758628       0.38434512       0.21811946 </v>
    <v>       0.56886571       0.39316130       0.23173729 </v>
    <v>       0.47768100       0.22391730       0.18017943 </v>
    <v>       0.73035049       0.39802658       0.19909345 </v>
    <v>       0.31101118       0.58132963       0.17977696 </v>
    <v>       0.64681854       0.25040749       0.13377315 </v>
    <v>       0.40275100       0.39355427       0.22106508 </v>
    <v>       0.81808056       0.88988957       0.05647519 </v>
    <v>       0.73319531       0.72568325       0.12448457 </v>
    <v>       0.97932824       0.89597624       0.07999408 </v>
    <v>       0.06867909       0.07698375       0.09423854 </v>
    <v>       0.90528082       0.74258583       0.14719628 </v>
    <v>       0.65472406       0.89333727       0.07691603 </v>
    <v>       0.31825350       0.89473226       0.05377466 </v>
    <v>       0.22716619       0.72126926       0.10084126 </v>
    <v>       0.47498917       0.90396535       0.09489577 </v>
    <v>       0.56592959       0.08075138       0.11024766 </v>
    <v>       0.38612516       0.76037560       0.16363174 </v>
    <v>       0.15509033       0.88950396       0.05271529 </v>
    <v>       0.98784551       0.43883046       0.24713656 </v>
    <v>       0.89991795       0.26975381       0.19549767 </v>
    <v>       0.15759857       0.43325808       0.24240148 </v>
    <v>       0.14788829       0.14353661       0.08017307 </v>
    <v>       0.98633649       0.10796021       0.13653167 </v>
    <v>       0.22915942       0.31533454       0.12527490 </v>
    <v>       0.06735802       0.28598388       0.16888911 </v>
    <v>       0.82274912       0.45552252       0.21014877 </v>
    <v>       0.48493735       0.44793349       0.25146232 </v>
    <v>       0.39648714       0.27665554       0.20625030 </v>
    <v>       0.65756919       0.43524210       0.25419888 </v>
    <v>       0.64488604       0.14640144       0.09374788 </v>
    <v>       0.48286722       0.11321356       0.15081376 </v>
    <v>       0.72606390       0.31870920       0.13454719 </v>
    <v>       0.56470606       0.29135323       0.18008364 </v>
    <v>       0.31888640       0.46086995       0.20329135 </v>
    <v>       0.73287748       0.94248397       0.03965616 </v>
    <v>       0.64891188       0.78317499       0.11254597 </v>
    <v>       0.90382696       0.93469024       0.03189926 </v>
    <v>       0.90701680       0.63807548       0.18754912 </v>
    <v>       0.73647441       0.61699787       0.15934394 </v>
    <v>       0.98321706       0.81212363       0.14197152 </v>
    <v>       0.81925020       0.78400528       0.10639513 </v>
    <v>       0.56804185       0.96074410       0.08520074 </v>
    <v>       0.23699719       0.94478449       0.02657725 </v>
    <v>       0.14820250       0.77173059       0.06843984 </v>
    <v>       0.40793432       0.93556381       0.03646331 </v>
    <v>       0.38047481       0.65838217       0.20939239 </v>
    <v>       0.23501053       0.60894863       0.12850628 </v>
    <v>       0.46527775       0.83024755       0.16578047 </v>
    <v>       0.31113112       0.79334051       0.10891910 </v>
    <v>       0.06990262       0.95754122       0.06514651 </v>
    <v>       0.57736557       0.77647674       0.24193941 </v>
    <v>       0.65582252       0.60772566       0.29790490 </v>
    <v>       0.48700699       0.61617049       0.29396059 </v>
   </varray>
  </structure>
  <varray name="forces" >
   <v>      -0.01000613      -0.00193385      -0.02007803 </v>
   <v>       0.02137998       0.09022872       0.03326707 </v>
   <v>      -0.00469117       0.05087043      -0.01802757 </v>
   <v>       0.07094304       0.04113659       0.16493813 </v>
   <v>       0.02358556       0.10621484       0.06487890 </v>
   <v>       0.01973057       0.04913601       0.02363712 </v>
   <v>      -0.07253939      -0.00851149      -0.01042020 </v>
   <v>       0.01945547       0.19813626       0.09121607 </v>
   <v>      -0.09783762       0.18336863       0.16368255 </v>
   <v>      -0.24548953      -0.08556678      -0.07546191 </v>
   <v>      -0.02761074       0.18537118       0.05710541 </v>
   <v>      -0.02380029       0.01860718       0.01183102 </v>
   <v>       0.06424139      -0.03416740       0.03481181 </v>
   <v>       0.34913456      -0.07294135      -0.27065799 </v>
   <v>       0.00298935       0.14039666      -0.04912704 </v>
   <v>      -0.01522124       0.11719496      -0.00852426 </v>
   <v>       0.04183615       0.18641179      -0.10447314 </v>
   <v>       0.13266360       0.33678065      -0.14420035 </v>
   <v>      -0.06201695       0.04881750      -0.06562307 </v>
   <v>       0.02037501       0.11319794       0.00200740 </v>
   <v>       0.14178575       0.27090205      -0.20062612 </v>
   <v>      -0.07436674       0.21458194       0.00516607 </v>
   <v>      -0.37541645      -0.10806300      -0.16895540 </v>
   <v>      -0.08555723       0.06140736       0.00056044 </v>
   <v>       0.05075666      -0.00408036      -0.01849392 </v>
   <v>      -0.03912645      -0.02209053       0.00729510 </v>
   <v>       0.05391832       0.00185982      -0.00591131 </v>
   <v>      -0.04882087      -0.07681436      -0.01794767 </v>
   <v>       0.06570504      -0.03350259      -0.03470179 </v>
   <v>      -0.00410166      -0.08171941      -0.07018239 </v>
   <v>      -0.00373029      -0.01536477       0.01046422 </v>
   <v>       0.01091530      -0.06322753       0.07451797 </v>
   <v>      -0.16625791      -0.93878451      -0.37474102 </v>
   <v>       0.06100479      -0.14070001       0.05014320 </v>
   <v>       0.25163662      -0.07367437       0.03073326 </v>
   <v>      -0.04579118      -0.07967330      -0.01763695 </v>
   <v>       0.09292633      -0.18265073      -0.09530066 </v>
   <v>      -0.08417426      -0.11999613      -0.14481617 </v>
   <v>      -0.08509348      -0.19275296      -0.09862841 </v>
   <v>      -0.04490897      -0.03640208      -0.09867751 </v>
   <v>      -0.05078866      -0.04077856       0.02625999 </v>
   <v>       0.67991298       0.05704313      -1.31690850 </v>
   <v>       0.02073482      -0.01996685       0.03071319 </v>
   <v>      -0.07352027      -0.21438711      -0.00585201 </v>
   <v>       0.05263336      -0.04916146      -0.10300349 </v>
   <v>      -0.06812942      -0.16525623       0.05016487 </v>
   <v>      -0.05101569       0.00603556       0.14190060 </v>
   <v>      -0.05882769      -0.14981442      -0.06229819 </v>
   <v>       0.10381741      -0.02624249       0.05885866 </v>
   <v>      -0.02453619      -0.05359802      -0.05186035 </v>
   <v>       0.02441175      -0.10009784       0.03831892 </v>
   <v>      -0.96635482       0.16595374      -0.91275679 </v>
   <v>       0.03053253       0.00593670       0.13108949 </v>
   <v>      -1.72811792       0.97545756      -1.17210581 </v>
   <v>       0.04713909      -0.02161151       0.02918294 </v>
   <v>      -0.03202771      -0.12992838      -0.03387155 </v>
   <v>       2.13391746       2.46082584       1.69496997 </v>
   <v>       1.46106410      -0.87482675       0.35036666 </v>
   <v>      -1.37927008      -1.86758591       2.39378856 </v>
  </varray>
  <varray name="stress" >
   <v>       1.90160604       5.60340299       0.87433817 </v>
   <v>       5.60340298      -0.60319787      -2.89303501 </v>
   <v>       0.87433817      -2.89303501      -7.78722456 </v>
  </varray>
  <energy>
[...]
       <r>    1.7987    0.0000 </r>
       <r>    1.8909    0.0000 </r>
       <r>    1.9318    0.0000 </r>
       <r>    2.0341    0.0000 </r>
       <r>    2.3813    0.0000 </r>
       <r>    2.4666    0.0000 </r>
       <r>    2.5828    0.0000 </r>
       <r>    2.6677    0.0000 </r>
       <r>    2.7559    0.0000 </r>
      </set>
     </set>
    </set>
   </array>
  </eigenvalues>
  <separator name="orbital magnetization" >
   <v name="MAGDIPOLOUT">      0.00000000      0.00000000      0.00000000</v>
  </separator>
  <dos>
   <i name="efermi">     -2.03863255 </i>
   <total>
    <array>
     <dimension dim="1">gridpoints</dimension>
     <dimension dim="2">spin</dimension>
     <field>energy</field>
     <field>total</field>
     <field>integrated</field>
     <set>
      <set comment="spin 1">
       <r>   -27.7505     0.0000     0.0000 </r>
       <r>   -27.6438     0.0000     0.0000 </r>
       <r>   -27.5371     0.0000     0.0000 </r>
       <r>   -27.4304     0.0000     0.0000 </r>
       <r>   -27.3237     0.0000     0.0000 </r>
       <r>   -27.2171     0.0000     0.0000 </r>
       <r>   -27.1104     0.0000     0.0000 </r>
       <r>   -27.0037     0.0000     0.0000 </r>
       <r>   -26.8970     0.0000     0.0000 </r>
       <r>   -26.7903     0.0000     0.0000 </r>
       <r>   -26.6836     0.0000     0.0000 </r>
       <r>   -26.5770     0.0002     0.0000 </r>
       <r>   -26.4703     0.0416     0.0045 </r>
       <r>   -26.3636     1.4074     0.1546 </r>
       <r>   -26.2569     9.6113     1.1800 </r>
       <r>   -26.1502    21.5268     3.4766 </r>
       <r>   -26.0435    26.8591     6.3420 </r>
       <r>   -25.9368    13.8292     7.8174 </r>
       <r>   -25.8302     1.6765     7.9963 </r>
       <r>   -25.7235     0.0349     8.0000 </r>
       <r>   -25.6168     0.0001     8.0000 </r>
       <r>   -25.5101     0.0000     8.0000 </r>
       <r>   -25.4034     0.0030     8.0003 </r>
       <r>   -25.2967     0.3053     8.0329 </r>
       <r>   -25.1900     4.6986     8.5342 </r>
       <r>   -25.0834    14.4140    10.0719 </r>
       <r>   -24.9767    15.1794    11.6913 </r>
       <r>   -24.8700    11.5341    12.9219 </r>
       <r>   -24.7633     8.7375    13.8540 </r>
       <r>   -24.6566     9.3511    14.8517 </r>
       <r>   -24.5499     5.4070    15.4285 </r>
       <r>   -24.4432     0.6578    15.4987 </r>
       <r>   -24.3366     0.0381    15.5028 </r>
       <r>   -24.2299     0.6819    15.5755 </r>
       <r>   -24.1232     2.6931    15.8628 </r>
       <r>   -24.0165     6.6188    16.5689 </r>
       <r>   -23.9098    25.3171    19.2699 </r>
       <r>   -23.8031    32.0313    22.6872 </r>
       <r>   -23.6965    14.3888    24.2222 </r>
       <r>   -23.5898     2.4768    24.4865 </r>
       <r>   -23.4831     0.1349    24.5009 </r>
       <r>   -23.3764     0.5642    24.5611 </r>
       <r>   -23.2697     5.2803    25.1244 </r>
       <r>   -23.1630    10.2215    26.2149 </r>
       <r>   -23.0563     7.7822    27.0451 </r>
       <r>   -22.9497     9.1296    28.0191 </r>
       <r>   -22.8430    12.8215    29.3870 </r>
       <r>   -22.7363    12.6686    30.7385 </r>
       <r>   -22.6296     9.0661    31.7058 </r>
       <r>   -22.5229     2.5793    31.9809 </r>
       <r>   -22.4162     0.1768    31.9998 </r>
       <r>   -22.3095     0.0024    32.0001 </r>
       <r>   -22.2029     0.0858    32.0092 </r>
       <r>   -22.0962     2.2704    32.2514 </r>
       <r>   -21.9895    14.8530    33.8360 </r>
       <r>   -21.8828    36.5600    37.7364 </r>
       <r>   -21.7761    37.9359    41.7836 </r>
       <r>   -21.6694    29.0656    44.8845 </r>
       <r>   -21.5627    21.8005    47.2103 </r>
       <r>   -21.4561     6.9258    47.9492 </r>
       <r>   -21.3494     0.5742    48.0104 </r>
       <r>   -21.2427     1.5720    48.1781 </r>
       <r>   -21.1360     6.2464    48.8445 </r>
       <r>   -21.0293    15.9773    50.5491 </r>
       <r>   -20.9226    21.7254    52.8669 </r>
       <r>   -20.8160    18.7411    54.8663 </r>
       <r>   -20.7093     8.8855    55.8142 </r>
       <r>   -20.6026     2.3031    56.0599 </r>
       <r>   -20.4959     9.2682    57.0487 </r>
       <r>   -20.3892    24.3832    59.6500 </r>
       <r>   -20.2825    23.8887    62.1986 </r>
       <r>   -20.1758    14.0510    63.6976 </r>
       <r>   -20.0692     2.7137    63.9872 </r>
       <r>   -19.9625     0.1195    63.9999 </r>
       <r>   -19.8558     0.0009    64.0000 </r>
       <r>   -19.7491     0.0000    64.0000 </r>
       <r>   -19.6424     0.0000    64.0000 </r>
       <r>   -19.5357     0.0000    64.0000 </r>
       <r>   -19.4290     0.0000    64.0000 </r>
       <r>   -19.3224     0.0000    64.0000 </r>
       <r>   -19.2157     0.0000    64.0000 </r>
       <r>   -19.1090     0.0000    64.0000 </r>
       <r>   -19.0023     0.0000    64.0000 </r>
       <r>   -18.8956     0.0000    64.0000 </r>
       <r>   -18.7889     0.0000    64.0000 </r>
       <r>   -18.6822     0.0000    64.0000 </r>
       <r>   -18.5756     0.0000    64.0000 </r>
       <r>   -18.4689     0.0000    64.0000 </r>
       <r>   -18.3622     0.0000    64.0000 </r>
       <r>   -18.2555     0.0000    64.0000 </r>
       <r>   -18.1488     0.0000    64.0000 </r>
       <r>   -18.0421     0.0000    64.0000 </r>
       <r>   -17.9355     0.0000    64.0000 </r>
       <r>   -17.8288     0.0000    64.0000 </r>
       <r>   -17.7221     0.0174    64.0019 </r>
       <r>   -17.6154     0.8863    64.0964 </r>
       <r>   -17.5087     7.3183    64.8772 </r>
       <r>   -17.4020    15.1439    66.4928 </r>
       <r>   -17.2953    14.4543    68.0349 </r>
       <r>   -17.1887    12.4385    69.3619 </r>
       <r>   -17.0820    19.3618    71.4275 </r>
       <r>   -16.9753    22.7823    73.8580 </r>
       <r>   -16.8686    18.5375    75.8357 </r>
       <r>   -16.7619    11.4684    77.0592 </r>
       <r>   -16.6552    10.8989    78.2220 </r>
       <r>   -16.5485     9.6743    79.2541 </r>
       <r>   -16.4419     2.2250    79.4914 </r>
       <r>   -16.3352     0.1496    79.5074 </r>
       <r>   -16.2285     1.1168    79.6265 </r>
       <r>   -16.1218     2.5663    79.9003 </r>
       <r>   -16.0151     0.8906    79.9953 </r>
       <r>   -15.9084     0.0438    80.0000 </r>
       <r>   -15.8017     0.0716    80.0077 </r>
       <r>   -15.6951     2.3178    80.2549 </r>
       <r>   -15.5884    15.9850    81.9603 </r>
       <r>   -15.4817    31.1523    85.2838 </r>
       <r>   -15.3750    18.1637    87.2216 </r>
       <r>   -15.2683     4.1160    87.6607 </r>
       <r>   -15.1616     2.7808    87.9574 </r>
       <r>   -15.0550     2.5200    88.2262 </r>
       <r>   -14.9483     2.4499    88.4876 </r>
       <r>   -14.8416     2.3033    88.7333 </r>
       <r>   -14.7349     2.1463    88.9623 </r>
       <r>   -14.6282     0.7900    89.0466 </r>
       <r>   -14.5215     5.9237    89.6785 </r>
       <r>   -14.4148    14.4684    91.2221 </r>
       <r>   -14.3082    11.2170    92.4188 </r>
       <r>   -14.2015    11.1416    93.6074 </r>
       <r>   -14.0948    11.8765    94.8745 </r>
       <r>   -13.9881    16.3522    96.6190 </r>
       <r>   -13.8814    26.8508    99.4836 </r>
       <r>   -13.7747    27.1062   102.3754 </r>
       <r>   -13.6680    30.3652   105.6150 </r>
       <r>   -13.5614    29.8045   108.7947 </r>
       <r>   -13.4547    20.2205   110.9519 </r>
       <r>   -13.3480    17.7690   112.8476 </r>
       <r>   -13.2413    13.1494   114.2504 </r>
       <r>   -13.1346     4.7745   114.7598 </r>
       <r>   -13.0279     6.5313   115.4566 </r>
       <r>   -12.9212     8.0729   116.3178 </r>
       <r>   -12.8146     8.3026   117.2036 </r>
       <r>   -12.7079     7.2885   117.9812 </r>
       <r>   -12.6012     4.7974   118.4930 </r>
       <r>   -12.4945     6.1130   119.1452 </r>
       <r>   -12.3878     8.7230   120.0758 </r>
       <r>   -12.2811     6.0375   120.7199 </r>
       <r>   -12.1745     5.6300   121.3205 </r>
       <r>   -12.0678     7.5485   122.1258 </r>
       <r>   -11.9611    14.3179   123.6533 </r>
       <r>   -11.8544    19.2367   125.7056 </r>
       <r>   -11.7477    22.4361   128.0992 </r>
       <r>   -11.6410    23.2983   130.5848 </r>
       <r>   -11.5343    18.9297   132.6043 </r>
       <r>   -11.4277    18.1654   134.5423 </r>
       <r>   -11.3210    19.2662   136.5977 </r>
       <r>   -11.2143    16.9410   138.4051 </r>
       <r>   -11.1076    10.5639   139.5321 </r>
       <r>   -11.0009     8.4258   140.4310 </r>
       <r>   -10.8942     5.3536   141.0021 </r>
       <r>   -10.7875     6.0470   141.6473 </r>
       <r>   -10.6809    12.3587   142.9657 </r>
       <r>   -10.5742    20.2252   145.1235 </r>
       <r>   -10.4675    19.8046   147.2363 </r>
       <r>   -10.3608    17.9659   149.1530 </r>
       <r>   -10.2541    15.2929   150.7846 </r>
       <r>   -10.1474     9.2038   151.7665 </r>
       <r>   -10.0407     2.3226   152.0142 </r>
       <r>    -9.9341     2.0622   152.2342 </r>
       <r>    -9.8274     4.6685   152.7323 </r>
       <r>    -9.7207     9.4766   153.7433 </r>
       <r>    -9.6140    11.3793   154.9573 </r>
       <r>    -9.5073    18.3780   156.9180 </r>
       <r>    -9.4006    19.7026   159.0200 </r>
       <r>    -9.2939    14.7469   160.5932 </r>
       <r>    -9.1873    26.0909   163.3768 </r>
       <r>    -9.0806    29.2765   166.5001 </r>
       <r>    -8.9739    18.5975   168.4842 </r>
       <r>    -8.8672    11.4249   169.7031 </r>
       <r>    -8.7605     7.4310   170.4959 </r>
       <r>    -8.6538    10.2779   171.5924 </r>
       <r>    -8.5472     5.2762   172.1552 </r>
       <r>    -8.4405     2.7514   172.4488 </r>
       <r>    -8.3338     3.3947   172.8109 </r>
       <r>    -8.2271    13.5269   174.2541 </r>
       <r>    -8.1204    16.6207   176.0272 </r>
       <r>    -8.0137    19.0371   178.0582 </r>
       <r>    -7.9070    24.8349   180.7077 </r>
       <r>    -7.8004    10.8566   181.8660 </r>
       <r>    -7.6937     1.2901   182.0036 </r>
       <r>    -7.5870     2.7793   182.3001 </r>
       <r>    -7.4803    20.5222   184.4895 </r>
       <r>    -7.3736    36.7513   188.4104 </r>
       <r>    -7.2669    31.1320   191.7317 </r>
       <r>    -7.1602    31.1695   195.0570 </r>
       <r>    -7.0536    36.8724   198.9907 </r>
       <r>    -6.9469    32.7831   202.4882 </r>
       <r>    -6.8402    16.0976   204.2056 </r>
       <r>    -6.7335    10.4712   205.3227 </r>
       <r>    -6.6268    10.5194   206.4450 </r>
       <r>    -6.5201    21.3894   208.7269 </r>
       <r>    -6.4134    25.4872   211.4460 </r>
       <r>    -6.3068    18.0957   213.3766 </r>
       <r>    -6.2001    14.3010   214.9023 </r>
       <r>    -6.0934    10.8595   216.0608 </r>
       <r>    -5.9867    10.5962   217.1913 </r>
       <r>    -5.8800    11.0497   218.3701 </r>
       <r>    -5.7733    14.4581   219.9126 </r>
       <r>    -5.6667    19.0791   221.9481 </r>
       <r>    -5.5600    22.8818   224.3892 </r>
       <r>    -5.4533    29.6335   227.5507 </r>
       <r>    -5.3466    33.2958   231.1028 </r>
       <r>    -5.2399    28.0969   234.1004 </r>
       <r>    -5.1332    35.2458   237.8606 </r>
       <r>    -5.0265    36.3628   241.7399 </r>
       <r>    -4.9199    34.0974   245.3776 </r>
       <r>    -4.8132    30.8345   248.6672 </r>
       <r>    -4.7065    31.7133   252.0505 </r>
       <r>    -4.5998    28.1358   255.0522 </r>
       <r>    -4.4931    22.5394   257.4568 </r>
       <r>    -4.3864    28.0405   260.4483 </r>
       <r>    -4.2797    26.5167   263.2773 </r>
       <r>    -4.1731    24.3533   265.8754 </r>
       <r>    -4.0664    17.5491   267.7476 </r>
       <r>    -3.9597    19.4945   269.8274 </r>
       <r>    -3.8530    16.6033   271.5987 </r>
       <r>    -3.7463     8.2666   272.4807 </r>
       <r>    -3.6396    18.0681   274.4083 </r>
       <r>    -3.5329    22.6158   276.8210 </r>
       <r>    -3.4263    10.0224   277.8903 </r>
       <r>    -3.3196     1.0136   277.9984 </r>
       <r>    -3.2129     0.2064   278.0204 </r>
       <r>    -3.1062     4.9706   278.5507 </r>
       <r>    -2.9995    19.3356   280.6135 </r>
       <r>    -2.8928    15.1871   282.2338 </r>
       <r>    -2.7862    12.1774   283.5329 </r>
       <r>    -2.6795    12.0387   284.8173 </r>
       <r>    -2.5728     9.3433   285.8141 </r>
       <r>    -2.4661     1.6998   285.9954 </r>
       <r>    -2.3594     0.1456   286.0110 </r>
       <r>    -2.2527     2.6881   286.2977 </r>
       <r>    -2.1460     9.9173   287.3558 </r>
       <r>    -2.0394     6.0172   287.9977 </r>
       <r>    -1.9327     5.9361   288.6310 </r>
       <r>    -1.8260    13.8280   290.1063 </r>
       <r>    -1.7193    12.8208   291.4740 </r>
       <r>    -1.6126    12.9482   292.8554 </r>
       <r>    -1.5059    11.6443   294.0977 </r>
       <r>    -1.3992     8.8979   295.0470 </r>
       <r>    -1.2926    11.0184   296.2225 </r>
       <r>    -1.1859    17.5742   298.0974 </r>
       <r>    -1.0792    24.6164   300.7236 </r>
       <r>    -0.9725    21.4753   303.0147 </r>
       <r>    -0.8658     8.6069   303.9329 </r>
       <r>    -0.7591     4.6628   304.4304 </r>
       <r>    -0.6524    11.3570   305.6420 </r>
       <r>    -0.5458    19.8660   307.7614 </r>
       <r>    -0.4391    19.3715   309.8280 </r>
       <r>    -0.3324    13.6327   311.2825 </r>
       <r>    -0.2257     6.1115   311.9345 </r>
       <r>    -0.1190     1.9070   312.1379 </r>
       <r>    -0.0123     7.9550   312.9866 </r>
       <r>     0.0943     8.1732   313.8586 </r>
       <r>     0.2010     3.3870   314.2199 </r>
       <r>     0.3077     9.3759   315.2202 </r>
       <r>     0.4144     6.5997   315.9243 </r>
       <r>     0.5211     0.7000   315.9989 </r>
       <r>     0.6278     0.0128   316.0003 </r>
       <r>     0.7345     0.3110   316.0335 </r>
       <r>     0.8411     4.9467   316.5612 </r>
       <r>     0.9478    14.1959   318.0757 </r>
       <r>     1.0545    15.8929   319.7712 </r>
       <r>     1.1612    15.8226   321.4593 </r>
       <r>     1.2679    13.9678   322.9494 </r>
       <r>     1.3746    18.9972   324.9762 </r>
       <r>     1.4813    19.4245   327.0485 </r>
       <r>     1.5879    23.4277   329.5479 </r>
       <r>     1.6946    22.6648   331.9659 </r>
       <r>     1.8013    22.4531   334.3613 </r>
       <r>     1.9080    24.7271   336.9993 </r>
       <r>     2.0147    23.7840   339.5367 </r>
       <r>     2.1214    15.2254   341.1610 </r>
       <r>     2.2281     9.9194   342.2193 </r>
       <r>     2.3347    11.7421   343.4720 </r>
       <r>     2.4414    14.2651   344.9938 </r>
       <r>     2.5481    17.9344   346.9072 </r>
       <r>     2.6548    19.9845   349.0392 </r>
       <r>     2.7615    17.0173   350.8547 </r>
       <r>     2.8682     9.1824   351.8344 </r>
       <r>     2.9748     1.5070   351.9951 </r>
       <r>     3.0815     0.0454   352.0000 </r>
       <r>     3.1882     0.0002   352.0000 </r>
       <r>     3.2949     0.0000   352.0000 </r>
       <r>     3.4016     0.0000   352.0000 </r>
       <r>     3.5083     0.0000   352.0000 </r>
       <r>     3.6150     0.0000   352.0000 </r>
       <r>     3.7216     0.0000   352.0000 </r>
       <r>     3.8283     0.0000   352.0000 </r>
       <r>     3.9350     0.0000   352.0000 </r>
       <r>     4.0417     0.0000   352.0000 </r>
       <r>     4.1484     0.0000   352.0000 </r>
       <r>     4.2551     0.0000   352.0000 </r>
      </set>
     </set>
    </array>
   </total>
  </dos>
 </calculation>
 <structure name="finalpos" >
  <crystal>
   <varray name="basis" >
    <v>      13.69460710       0.00000000       0.00000000 </v>
    <v>       0.00000000      10.85910412       0.00000000 </v>
    <v>       0.00000000       0.00000000      15.00000000 </v>
   </varray>
   <i name="volume">   2230.66746431 </i>
   <varray name="rec_basis" >
    <v>       0.07302145       0.00000000       0.00000000 </v>
    <v>       0.00000000       0.09208863       0.00000000 </v>
    <v>       0.00000000       0.00000000       0.06666667 </v>
   </varray>
  </crystal>
  <varray name="positions" >
   <v>       0.07113715       0.38812013       0.22877734 </v>
   <v>       0.98035039       0.21956916       0.16571735 </v>
   <v>       0.23009879       0.39552324       0.19750875 </v>
   <v>       0.81846274       0.58139424       0.18855161 </v>
   <v>       0.14929022       0.25060609       0.12200682 </v>
   <v>       0.90753748       0.38699167       0.22483785 </v>
   <v>       0.56969988       0.39310512       0.23322521 </v>
   <v>       0.47819256       0.22256855       0.17631158 </v>
   <v>       0.73105902       0.39677108       0.20391019 </v>
   <v>       0.31176977       0.58438060       0.18652637 </v>
   <v>       0.64574033       0.25752708       0.12570479 </v>
   <v>       0.40515926       0.39419123       0.22750408 </v>
   <v>       0.81582959       0.88998167       0.04492088 </v>
   <v>       0.72725607       0.72218486       0.11190269 </v>
   <v>       0.97634523       0.89669506       0.07007397 </v>
   <v>       0.06656943       0.08028513       0.08372358 </v>
   <v>       0.89796414       0.75296080       0.14911598 </v>
   <v>       0.65187351       0.89008716       0.05567707 </v>
   <v>       0.31666496       0.89188095       0.04137227 </v>
   <v>       0.22566142       0.72109557       0.10192361 </v>
   <v>       0.47439363       0.90279382       0.07862684 </v>
   <v>       0.56472146       0.08473489       0.09291895 </v>
   <v>       0.39002336       0.76253602       0.15436566 </v>
   <v>       0.15278338       0.88738224       0.04228361 </v>
   <v>       0.98843998       0.44146408       0.25455267 </v>
   <v>       0.89924242       0.26932264       0.19820804 </v>
   <v>       0.15898954       0.42946541       0.25267965 </v>
   <v>       0.14647533       0.14878383       0.07293751 </v>
   <v>       0.98386542       0.10928665       0.12698901 </v>
   <v>       0.23017671       0.31833705       0.12903815 </v>
   <v>       0.06698950       0.28787125       0.17013175 </v>
   <v>       0.82132387       0.45821461       0.22014312 </v>
   <v>       0.48780172       0.45276790       0.25258424 </v>
   <v>       0.39898978       0.27143191       0.21260094 </v>
   <v>       0.65965944       0.42699687       0.26198456 </v>
   <v>       0.64289402       0.15496398       0.07787068 </v>
   <v>       0.48274942       0.11194199       0.13818217 </v>
   <v>       0.72587109       0.32656556       0.13181708 </v>
   <v>       0.56459026       0.29308177       0.17570983 </v>
   <v>       0.31951283       0.46135331       0.21303383 </v>
   <v>       0.73208859       0.94360339       0.02280207 </v>
   <v>       0.64467383       0.77220614       0.08311721 </v>
   <v>       0.90317674       0.92948221       0.01683198 </v>
   <v>       0.89834050       0.64998682       0.19712530 </v>
   <v>       0.73303650       0.61117365       0.15003954 </v>
   <v>       0.97790418       0.82169374       0.13996534 </v>
   <v>       0.81392323       0.78966058       0.10372033 </v>
   <v>       0.56661743       0.96159233       0.06300333 </v>
   <v>       0.23427100       0.94261476       0.01329117 </v>
   <v>       0.14547631       0.76820084       0.06612025 </v>
   <v>       0.40586835       0.93257392       0.01975464 </v>
   <v>       0.38628649       0.66121203       0.20542393 </v>
   <v>       0.23119013       0.61047058       0.14000160 </v>
   <v>       0.46983591       0.83152587       0.15070663 </v>
   <v>       0.31099060       0.79300099       0.10143505 </v>
   <v>       0.06732482       0.95815995       0.05123379 </v>
   <v>       0.61783345       0.75149268       0.41866973 </v>
   <v>       0.66336330       0.56024514       0.34751140 </v>
   <v>       0.49880443       0.63497861       0.30647407 </v>
  </varray>
 </structure>
</modeling>
