slab_Cel1-OPT                           
           1
    13.759704    0.000000    0.000000
     0.000000   11.286700    0.000000
     0.000000    0.000000   15.000000
   C    N    Au   Cu   Pd
    24    32     1     1     1
Direct configuration=     1
   0.07054120  0.38816457  0.22227495
   0.98151180  0.21832942  0.16785344
   0.22877304  0.39667288  0.18904348
   0.82472337  0.57572318  0.18403191
   0.14970601  0.24663792  0.12277753
   0.90758628  0.38434512  0.21811946
   0.56886571  0.39316130  0.23173729
   0.47768100  0.22391730  0.18017943
   0.73035049  0.39802658  0.19909345
   0.31101118  0.58132963  0.17977696
   0.64681854  0.25040749  0.13377315
   0.40275100  0.39355427  0.22106508
   0.81808056  0.88988957  0.05647519
   0.73319531  0.72568325  0.12448457
   0.97932824  0.89597624  0.07999408
   0.06867909  0.07698375  0.09423854
   0.90528082  0.74258583  0.14719628
   0.65472406  0.89333727  0.07691603
   0.31825350  0.89473226  0.05377466
   0.22716619  0.72126926  0.10084126
   0.47498917  0.90396535  0.09489577
   0.56592959  0.08075138  0.11024766
   0.38612516  0.76037560  0.16363174
   0.15509033  0.88950396  0.05271529
   0.98784551  0.43883046  0.24713656
   0.89991795  0.26975381  0.19549767
   0.15759857  0.43325808  0.24240148
   0.14788829  0.14353661  0.08017307
   0.98633649  0.10796021  0.13653167
   0.22915942  0.31533454  0.12527490
   0.06735802  0.28598388  0.16888911
   0.82274912  0.45552252  0.21014877
   0.48493735  0.44793349  0.25146232
   0.39648714  0.27665554  0.20625030
   0.65756919  0.43524210  0.25419888
   0.64488604  0.14640144  0.09374788
   0.48286722  0.11321356  0.15081376
   0.72606390  0.31870920  0.13454719
   0.56470606  0.29135323  0.18008364
   0.31888640  0.46086995  0.20329135
   0.73287748  0.94248397  0.03965616
   0.64891188  0.78317499  0.11254597
   0.90382696  0.93469024  0.03189926
   0.90701680  0.63807548  0.18754912
   0.73647441  0.61699787  0.15934394
   0.98321706  0.81212363  0.14197152
   0.81925020  0.78400528  0.10639513
   0.56804185  0.96074410  0.08520074
   0.23699719  0.94478449  0.02657725
   0.14820250  0.77173059  0.06843984
   0.40793432  0.93556381  0.03646331
   0.38047481  0.65838217  0.20939239
   0.23501053  0.60894863  0.12850628
   0.46527775  0.83024755  0.16578047
   0.31113112  0.79334051  0.10891910
   0.06990262  0.95754122  0.06514651
   0.57736557  0.77647674  0.24193941
   0.65582252  0.60772566  0.29790490
   0.48700699  0.61617049  0.29396059
slab_Cel1-OPT                           
           1
    13.765925    0.000000    0.000000
     0.000000   11.285081    0.000000
     0.000000    0.000000   15.000000
   C    N    Au   Cu   Pd
    24    32     1     1     1
Direct configuration=     2
   0.07053419  0.38816292  0.22226203
   0.98152679  0.21840656  0.16787484
   0.22876975  0.39671637  0.18903189
   0.82477312  0.57575834  0.18413801
   0.14972255  0.24672871  0.12281926
   0.90760012  0.38438712  0.21813466
   0.56881485  0.39315402  0.23173059
   0.47769465  0.22408667  0.18023810
   0.73028188  0.39818333  0.19919874
   0.31083904  0.58125648  0.17972842
   0.64679918  0.25056595  0.13380988
   0.40273431  0.39357017  0.22107269
   0.81812561  0.88986036  0.05649759
   0.73344013  0.72562089  0.12431047
   0.97933033  0.89609626  0.07996248
   0.06866842  0.07708394  0.09423306
   0.90531016  0.74274518  0.14712908
   0.65481708  0.89362517  0.07682328
   0.31821001  0.89477399  0.05373245
   0.22718047  0.72136603  0.10084255
   0.47508859  0.90419693  0.09476672
   0.56587745  0.08093481  0.11025099
   0.38586191  0.76028322  0.16352306
   0.15503034  0.88955645  0.05271565
   0.98788110  0.43882697  0.24712466
   0.89989051  0.26973493  0.19550237
   0.15763638  0.43325967  0.24239768
   0.14785405  0.14347095  0.08016153
   0.98638256  0.10793157  0.13650935
   0.22915655  0.31526468  0.12522976
   0.06735540  0.28597075  0.16889584
   0.82275678  0.45546847  0.21019671
   0.48482077  0.44713096  0.25122127
   0.39652992  0.27653526  0.20628256
   0.65774564  0.43517912  0.25421865
   0.64485394  0.14633333  0.09373654
   0.48293238  0.11305742  0.15075246
   0.72600487  0.31860662  0.13445404
   0.56464639  0.29118845  0.18002019
   0.31885491  0.46083883  0.20322788
   0.73284187  0.94244911  0.03967305
   0.64938864  0.78322375  0.11169889
   0.90384150  0.93467317  0.03191902
   0.90696525  0.63789221  0.18754536
   0.73651132  0.61695584  0.15927768
   0.98316929  0.81198236  0.14200379
   0.81921443  0.78401044  0.10648640
   0.56800059  0.96061603  0.08516066
   0.23706999  0.94476206  0.02661511
   0.14818530  0.77168478  0.06840648
   0.40795144  0.93547824  0.03648796
   0.37979719  0.65852404  0.20880528
   0.23503194  0.60895371  0.12859060
   0.46406597  0.83108142  0.16502653
   0.31116418  0.79332203  0.10893787
   0.06988016  0.95743015  0.06512472
   0.57886191  0.77858040  0.24302967
   0.65684704  0.60697781  0.29813026
   0.48603982  0.61457397  0.29550036
slab_Cel1-OPT                           
           1
    13.784590    0.000000    0.000000
     0.000000   11.280225    0.000000
     0.000000    0.000000   15.000000
   C    N    Au   Cu   Pd
    24    32     1     1     1
Direct configuration=     3
   0.07051315  0.38815796  0.22222329
   0.98157175  0.21863799  0.16793903
   0.22875988  0.39684685  0.18899710
   0.82492229  0.57586386  0.18445629
   0.14977214  0.24700115  0.12294446
   0.90764161  0.38451315  0.21818028
   0.56866232  0.39313219  0.23171048
   0.47773555  0.22459488  0.18041412
   0.73007616  0.39865366  0.19951460
   0.31032285  0.58103700  0.17958280
   0.64674113  0.25104142  0.13392007
   0.40268426  0.39361790  0.22109552
   0.81826069  0.88977272  0.05656476
   0.73417425  0.72543380  0.12378818
   0.97933662  0.89645637  0.07986768
   0.06863641  0.07738454  0.09421661
   0.90539813  0.74322332  0.14692747
   0.65509603  0.89448900  0.07654501
   0.31807961  0.89489921  0.05360581
   0.22722332  0.72165638  0.10084643
   0.47538672  0.90489178  0.09437957
   0.56572108  0.08148520  0.11026095
   0.38507252  0.76000604  0.16319703
   0.15485043  0.88971396  0.05271673
   0.98798783  0.43881651  0.24708898
   0.89980824  0.26967827  0.19551644
   0.15774975  0.43326444  0.24238627
   0.14775140  0.14327392  0.08012689
   0.98652072  0.10784564  0.13644238
   0.22914792  0.31505508  0.12509433
   0.06734756  0.28593134  0.16891603
   0.82277973  0.45530629  0.21034050
   0.48447118  0.44472303  0.25049813
   0.39665820  0.27617438  0.20637932
   0.65827475  0.43499015  0.25427796
   0.64475765  0.14612897  0.09370250
   0.48312778  0.11258893  0.15056855
   0.72582788  0.31829883  0.13417459
   0.56446747  0.29069405  0.17982987
   0.31876048  0.46074546  0.20303746
   0.73273508  0.94234451  0.03972373
   0.65081829  0.78337006  0.10915764
   0.90388510  0.93462196  0.03197828
   0.90681066  0.63734232  0.18753407
   0.73662199  0.61682974  0.15907891
   0.98302604  0.81155849  0.14210059
   0.81910716  0.78402592  0.10676023
   0.56787690  0.96023177  0.08504045
   0.23728829  0.94469475  0.02672869
   0.14813370  0.77154730  0.06830641
   0.40800277  0.93522150  0.03656190
   0.37776523  0.65894970  0.20704392
   0.23509614  0.60896894  0.12884357
   0.46043225  0.83358342  0.16276471
   0.31126330  0.79326660  0.10899419
   0.06981282  0.95709689  0.06505936
   0.58334889  0.78489228  0.24630047
   0.65991922  0.60473393  0.29880637
   0.48313963  0.60978371  0.30011967
slab_Cel1-OPT                           
           1
    13.782935    0.000000    0.000000
     0.000000   11.261005    0.000000
     0.000000    0.000000   15.000000
   C    N    Au   Cu   Pd
    24    32     1     1     1
Direct configuration=     4
   0.07064888  0.38822053  0.22220337
   0.98157573  0.21855280  0.16791418
   0.22881579  0.39680197  0.18889513
   0.82473074  0.57596510  0.18455236
   0.14974016  0.24678640  0.12286038
   0.90762553  0.38452836  0.21820067
   0.56906530  0.39251371  0.23135699
   0.47789696  0.22396453  0.18021588
   0.73022105  0.39828242  0.19921405
   0.30977919  0.58102295  0.17926741
   0.64655343  0.25068543  0.13372211
   0.40227741  0.39286074  0.22088929
   0.81796755  0.88980531  0.05666295
   0.73435584  0.72548536  0.12322510
   0.97927530  0.89624898  0.07998267
   0.06867071  0.07740827  0.09413686
   0.90513628  0.74270877  0.14709180
   0.65521207  0.89433823  0.07633361
   0.31859038  0.89465193  0.05380969
   0.22737427  0.72176149  0.10090038
   0.47459071  0.90532509  0.09361131
   0.56582371  0.08140468  0.11006693
   0.38428358  0.76083156  0.16222602
   0.15499820  0.88960158  0.05268570
   0.98799665  0.43880879  0.24705028
   0.89991239  0.26969970  0.19552774
   0.15767328  0.43320644  0.24234356
   0.14768537  0.14342268  0.08018959
   0.98655161  0.10803723  0.13649006
   0.22912043  0.31505454  0.12512400
   0.06734360  0.28601062  0.16898122
   0.82278433  0.45523253  0.21052477
   0.48456293  0.44453103  0.25040580
   0.39644489  0.27594031  0.20652867
   0.65803079  0.43488553  0.25453396
   0.64467883  0.14629826  0.09376785
   0.48299765  0.11301528  0.15075472
   0.72578930  0.31875432  0.13436671
   0.56459847  0.29086830  0.17985404
   0.31860175  0.46059385  0.20288322
   0.73346788  0.94290950  0.03954745
   0.65090850  0.78280512  0.10783052
   0.90400855  0.93460550  0.03201453
   0.90691503  0.63756901  0.18735235
   0.73681341  0.61657953  0.15895526
   0.98315095  0.81182817  0.14188680
   0.81963201  0.78435179  0.10692273
   0.56809753  0.96069841  0.08488597
   0.23683148  0.94483012  0.02676798
   0.14809622  0.77164262  0.06821599
   0.40767812  0.93560922  0.03576724
   0.37799771  0.65836122  0.20720339
   0.23449939  0.60903101  0.12862095
   0.46044695  0.83372994  0.16359561
   0.31014770  0.79334886  0.10829093
   0.06981434  0.95720830  0.06500095
   0.58502503  0.78724994  0.24918113
   0.66117530  0.60373406  0.29915434
   0.48247372  0.60888148  0.30263246
slab_Cel1-OPT                           
           1
    13.781810    0.000000    0.000000
     0.000000   11.247946    0.000000
     0.000000    0.000000   15.000000
   C    N    Au   Cu   Pd
    24    32     1     1     1
Direct configuration=     5
   0.07074112  0.38826312  0.22218983
   0.98157844  0.21849482  0.16789730
   0.22885379  0.39677142  0.18882584
   0.82460057  0.57603401  0.18461763
   0.14971843  0.24664023  0.12280326
   0.90761461  0.38453872  0.21821452
   0.56933916  0.39209275  0.23111680
   0.47800665  0.22353548  0.18008117
   0.73031951  0.39802973  0.19900983
   0.30940973  0.58101338  0.17905312
   0.64642587  0.25044313  0.13358759
   0.40200092  0.39234538  0.22074916
   0.81776834  0.88982750  0.05672966
   0.73447924  0.72552045  0.12284250
   0.97923363  0.89610782  0.08006080
   0.06869402  0.07742442  0.09408267
   0.90495834  0.74235854  0.14720345
   0.65529093  0.89423561  0.07618996
   0.31893748  0.89448363  0.05394821
   0.22747685  0.72183303  0.10093704
   0.47404977  0.90562001  0.09308928
   0.56589346  0.08134987  0.10993510
   0.38374744  0.76139344  0.16156623
   0.15509861  0.88952508  0.05266462
   0.98800264  0.43880354  0.24702399
   0.89998317  0.26971430  0.19553542
   0.15762132  0.43316696  0.24231454
   0.14764050  0.14352393  0.08023219
   0.98657261  0.10816764  0.13652246
   0.22910175  0.31505418  0.12514416
   0.06734091  0.28606458  0.16902551
   0.82278746  0.45518233  0.21064998
   0.48462529  0.44440035  0.25034307
   0.39629994  0.27578100  0.20663016
   0.65786500  0.43481432  0.25470791
   0.64462526  0.14641349  0.09381226
   0.48290922  0.11330547  0.15088122
   0.72576308  0.31906435  0.13449725
   0.56468750  0.29098690  0.17987047
   0.31849388  0.46049065  0.20277842
   0.73396586  0.94329405  0.03942768
   0.65096980  0.78242059  0.10692876
   0.90409245  0.93459430  0.03203916
   0.90698595  0.63772330  0.18722888
   0.73694350  0.61640922  0.15887123
   0.98323584  0.81201173  0.14174153
   0.81998869  0.78457359  0.10703315
   0.56824747  0.96101603  0.08478101
   0.23652105  0.94492226  0.02679468
   0.14807075  0.77170750  0.06815456
   0.40745750  0.93587313  0.03522728
   0.37815569  0.65796068  0.20731174
   0.23409386  0.60907326  0.12846968
   0.46045694  0.83382967  0.16416020
   0.30938957  0.79340485  0.10781307
   0.06981538  0.95728414  0.06496127
   0.58616408  0.78885468  0.25113850
   0.66202889  0.60305351  0.29939079
   0.48202120  0.60826738  0.30433987
slab_Cel1-OPT                           
           1
    13.766083    0.000000    0.000000
     0.000000   11.229162    0.000000
     0.000000    0.000000   15.000000
   C    N    Au   Cu   Pd
    24    32     1     1     1
Direct configuration=     6
   0.07072002  0.38831025  0.22216308
   0.98164240  0.21864303  0.16793495
   0.22876405  0.39664251  0.18880183
   0.82454848  0.57599330  0.18475307
   0.14962290  0.24672658  0.12285744
   0.90772235  0.38455139  0.21827911
   0.56929552  0.39195269  0.23098365
   0.47780735  0.22368186  0.18022007
   0.73038393  0.39798044  0.19915372
   0.30929229  0.58109489  0.17888049
   0.64648919  0.25069603  0.13350720
   0.40202203  0.39195879  0.22061719
   0.81839800  0.89013754  0.05677937
   0.73454419  0.72535319  0.12216487
   0.97913438  0.89603474  0.07998924
   0.06859086  0.07723635  0.09401291
   0.90526812  0.74270890  0.14720055
   0.65569318  0.89413282  0.07557316
   0.31786290  0.89485736  0.05345313
   0.22666577  0.72184829  0.10058789
   0.47369468  0.90551981  0.09314044
   0.56583726  0.08110298  0.10977834
   0.38348252  0.76121207  0.16143837
   0.15499570  0.88957263  0.05263495
   0.98799234  0.43891861  0.24701841
   0.90003031  0.26963749  0.19553801
   0.15771803  0.43321060  0.24227971
   0.14764108  0.14349870  0.08014708
   0.98664568  0.10808395  0.13646140
   0.22907383  0.31497274  0.12509233
   0.06741039  0.28605708  0.16901466
   0.82273865  0.45522572  0.21087874
   0.48478892  0.44447304  0.25018843
   0.39614583  0.27479641  0.20663934
   0.65786410  0.43447208  0.25485716
   0.64462965  0.14636212  0.09369125
   0.48301253  0.11297695  0.15072528
   0.72554230  0.31903315  0.13435654
   0.56489175  0.29068754  0.17961113
   0.31809478  0.46024084  0.20254510
   0.73418912  0.94413482  0.03936964
   0.65058515  0.78136799  0.10563043
   0.90407819  0.93456359  0.03200229
   0.90701279  0.63743705  0.18720800
   0.73699359  0.61644132  0.15851782
   0.98320712  0.81176697  0.14180167
   0.82010727  0.78475857  0.10727930
   0.56817328  0.96132304  0.08447340
   0.23684255  0.94503768  0.02692368
   0.14804182  0.77153060  0.06808954
   0.40708780  0.93643966  0.03405033
   0.37861294  0.65808416  0.20720932
   0.23327652  0.60899993  0.12816930
   0.46096614  0.83419024  0.16479849
   0.30899313  0.79368287  0.10710824
   0.06982331  0.95749359  0.06487951
   0.58756594  0.79053631  0.25498877
   0.66291716  0.60225313  0.29975942
   0.48198881  0.60845244  0.30696889
slab_Cel1-OPT                           
           1
    13.751293    0.000000    0.000000
     0.000000   11.211496    0.000000
     0.000000    0.000000   15.000000
   C    N    Au   Cu   Pd
    24    32     1     1     1
Direct configuration=     7
   0.07070015  0.38835464  0.22213792
   0.98170263  0.21878264  0.16797036
   0.22867956  0.39652107  0.18877926
   0.82449943  0.57595496  0.18488045
   0.14953296  0.24680793  0.12290839
   0.90782380  0.38456332  0.21833985
   0.56925444  0.39182075  0.23085843
   0.47761970  0.22381974  0.18035069
   0.73044457  0.39793400  0.19928905
   0.30918171  0.58117167  0.17871814
   0.64654880  0.25093428  0.13343159
   0.40204190  0.39159461  0.22049308
   0.81899084  0.89042961  0.05682611
   0.73460535  0.72519562  0.12152758
   0.97904093  0.89596590  0.07992193
   0.06849373  0.07705919  0.09394731
   0.90555980  0.74303895  0.14719782
   0.65607192  0.89403599  0.07499308
   0.31685115  0.89520942  0.05298752
   0.22590212  0.72186267  0.10025953
   0.47336035  0.90542541  0.09318855
   0.56578435  0.08087040  0.10963092
   0.38323309  0.76104122  0.16131811
   0.15489881  0.88961742  0.05260705
   0.98798263  0.43902701  0.24701315
   0.90007469  0.26956513  0.19554044
   0.15780908  0.43325171  0.24224696
   0.14764163  0.14347492  0.08006704
   0.98671449  0.10800511  0.13640397
   0.22904755  0.31489602  0.12504358
   0.06747580  0.28605002  0.16900445
   0.82269269  0.45526659  0.21109389
   0.48494299  0.44454153  0.25004301
   0.39600073  0.27386889  0.20664796
   0.65786324  0.43414968  0.25499753
   0.64463378  0.14631373  0.09357744
   0.48310979  0.11266748  0.15057863
   0.72533442  0.31900377  0.13422420
   0.56508407  0.29040554  0.17936723
   0.31771900  0.46000552  0.20232568
   0.73439933  0.94492685  0.03931506
   0.65022299  0.78037640  0.10440940
   0.90406477  0.93453466  0.03196761
   0.90703807  0.63716739  0.18718836
   0.73704075  0.61647156  0.15818545
   0.98318007  0.81153640  0.14185823
   0.82021893  0.78493282  0.10751080
   0.56810343  0.96161226  0.08418411
   0.23714525  0.94514641  0.02704500
   0.14801459  0.77136396  0.06802840
   0.40673971  0.93697335  0.03294346
   0.37904347  0.65820049  0.20711301
   0.23250696  0.60893086  0.12788680
   0.46144556  0.83452992  0.16539879
   0.30861987  0.79394478  0.10644538
   0.06983078  0.95769090  0.06480263
   0.58888585  0.79212045  0.25860981
   0.66375351  0.60149915  0.30010611
   0.48195831  0.60862676  0.30944138
slab_Cel1-OPT                           
           1
    13.740907    0.000000    0.000000
     0.000000   11.197630    0.000000
     0.000000    0.000000   15.000000
   C    N    Au   Cu   Pd
    24    32     1     1     1
Direct configuration=     8
   0.07071480  0.38845335  0.22215640
   0.98184475  0.21875009  0.16794065
   0.22854236  0.39632962  0.18872467
   0.82452363  0.57604759  0.18495202
   0.14947392  0.24681710  0.12289083
   0.90779974  0.38462494  0.21843779
   0.56903349  0.39197779  0.23085122
   0.47771903  0.22338069  0.18028234
   0.73033777  0.39787564  0.19959209
   0.30911758  0.58138360  0.17851595
   0.64647932  0.25081907  0.13322171
   0.40216818  0.39165310  0.22046598
   0.81910434  0.89081157  0.05690170
   0.73429696  0.72485972  0.12083160
   0.97924229  0.89599622  0.07984221
   0.06849343  0.07712423  0.09387855
   0.90560213  0.74298954  0.14733462
   0.65605785  0.89378773  0.07427860
   0.31692126  0.89551910  0.05237597
   0.22551492  0.72146717  0.09997567
   0.47294897  0.90534657  0.09331585
   0.56575116  0.08086893  0.10950683
   0.38377895  0.76108263  0.16160093
   0.15464444  0.88983238  0.05246871
   0.98802790  0.43929832  0.24709981
   0.89996748  0.26946286  0.19558541
   0.15780406  0.43337885  0.24232928
   0.14766261  0.14333863  0.07988258
   0.98661864  0.10778983  0.13637236
   0.22907414  0.31478675  0.12490437
   0.06748110  0.28610259  0.16901564
   0.82265418  0.45520534  0.21138767
   0.48481386  0.44489101  0.24982343
   0.39559746  0.27314047  0.20681561
   0.65814384  0.43370949  0.25510055
   0.64481539  0.14626386  0.09330389
   0.48314082  0.11218157  0.15040261
   0.72551636  0.31922698  0.13400016
   0.56494464  0.29026081  0.17920673
   0.31774064  0.45987953  0.20209148
   0.73472238  0.94560450  0.03941208
   0.64973700  0.77950144  0.10304999
   0.90454339  0.93476309  0.03173368
   0.90718389  0.63687498  0.18721362
   0.73694122  0.61644924  0.15773207
   0.98356481  0.81161299  0.14192928
   0.82013623  0.78533699  0.10764420
   0.56797704  0.96104639  0.08366059
   0.23617413  0.94597726  0.02678755
   0.14698178  0.77178914  0.06753267
   0.40669262  0.93688094  0.03238824
   0.37921972  0.65828246  0.20669915
   0.23203743  0.60855246  0.12790942
   0.46155861  0.83486192  0.16546799
   0.30906180  0.79372658  0.10621117
   0.06976278  0.95746929  0.06464956
   0.59012873  0.79336179  0.26297103
   0.66428330  0.60091129  0.30050891
   0.48233960  0.60937139  0.31201199
slab_Cel1-OPT                           
           1
    13.721376    0.000000    0.000000
     0.000000   11.171556    0.000000
     0.000000    0.000000   15.000000
   C    N    Au   Cu   Pd
    24    32     1     1     1
Direct configuration=     9
   0.07074238  0.38863920  0.22219115
   0.98211221  0.21868879  0.16788477
   0.22828416  0.39596918  0.18862200
   0.82456917  0.57622198  0.18508659
   0.14936283  0.24683438  0.12285781
   0.90775448  0.38474097  0.21862195
   0.56861771  0.39227345  0.23083768
   0.47790596  0.22255407  0.18015383
   0.73013680  0.39776574  0.20016193
   0.30899690  0.58178262  0.17813574
   0.64634858  0.25060216  0.13282704
   0.40240582  0.39176324  0.22041504
   0.81931793  0.89153069  0.05704382
   0.73371663  0.72422730  0.11952288
   0.97962120  0.89605330  0.07969230
   0.06849287  0.07724667  0.09374926
   0.90568178  0.74289653  0.14759188
   0.65603138  0.89332032  0.07293510
   0.31705319  0.89610214  0.05122602
   0.22478629  0.72072255  0.09944190
   0.47217484  0.90519813  0.09355523
   0.56568870  0.08086617  0.10927349
   0.38480614  0.76116060  0.16213274
   0.15416576  0.89023709  0.05220858
   0.98811308  0.43980911  0.24726277
   0.89976572  0.26927032  0.19566997
   0.15779462  0.43361823  0.24248408
   0.14770210  0.14308201  0.07953572
   0.98643827  0.10738453  0.13631292
   0.22912418  0.31458102  0.12464260
   0.06749108  0.28620156  0.16903669
   0.82258172  0.45509003  0.21194009
   0.48457086  0.44554900  0.24941053
   0.39483859  0.27176906  0.20713084
   0.65867188  0.43288075  0.25529426
   0.64515714  0.14616997  0.09278950
   0.48319923  0.11126673  0.15007163
   0.72585873  0.31964721  0.13357888
   0.56468227  0.28998834  0.17890493
   0.31778137  0.45964234  0.20165108
   0.73533030  0.94688033  0.03959453
   0.64882245  0.77785413  0.10049377
   0.90544406  0.93519317  0.03129381
   0.90745830  0.63632445  0.18726112
   0.73675392  0.61640722  0.15687953
   0.98428882  0.81175719  0.14206289
   0.81998060  0.78609793  0.10789505
   0.56773918  0.95998102  0.08267619
   0.23434667  0.94754152  0.02630345
   0.14503822  0.77258963  0.06660051
   0.40660400  0.93670698  0.03134420
   0.37955139  0.65843680  0.20592094
   0.23115387  0.60784003  0.12795194
   0.46177135  0.83548699  0.16559814
   0.30989342  0.79331578  0.10577076
   0.06963482  0.95705206  0.06436172
   0.59246760  0.79569888  0.27117182
   0.66528027  0.59980451  0.30126633
   0.48305711  0.61077331  0.31684575
slab_Cel1-OPT                           
           1
    13.702130    0.000000    0.000000
     0.000000   11.155131    0.000000
     0.000000    0.000000   15.000000
   C    N    Au   Cu   Pd
    24    32     1     1     1
Direct configuration=    10
   0.07063734  0.38895301  0.22237272
   0.98180603  0.21841297  0.16791655
   0.22847248  0.39605161  0.18860472
   0.82415741  0.57628084  0.18504924
   0.14942695  0.24646686  0.12252405
   0.90759383  0.38477540  0.21883991
   0.56861104  0.39251819  0.23080769
   0.47736024  0.22187694  0.18016075
   0.73040646  0.39698424  0.19988801
   0.30917943  0.58163143  0.17803211
   0.64668914  0.25077981  0.13248233
   0.40194228  0.39150066  0.22028958
   0.81934174  0.89225128  0.05709448
   0.73283297  0.72417836  0.11855678
   0.98013155  0.89597812  0.07967745
   0.06844140  0.07696143  0.09349548
   0.90569165  0.74307630  0.14773219
   0.65516671  0.89241178  0.07213069
   0.31664380  0.89622361  0.05042492
   0.22427896  0.72112823  0.09871659
   0.47215538  0.90527448  0.09331784
   0.56611723  0.07994953  0.10856455
   0.38543317  0.76198416  0.16200016
   0.15336829  0.89066622  0.05175837
   0.98812164  0.44012996  0.24744521
   0.89978281  0.26911132  0.19577376
   0.15788336  0.43369731  0.24262365
   0.14771311  0.14325955  0.07932343
   0.98626148  0.10723281  0.13635562
   0.22912680  0.31448505  0.12441081
   0.06747760  0.28623539  0.16902123
   0.82249278  0.45520118  0.21242190
   0.48446163  0.44681536  0.24936174
   0.39496685  0.27168881  0.20754437
   0.65828679  0.43257663  0.25583928
   0.64525871  0.14584409  0.09227885
   0.48310149  0.11052040  0.14991639
   0.72603993  0.32016338  0.13346922
   0.56422640  0.29031194  0.17894406
   0.31834669  0.45998813  0.20132939
   0.73549894  0.94727857  0.03992996
   0.64851518  0.77733243  0.09846004
   0.90592740  0.93545846  0.03086719
   0.90781782  0.63634595  0.18726854
   0.73675599  0.61561794  0.15640663
   0.98454131  0.81176644  0.14229974
   0.81981002  0.78654010  0.10803038
   0.56767578  0.95940990  0.08189638
   0.23429149  0.94840560  0.02588277
   0.14468924  0.77181405  0.06618685
   0.40702074  0.93598303  0.03152720
   0.37972057  0.65741849  0.20568086
   0.23079479  0.60764337  0.12822936
   0.46184772  0.83589681  0.16536749
   0.31018080  0.79285328  0.10539885
   0.06923000  0.95751053  0.06418268
   0.59409568  0.79710939  0.27737587
   0.66550843  0.59924890  0.30186421
   0.48380543  0.61187938  0.31982654
slab_Cel1-OPT                           
           1
    13.695186    0.000000    0.000000
     0.000000   11.149204    0.000000
     0.000000    0.000000   15.000000
   C    N    Au   Cu   Pd
    24    32     1     1     1
Direct configuration=    11
   0.07059939  0.38906641  0.22243824
   0.98169539  0.21831330  0.16792801
   0.22854052  0.39608140  0.18859849
   0.82400863  0.57630211  0.18503577
   0.14945012  0.24633405  0.12240363
   0.90753578  0.38478784  0.21891855
   0.56860864  0.39260663  0.23079687
   0.47716305  0.22163225  0.18016325
   0.73050390  0.39670183  0.19978917
   0.30924539  0.58157679  0.17799471
   0.64681220  0.25084401  0.13235795
   0.40177478  0.39140577  0.22024432
   0.81935034  0.89251167  0.05711276
   0.73251367  0.72416067  0.11820819
   0.98031596  0.89595095  0.07967209
   0.06842280  0.07685836  0.09340390
   0.90569522  0.74314126  0.14778282
   0.65485427  0.89208347  0.07184044
   0.31649587  0.89626750  0.05013585
   0.22409564  0.72127483  0.09845488
   0.47214835  0.90530207  0.09323219
   0.56627207  0.07961829  0.10830875
   0.38565973  0.76228176  0.16195232
   0.15308013  0.89082130  0.05159592
   0.98812473  0.44024591  0.24751103
   0.89978899  0.26905386  0.19581121
   0.15791542  0.43372588  0.24267402
   0.14771708  0.14332370  0.07924683
   0.98619760  0.10717798  0.13637103
   0.22912775  0.31445036  0.12432718
   0.06747273  0.28624762  0.16901565
   0.82246064  0.45524135  0.21259576
   0.48442217  0.44727297  0.24934413
   0.39501319  0.27165981  0.20769358
   0.65814764  0.43246673  0.25603593
   0.64529541  0.14572633  0.09209460
   0.48306617  0.11025070  0.14986038
   0.72610540  0.32034991  0.13342965
   0.56406167  0.29042887  0.17895817
   0.31855096  0.46011309  0.20121331
   0.73555987  0.94742248  0.04005099
   0.64840416  0.77714390  0.09772621
   0.90610205  0.93555433  0.03071325
   0.90794773  0.63635372  0.18727122
   0.73675674  0.61533272  0.15623599
   0.98463254  0.81176978  0.14238520
   0.81974838  0.78669989  0.10807921
   0.56765287  0.95920353  0.08161501
   0.23427156  0.94871784  0.02573098
   0.14456314  0.77153378  0.06603759
   0.40717133  0.93572142  0.03159323
   0.37978171  0.65705051  0.20559422
   0.23066504  0.60757231  0.12832946
   0.46187532  0.83604491  0.16528427
   0.31028465  0.79268615  0.10526465
   0.06908372  0.95767620  0.06411807
   0.59468397  0.79761910  0.27961447
   0.66559088  0.59904813  0.30207995
   0.48407583  0.61227907  0.32090210
slab_Cel1-OPT                           
           1
    13.677938    0.000000    0.000000
     0.000000   11.136597    0.000000
     0.000000    0.000000   15.000000
   C    N    Au   Cu   Pd
    24    32     1     1     1
Direct configuration=    12
   0.07065475  0.38912138  0.22255041
   0.98147242  0.21818887  0.16801930
   0.22888100  0.39635321  0.18849179
   0.82400497  0.57645705  0.18498477
   0.14948065  0.24653028  0.12227033
   0.90750698  0.38483606  0.21923022
   0.56814850  0.39300767  0.23087571
   0.47672533  0.22112085  0.18018360
   0.73062537  0.39665642  0.20002459
   0.30951654  0.58161368  0.17784842
   0.64672036  0.25079005  0.13205494
   0.40184633  0.39176364  0.22033932
   0.81954311  0.89300807  0.05716746
   0.73218994  0.72380308  0.11779125
   0.98004559  0.89567812  0.07973672
   0.06813587  0.07720763  0.09330372
   0.90550982  0.74343360  0.14783934
   0.65431052  0.89178828  0.07103104
   0.31633431  0.89563601  0.05002125
   0.22471636  0.72092261  0.09836943
   0.47269584  0.90526200  0.09288151
   0.56643362  0.07880304  0.10763969
   0.38531787  0.76188297  0.16167706
   0.15283234  0.89073592  0.05086658
   0.98781892  0.44042423  0.24777298
   0.89957526  0.26911655  0.19607491
   0.15831452  0.43370250  0.24278725
   0.14755934  0.14300862  0.07883395
   0.98613774  0.10682394  0.13632943
   0.22928622  0.31472901  0.12424354
   0.06735028  0.28613325  0.16895288
   0.82227394  0.45524315  0.21300479
   0.48426560  0.44838896  0.24940547
   0.39518577  0.27217807  0.20821981
   0.65803230  0.43223792  0.25636687
   0.64547215  0.14585852  0.09166521
   0.48322280  0.10943562  0.14961508
   0.72615529  0.32027329  0.13302897
   0.56402590  0.29064005  0.17883363
   0.31872136  0.45990609  0.20096611
   0.73479097  0.94721548  0.04046867
   0.64807381  0.77648348  0.09598506
   0.90623860  0.93546705  0.03046335
   0.90787350  0.63655498  0.18724015
   0.73629179  0.61494508  0.15552854
   0.98467261  0.81201541  0.14257653
   0.81940367  0.78683562  0.10817345
   0.56773427  0.95894381  0.08088283
   0.23473537  0.94875846  0.02536262
   0.14473271  0.77121998  0.06545945
   0.40729523  0.93502474  0.03189211
   0.38046965  0.65687849  0.20550807
   0.23050993  0.60825611  0.12847971
   0.46230315  0.83628188  0.16510819
   0.30977660  0.79280013  0.10447945
   0.06902010  0.95816330  0.06385914
   0.59613714  0.79880913  0.28508100
   0.66534659  0.59870617  0.30259742
   0.48470942  0.61302981  0.32273260
slab_Cel1-OPT                           
           1