  59  59   0   0
  0.3948347E+02  0.1375970E-08  0.1128670E-08  0.1500000E-08  0.1000000E-15
  1.000000000000000E-004
  CAR 
 slab_Cel1-OPT                           
      4.35698899    -27.66646064  301     -1.95190361      1.00000000
    -27.666  0.0000E+00  0.0000E+00
    -27.560  0.0000E+00  0.0000E+00
    -27.453  0.0000E+00  0.0000E+00
    -27.346  0.0000E+00  0.0000E+00
    -27.239  0.0000E+00  0.0000E+00
    -27.133  0.0000E+00  0.0000E+00
    -27.026  0.0000E+00  0.0000E+00
    -26.919  0.0000E+00  0.0000E+00
    -26.813  0.0000E+00  0.0000E+00
    -26.706  0.6736E-14  0.7191E-15
    -26.599  0.1132E-09  0.1209E-10
    -26.492  0.2184E-06  0.2333E-07
    -26.386  0.5200E-04  0.5574E-05
    -26.279  0.1737E-02  0.1910E-03
    -26.172  0.1052E-01  0.1314E-02
    -26.065  0.1987E-01  0.3435E-02
    -25.959  0.1827E-01  0.5385E-02
    -25.852  0.9434E-02  0.6393E-02
    -25.745  0.1045E-01  0.7508E-02
    -25.638  0.4326E-02  0.7970E-02
    -25.532  0.2804E-03  0.8000E-02
    -25.425  0.2412E-05  0.8000E-02
    -25.318  0.1666E-06  0.8000E-02
    -25.211  0.4611E-04  0.8005E-02
    -25.105  0.1743E-02  0.8191E-02
    -24.998  0.1078E-01  0.9341E-02
    -24.891  0.1641E-01  0.1109E-01
    -24.784  0.1274E-01  0.1245E-01
    -24.678  0.9556E-02  0.1347E-01
    -24.571  0.8786E-02  0.1441E-01
    -24.464  0.7944E-02  0.1526E-01
    -24.357  0.2155E-02  0.1549E-01
    -24.251  0.1127E-03  0.1550E-01
    -24.144  0.1483E-03  0.1552E-01
    -24.037  0.1975E-02  0.1573E-01
    -23.930  0.1017E-01  0.1681E-01
    -23.824  0.2563E-01  0.1955E-01
    -23.717  0.2593E-01  0.2232E-01
    -23.610  0.1651E-01  0.2408E-01
    -23.503  0.3750E-02  0.2448E-01
    -23.397  0.1945E-03  0.2450E-01
    -23.290  0.4110E-03  0.2454E-01
    -23.183  0.4420E-02  0.2502E-01
    -23.076  0.9478E-02  0.2603E-01
    -22.970  0.8221E-02  0.2691E-01
    -22.863  0.9267E-02  0.2789E-01
    -22.756  0.1290E-01  0.2927E-01
    -22.649  0.1347E-01  0.3071E-01
    -22.543  0.9389E-02  0.3171E-01
    -22.436  0.2567E-02  0.3199E-01
    -22.329  0.1344E-03  0.3200E-01
    -22.222  0.1566E-05  0.3200E-01
    -22.116  0.1038E-03  0.3201E-01
    -22.009  0.2888E-02  0.3232E-01
    -21.902  0.1882E-01  0.3433E-01
    -21.795  0.3940E-01  0.3853E-01
    -21.689  0.3499E-01  0.4227E-01
    -21.582  0.2657E-01  0.4510E-01
    -21.475  0.1942E-01  0.4718E-01
    -21.369  0.6910E-02  0.4792E-01
    -21.262  0.7930E-03  0.4800E-01
    -21.155  0.6978E-03  0.4807E-01
    -21.048  0.6344E-02  0.4875E-01
    -20.942  0.1824E-01  0.5070E-01
    -20.835  0.2196E-01  0.5304E-01
    -20.728  0.1805E-01  0.5497E-01
    -20.621  0.8292E-02  0.5585E-01
    -20.515  0.3795E-02  0.5626E-01
    -20.408  0.1621E-01  0.5799E-01
    -20.301  0.2555E-01  0.6072E-01
    -20.194  0.1202E-01  0.6200E-01
    -20.088  0.8737E-02  0.6293E-01
    -19.981  0.8519E-02  0.6384E-01
    -19.874  0.1444E-02  0.6400E-01
    -19.767  0.3415E-04  0.6400E-01
    -19.661  0.1014E-06  0.6400E-01
    -19.554  0.3535E-10  0.6400E-01
    -19.447  0.1391E-14  0.6400E-01
    -19.340  0.0000E+00  0.6400E-01
    -19.234  0.0000E+00  0.6400E-01
    -19.127  0.0000E+00  0.6400E-01
    -19.020  0.0000E+00  0.6400E-01
    -18.913  0.0000E+00  0.6400E-01
    -18.807  0.0000E+00  0.6400E-01
    -18.700  0.0000E+00  0.6400E-01
    -18.593  0.0000E+00  0.6400E-01
    -18.486  0.0000E+00  0.6400E-01
    -18.380  0.0000E+00  0.6400E-01
    -18.273  0.0000E+00  0.6400E-01
    -18.166  0.0000E+00  0.6400E-01
    -18.059  0.0000E+00  0.6400E-01
    -17.953  0.4940E-17  0.6400E-01
    -17.846  0.3243E-12  0.6400E-01
    -17.739  0.2364E-08  0.6400E-01
    -17.632  0.1997E-05  0.6400E-01
    -17.526  0.2148E-03  0.6402E-01
    -17.419  0.3572E-02  0.6440E-01
    -17.312  0.1317E-01  0.6581E-01
    -17.205  0.1735E-01  0.6766E-01
    -17.099  0.1578E-01  0.6935E-01
    -16.992  0.1935E-01  0.7141E-01
    -16.885  0.2113E-01  0.7367E-01
    -16.778  0.1823E-01  0.7561E-01
    -16.672  0.1305E-01  0.7701E-01
    -16.565  0.1346E-01  0.7844E-01
    -16.458  0.8100E-02  0.7931E-01
    -16.352  0.1715E-02  0.7949E-01
    -16.245  0.6108E-03  0.7956E-01
    -16.138  0.2374E-02  0.7981E-01
    -16.031  0.1610E-02  0.7998E-01
    -15.925  0.1589E-03  0.8000E-01
    -15.818  0.4494E-05  0.8000E-01
    -15.711  0.2628E-03  0.8003E-01
    -15.604  0.4435E-02  0.8050E-01
    -15.498  0.1804E-01  0.8243E-01
    -15.391  0.2709E-01  0.8532E-01
    -15.284  0.1713E-01  0.8715E-01
    -15.177  0.5787E-02  0.8777E-01
    -15.071  0.2054E-02  0.8798E-01
    -14.964  0.1345E-02  0.8813E-01
    -14.857  0.2900E-02  0.8844E-01
    -14.750  0.2981E-02  0.8876E-01
    -14.644  0.2016E-02  0.8897E-01
    -14.537  0.7236E-03  0.8905E-01
    -14.430  0.5226E-02  0.8961E-01
    -14.323  0.1296E-01  0.9099E-01
    -14.217  0.1184E-01  0.9225E-01
    -14.110  0.1452E-01  0.9380E-01
    -14.003  0.1730E-01  0.9565E-01
    -13.896  0.1797E-01  0.9757E-01
    -13.790  0.2349E-01  0.1001E+00
    -13.683  0.2621E-01  0.1029E+00
    -13.576  0.2515E-01  0.1056E+00
    -13.469  0.2290E-01  0.1080E+00
    -13.363  0.2463E-01  0.1106E+00
    -13.256  0.1968E-01  0.1127E+00
    -13.149  0.1429E-01  0.1143E+00
    -13.042  0.7327E-02  0.1150E+00
    -12.936  0.5527E-02  0.1156E+00
    -12.829  0.8675E-02  0.1166E+00
    -12.722  0.1094E-01  0.1177E+00
    -12.615  0.6255E-02  0.1184E+00
    -12.509  0.2359E-02  0.1186E+00
    -12.402  0.6734E-02  0.1194E+00
    -12.295  0.8153E-02  0.1202E+00
    -12.188  0.7554E-02  0.1210E+00
    -12.082  0.8332E-02  0.1219E+00
    -11.975  0.1483E-01  0.1235E+00
    -11.868  0.1830E-01  0.1255E+00
    -11.761  0.1847E-01  0.1274E+00
    -11.655  0.1802E-01  0.1294E+00
    -11.548  0.1704E-01  0.1312E+00
    -11.441  0.1475E-01  0.1328E+00
    -11.335  0.1890E-01  0.1348E+00
    -11.228  0.1753E-01  0.1366E+00
    -11.121  0.1522E-01  0.1383E+00
    -11.014  0.1573E-01  0.1399E+00
    -10.908  0.9096E-02  0.1409E+00
    -10.801  0.6949E-02  0.1417E+00
    -10.694  0.1504E-01  0.1433E+00
    -10.587  0.1692E-01  0.1451E+00
    -10.481  0.1428E-01  0.1466E+00
    -10.374  0.1247E-01  0.1479E+00
    -10.267  0.8452E-02  0.1488E+00
    -10.160  0.1393E-01  0.1503E+00
    -10.054  0.1295E-01  0.1517E+00
     -9.947  0.2832E-02  0.1520E+00
     -9.840  0.1622E-02  0.1522E+00
     -9.733  0.6046E-02  0.1528E+00
     -9.627  0.1216E-01  0.1541E+00
     -9.520  0.1731E-01  0.1560E+00
     -9.413  0.1921E-01  0.1580E+00
     -9.306  0.1753E-01  0.1599E+00
     -9.200  0.1878E-01  0.1619E+00
     -9.093  0.2150E-01  0.1642E+00
     -8.986  0.2230E-01  0.1666E+00
     -8.879  0.2157E-01  0.1689E+00
     -8.773  0.2207E-01  0.1712E+00
     -8.666  0.1982E-01  0.1733E+00
     -8.559  0.5900E-02  0.1740E+00
     -8.452  0.5888E-03  0.1740E+00
     -8.346  0.2075E-02  0.1743E+00
     -8.239  0.4350E-02  0.1747E+00
     -8.132  0.1034E-01  0.1758E+00
     -8.025  0.1812E-01  0.1778E+00
     -7.919  0.2392E-01  0.1803E+00
     -7.812  0.2516E-01  0.1830E+00
     -7.705  0.1732E-01  0.1848E+00
     -7.598  0.1075E-01  0.1860E+00
     -7.492  0.1080E-01  0.1871E+00
     -7.385  0.1451E-01  0.1887E+00
     -7.278  0.2567E-01  0.1914E+00
     -7.171  0.2928E-01  0.1946E+00
     -7.065  0.2990E-01  0.1977E+00
     -6.958  0.3427E-01  0.2014E+00
     -6.851  0.2948E-01  0.2046E+00
     -6.744  0.2326E-01  0.2070E+00
     -6.638  0.1363E-01  0.2085E+00
     -6.531  0.1500E-01  0.2101E+00
     -6.424  0.1903E-01  0.2121E+00
     -6.317  0.1339E-01  0.2136E+00
     -6.211  0.7737E-02  0.2144E+00
     -6.104  0.1125E-01  0.2156E+00
     -5.997  0.1317E-01  0.2170E+00
     -5.891  0.1755E-01  0.2189E+00
     -5.784  0.1313E-01  0.2203E+00
     -5.677  0.1316E-01  0.2217E+00
     -5.570  0.2236E-01  0.2241E+00
     -5.464  0.3133E-01  0.2274E+00
     -5.357  0.2726E-01  0.2303E+00
     -5.250  0.2651E-01  0.2331E+00
     -5.143  0.3751E-01  0.2371E+00
     -5.037  0.2886E-01  0.2402E+00
     -4.930  0.1968E-01  0.2423E+00
     -4.823  0.2406E-01  0.2449E+00
     -4.716  0.2575E-01  0.2476E+00
     -4.610  0.2362E-01  0.2502E+00
     -4.503  0.2617E-01  0.2530E+00
     -4.396  0.2579E-01  0.2557E+00
     -4.289  0.1609E-01  0.2574E+00
     -4.183  0.1119E-01  0.2586E+00
     -4.076  0.2546E-01  0.2613E+00
     -3.969  0.2812E-01  0.2643E+00
     -3.862  0.1367E-01  0.2658E+00
     -3.756  0.2780E-02  0.2661E+00
     -3.649  0.9189E-02  0.2671E+00
     -3.542  0.2295E-01  0.2695E+00
     -3.435  0.3055E-01  0.2728E+00
     -3.329  0.2619E-01  0.2756E+00
     -3.222  0.1826E-01  0.2775E+00
     -3.115  0.1287E-01  0.2789E+00
     -3.008  0.1502E-01  0.2805E+00
     -2.902  0.1139E-01  0.2817E+00
     -2.795  0.2511E-02  0.2820E+00
     -2.688  0.8506E-03  0.2821E+00
     -2.581  0.6925E-02  0.2828E+00
     -2.475  0.9188E-02  0.2838E+00
     -2.368  0.2783E-02  0.2841E+00
     -2.261  0.7580E-02  0.2849E+00
     -2.154  0.9047E-02  0.2859E+00
     -2.048  0.6700E-02  0.2866E+00
     -1.941  0.1495E-01  0.2882E+00
     -1.834  0.1537E-01  0.2898E+00
     -1.727  0.1164E-01  0.2911E+00
     -1.621  0.1197E-01  0.2923E+00
     -1.514  0.1399E-01  0.2938E+00
     -1.407  0.9669E-02  0.2949E+00
     -1.300  0.7778E-02  0.2957E+00
     -1.194  0.1552E-01  0.2974E+00
     -1.087  0.2385E-01  0.2999E+00
     -0.980  0.1971E-01  0.3020E+00
     -0.874  0.1678E-01  0.3038E+00
     -0.767  0.1154E-01  0.3050E+00
     -0.660  0.9549E-02  0.3061E+00
     -0.553  0.1025E-01  0.3071E+00
     -0.447  0.1440E-01  0.3087E+00
     -0.340  0.1474E-01  0.3103E+00
     -0.233  0.1217E-01  0.3116E+00
     -0.126  0.3916E-02  0.3120E+00
     -0.020  0.2553E-03  0.3120E+00
      0.087  0.2475E-05  0.3120E+00
      0.194  0.3114E-05  0.3120E+00
      0.301  0.3472E-03  0.3120E+00
      0.407  0.4979E-02  0.3126E+00
      0.514  0.1115E-01  0.3138E+00
      0.621  0.8101E-02  0.3146E+00
      0.728  0.7580E-02  0.3154E+00
      0.834  0.1040E-01  0.3165E+00
      0.941  0.1231E-01  0.3179E+00
      1.048  0.1489E-01  0.3194E+00
      1.155  0.1206E-01  0.3207E+00
      1.261  0.1600E-01  0.3224E+00
      1.368  0.2204E-01  0.3248E+00
      1.475  0.1908E-01  0.3268E+00
      1.582  0.1445E-01  0.3284E+00
      1.688  0.1709E-01  0.3302E+00
      1.795  0.2294E-01  0.3326E+00
      1.902  0.2536E-01  0.3354E+00
      2.009  0.1797E-01  0.3373E+00
      2.115  0.1556E-01  0.3389E+00
      2.222  0.1593E-01  0.3406E+00
      2.329  0.1610E-01  0.3424E+00
      2.436  0.1212E-01  0.3436E+00
      2.542  0.1619E-01  0.3454E+00
      2.649  0.2154E-01  0.3477E+00
      2.756  0.1995E-01  0.3498E+00
      2.863  0.1369E-01  0.3513E+00
      2.969  0.5936E-02  0.3519E+00
      3.076  0.9443E-03  0.3520E+00
      3.183  0.3291E-04  0.3520E+00
      3.290  0.1628E-06  0.3520E+00
      3.396  0.9457E-10  0.3520E+00
      3.503  0.6037E-14  0.3520E+00
      3.610  0.0000E+00  0.3520E+00
      3.717  0.0000E+00  0.3520E+00
      3.823  0.0000E+00  0.3520E+00
      3.930  0.0000E+00  0.3520E+00
      4.037  0.0000E+00  0.3520E+00
      4.143  0.0000E+00  0.3520E+00
      4.250  0.0000E+00  0.3520E+00
      4.357  0.0000E+00  0.3520E+00
