 running on   48 total cores
 distrk:  each k-point on   48 cores,    1 groups
 distr:  one band on   12 cores,    4 groups
 vasp.6.3.2 27Jun22 (build May 04 2024 18:40:40) complex                        
  
 POSCAR found type information on POSCAR C N CuPd
 POSCAR found :  4 types and      59 ions
 Reading from existing POTCAR
 scaLAPACK will be used
 Reading from existing POTCAR
 LDA part: xc-table for Pade appr. of Perdew
 POSCAR found type information on POSCAR C N CuPd
 POSCAR found :  4 types and      59 ions
 POSCAR, INCAR and KPOINTS ok, starting setup
 FFT: planning ... GRIDC
 FFT: planning ... GRID_SOFT
 FFT: planning ... GRID
 WAVECAR not read
 entering main loop
       N       E                     dE             d eps       ncg     rms          rms(c)
DAV:   1     0.279503848708E+04    0.27950E+04   -0.10085E+05  1528   0.106E+03
DAV:   2     0.830849663207E+02   -0.27120E+04   -0.25364E+04  1952   0.304E+02
DAV:   3    -0.481709649401E+03   -0.56479E+03   -0.55504E+03  1808   0.157E+02
DAV:   4    -0.520701690595E+03   -0.38992E+02   -0.37068E+02  2184   0.611E+01
DAV:   5    -0.521905665188E+03   -0.12040E+01   -0.11335E+01  2208   0.809E+00    0.735E+01
DAV:   6    -0.638475159572E+03   -0.11657E+03   -0.79575E+02  2320   0.239E+02    0.535E+01
DAV:   7    -0.521281663515E+03    0.11719E+03   -0.25896E+02  2040   0.581E+01    0.332E+01
DAV:   8    -0.491019565750E+03    0.30262E+02   -0.85926E+01  2096   0.544E+01    0.195E+01
DAV:   9    -0.500256896514E+03   -0.92373E+01   -0.81195E+01  2344   0.131E+02    0.811E+01
DAV:  10    -0.488731075236E+03    0.11526E+02   -0.10656E+02  2192   0.547E+01    0.128E+01
DAV:  11    -0.484122307611E+03    0.46088E+01   -0.14808E+01  2192   0.504E+01    0.555E+00
DAV:  12    -0.482929880448E+03    0.11924E+01   -0.43710E+00  2288   0.191E+01    0.278E+00
DAV:  13    -0.482721677570E+03    0.20820E+00   -0.13664E+00  2296   0.102E+01    0.441E+00
DAV:  14    -0.482633639424E+03    0.88038E-01   -0.31633E-01  1928   0.151E+00    0.305E+00
DAV:  15    -0.482470811877E+03    0.16283E+00   -0.23405E+00  1984   0.105E+01    0.346E+00
DAV:  16    -0.482363736139E+03    0.10708E+00   -0.23137E-01  2064   0.387E+00    0.215E+00
DAV:  17    -0.482401900829E+03   -0.38165E-01   -0.59487E-02  2128   0.172E+00    0.310E+00
DAV:  18    -0.482390671078E+03    0.11230E-01   -0.23343E-02  2096   0.133E+00    0.249E+00
DAV:  19    -0.482329891839E+03    0.60779E-01   -0.53346E-02  2312   0.246E+00    0.133E+00
DAV:  20    -0.482304490011E+03    0.25402E-01   -0.63247E-02  2408   0.235E+00    0.907E-01
DAV:  21    -0.482302315235E+03    0.21748E-02   -0.18888E-02  2208   0.712E-01    0.730E-01
DAV:  22    -0.482305337359E+03   -0.30221E-02   -0.74004E-03  2272   0.719E-01    0.663E-01
DAV:  23    -0.482311925922E+03   -0.65886E-02   -0.71137E-03  2088   0.501E-01    0.533E-01
DAV:  24    -0.482310910348E+03    0.10156E-02   -0.41036E-03  2152   0.475E-01    0.346E-01
DAV:  25    -0.482311021925E+03   -0.11158E-03   -0.77802E-04  2112   0.154E-01    0.226E-01
DAV:  26    -0.482313127607E+03   -0.21057E-02   -0.21341E-03  2208   0.414E-01    0.297E-01
DAV:  27    -0.482313029708E+03    0.97899E-04   -0.50460E-04  1664   0.780E-02    0.144E-01
DAV:  28    -0.482314142537E+03   -0.11128E-02   -0.12823E-04  1464   0.531E-02    0.252E-01
DAV:  29    -0.482314614963E+03   -0.47243E-03   -0.38748E-04  1904   0.121E-01    0.419E-02
DAV:  30    -0.482314873077E+03   -0.25811E-03   -0.13011E-04  1880   0.473E-02    0.419E-02
DAV:  31    -0.482314942411E+03   -0.69334E-04   -0.50183E-05  1288   0.656E-02    0.266E-02
DAV:  32    -0.482315153994E+03   -0.21158E-03   -0.67171E-05  1424   0.467E-02    0.210E-02
DAV:  33    -0.482315215390E+03   -0.61396E-04   -0.16924E-05  1104   0.208E-02    0.280E-02
DAV:  34    -0.482315257087E+03   -0.41697E-04   -0.41677E-06   976   0.105E-02    0.277E-02
DAV:  35    -0.482315287724E+03   -0.30638E-04   -0.84758E-06  1008   0.311E-02    0.139E-02
DAV:  36    -0.482315310078E+03   -0.22353E-04   -0.99357E-06  1136   0.206E-02    0.455E-03
DAV:  37    -0.482315321978E+03   -0.11901E-04   -0.73713E-06  1048   0.958E-03    0.323E-03
DAV:  38    -0.482315337396E+03   -0.15418E-04   -0.23765E-06   936   0.911E-03    0.378E-03
DAV:  39    -0.482315344150E+03   -0.67543E-05   -0.25874E-06   984   0.126E-02
   1 F= -.48231534E+03 E0= -.48226984E+03  d E =-.482315E+03
 curvature:   0.00 expect dE= 0.000E+00 dE for cont linesearch  0.000E+00
 trial: gam= 0.00000 g(F)=  0.788E-01 g(S)=  0.111E-01 ort = 0.000E+00 (trialstep = 0.100E+01)
 search vector abs. value=  0.899E-01
 bond charge predicted
       N       E                     dE             d eps       ncg     rms          rms(c)
DAV:   1    -0.482380078048E+03   -0.64741E-01   -0.38027E+00  1432   0.461E+00    0.774E-01
DAV:   2    -0.482391589375E+03   -0.11511E-01   -0.15438E-01  2112   0.156E+00    0.642E-01
DAV:   3    -0.482390896990E+03    0.69238E-03   -0.34923E-02  2120   0.139E+00    0.497E-01
DAV:   4    -0.482391943159E+03   -0.10462E-02   -0.13090E-02  2104   0.963E-01    0.684E-01
DAV:   5    -0.482390911983E+03    0.10312E-02   -0.55309E-03  2064   0.497E-01    0.652E-01
DAV:   6    -0.482389238067E+03    0.16739E-02   -0.29186E-03  1888   0.300E-01    0.149E-01
DAV:   7    -0.482389128248E+03    0.10982E-03   -0.77465E-04  1912   0.300E-01    0.835E-02
DAV:   8    -0.482389050584E+03    0.77664E-04   -0.21896E-04  1416   0.180E-01    0.254E-02
DAV:   9    -0.482389050866E+03   -0.28190E-06   -0.35116E-05  1224   0.353E-02
   2 F= -.48238905E+03 E0= -.48234669E+03  d E =-.737067E-01
 trial-energy change:   -0.073707  1 .order   -0.073611   -0.089872   -0.057349
 step:   2.7633(harm=  2.7633)  dis= 0.04113  next Energy=  -482.439516 (dE=-0.124E+00)
 bond charge predicted
       N       E                     dE             d eps       ncg     rms          rms(c)
DAV:   1    -0.482412180901E+03   -0.23130E-01   -0.11854E+01  1416   0.810E+00    0.134E+00
DAV:   2    -0.482448269157E+03   -0.36088E-01   -0.46612E-01  2112   0.285E+00    0.112E+00
DAV:   3    -0.482462336963E+03   -0.14068E-01   -0.11906E-01  2248   0.288E+00    0.212E+00
DAV:   4    -0.482444226798E+03    0.18110E-01   -0.39541E-02  2120   0.884E-01    0.733E-01
DAV:   5    -0.482441324421E+03    0.29024E-02   -0.25035E-02  2056   0.104E+00    0.642E-01
DAV:   6    -0.482439170205E+03    0.21542E-02   -0.61179E-03  1960   0.486E-01    0.137E-01
DAV:   7    -0.482439158482E+03    0.11724E-04   -0.19083E-03  1960   0.496E-01    0.125E-01
DAV:   8    -0.482439039365E+03    0.11912E-03   -0.61709E-04  1904   0.306E-01    0.529E-02
DAV:   9    -0.482439042420E+03   -0.30546E-05   -0.10457E-04  1552   0.691E-02    0.222E-02
DAV:  10    -0.482439061187E+03   -0.18767E-04   -0.25416E-05  1192   0.217E-02    0.111E-02
DAV:  11    -0.482439073939E+03   -0.12752E-04   -0.55326E-06   968   0.125E-02    0.339E-03
DAV:  12    -0.482439084497E+03   -0.10559E-04   -0.31393E-06   968   0.858E-03    0.170E-03
DAV:  13    -0.482439092291E+03   -0.77942E-05   -0.17946E-06   968   0.746E-03
   3 F= -.48243909E+03 E0= -.48240240E+03  d E =-.123748E+00
 curvature:  -1.38 expect dE=-0.863E-01 dE for cont linesearch -0.132E-04
 trial: gam= 0.70536 g(F)=  0.590E-01 g(S)=  0.350E-02 ort =-0.926E-03 (trialstep = 0.115E+01)
 search vector abs. value=  0.106E+00
 bond charge predicted
       N       E                     dE             d eps       ncg     rms          rms(c)
DAV:   1    -0.482484838305E+03   -0.45754E-01   -0.66232E+00  1416   0.506E+00    0.694E-01
DAV:   2    -0.482530536340E+03   -0.45698E-01   -0.19666E-01  2104   0.174E+00    0.251E+00
DAV:   3    -0.482498355774E+03    0.32181E-01   -0.63513E-02  2016   0.101E+00    0.464E-01
DAV:   4    -0.482499007892E+03   -0.65212E-03   -0.61813E-03  1944   0.546E-01    0.690E-01
DAV:   5    -0.482497510932E+03    0.14970E-02   -0.90376E-03  2096   0.790E-01    0.319E-01
DAV:   6    -0.482496713666E+03    0.79727E-03   -0.44032E-03  2184   0.509E-01    0.669E-02
DAV:   7    -0.482496766725E+03   -0.53058E-04   -0.43315E-04  1896   0.113E-01    0.535E-02
DAV:   8    -0.482496758118E+03    0.86066E-05   -0.10797E-04  1472   0.109E-01    0.397E-02
DAV:   9    -0.482496751743E+03    0.63750E-05   -0.42721E-05  1312   0.690E-02
   4 F= -.48249675E+03 E0= -.48246069E+03  d E =-.576595E-01
 trial-energy change:   -0.057659  1 .order   -0.057676   -0.070975   -0.044377
 step:   3.0639(harm=  3.0639)  dis= 0.06395  next Energy=  -482.533789 (dE=-0.947E-01)
 bond charge predicted
       N       E                     dE             d eps       ncg     rms          rms(c)
DAV:   1    -0.482502635895E+03   -0.58778E-02   -0.18490E+01  1408   0.840E+00    0.112E+00
DAV:   2    -0.482602227332E+03   -0.99591E-01   -0.51411E-01  2072   0.247E+00    0.346E+00
DAV:   3    -0.482543287168E+03    0.58940E-01   -0.18362E-01  1872   0.127E+00    0.884E-01
DAV:   4    -0.482542825138E+03    0.46203E-03   -0.27066E-02  2008   0.134E+00    0.115E+00
DAV:   5    -0.482536765945E+03    0.60592E-02   -0.24300E-02  2128   0.130E+00    0.544E-01
DAV:   6    -0.482535398600E+03    0.13673E-02   -0.71377E-03  2088   0.536E-01    0.188E-01
DAV:   7    -0.482535463362E+03   -0.64761E-04   -0.15848E-03  2144   0.420E-01    0.136E-01
DAV:   8    -0.482535347064E+03    0.11630E-03   -0.75307E-04  1896   0.312E-01    0.713E-02
DAV:   9    -0.482535341233E+03    0.58309E-05   -0.12118E-04  1512   0.636E-02    0.377E-02
DAV:  10    -0.482535357335E+03   -0.16102E-04   -0.36818E-05  1328   0.229E-02    0.177E-02
DAV:  11    -0.482535375285E+03   -0.17950E-04   -0.71323E-06   976   0.140E-02    0.679E-03
DAV:  12    -0.482535388832E+03   -0.13546E-04   -0.39897E-06   968   0.114E-02    0.262E-03
DAV:  13    -0.482535400142E+03   -0.11311E-04   -0.26054E-06   976   0.853E-03    0.148E-03
DAV:  14    -0.482535409893E+03   -0.97512E-05   -0.22886E-06   976   0.663E-03
   5 F= -.48253541E+03 E0= -.48250096E+03  d E =-.963176E-01
 curvature:  -2.62 expect dE=-0.117E+00 dE for cont linesearch -0.790E-04
 trial: gam= 0.71729 g(F)=  0.431E-01 g(S)=  0.161E-02 ort = 0.179E-02 (trialstep = 0.153E+01)
 search vector abs. value=  0.102E+00
 bond charge predicted
       N       E                     dE             d eps       ncg     rms          rms(c)
DAV:   1    -0.482563939299E+03   -0.28539E-01   -0.11610E+01  1416   0.690E+00    0.766E-01
DAV:   2    -0.482649321480E+03   -0.85382E-01   -0.30851E-01  2072   0.199E+00    0.330E+00
DAV:   3    -0.482589906534E+03    0.59415E-01   -0.15985E-01  1976   0.125E+00    0.670E-01
DAV:   4    -0.482587433306E+03    0.24732E-02   -0.12357E-02  1992   0.753E-01    0.585E-01
DAV:   5    -0.482585725878E+03    0.17074E-02   -0.79494E-03  2160   0.739E-01    0.336E-01
DAV:   6    -0.482585166234E+03    0.55964E-03   -0.36664E-03  2104   0.413E-01    0.992E-02
DAV:   7    -0.482585181749E+03   -0.15516E-04   -0.66283E-04  2032   0.198E-01    0.636E-02
DAV:   8    -0.482585176331E+03    0.54182E-05   -0.34079E-04  1928   0.207E-01    0.469E-02
DAV:   9    -0.482585158746E+03    0.17586E-04   -0.79822E-05  1256   0.111E-01    0.236E-02
DAV:  10    -0.482585166723E+03   -0.79777E-05   -0.39457E-05  1272   0.252E-02
   6 F= -.48258517E+03 E0= -.48255376E+03  d E =-.497568E-01
 trial-energy change:   -0.049757  1 .order   -0.049606   -0.070374   -0.028839
 step:   2.5574(harm=  2.5946)  dis= 0.05491  next Energy=  -482.594873 (dE=-0.595E-01)
 bond charge predicted
       N       E                     dE             d eps       ncg     rms          rms(c)
DAV:   1    -0.482586526772E+03   -0.13680E-02   -0.52147E+00  1416   0.461E+00    0.517E-01
DAV:   2    -0.482625255813E+03   -0.38729E-01   -0.13626E-01  2072   0.136E+00    0.226E+00
DAV:   3    -0.482597135748E+03    0.28120E-01   -0.52869E-02  1944   0.860E-01    0.435E-01
DAV:   4    -0.482596455913E+03    0.67983E-03   -0.51033E-03  1928   0.464E-01    0.371E-01
DAV:   5    -0.482595840608E+03    0.61531E-03   -0.35615E-03  2128   0.500E-01    0.222E-01
DAV:   6    -0.482595535386E+03    0.30522E-03   -0.17916E-03  2144   0.311E-01    0.590E-02
DAV:   7    -0.482595558978E+03   -0.23592E-04   -0.29465E-04  1872   0.129E-01    0.401E-02
DAV:   8    -0.482595556198E+03    0.27796E-05   -0.13051E-04  1424   0.132E-01    0.286E-02
DAV:   9    -0.482595553309E+03    0.28891E-05   -0.32631E-05  1168   0.717E-02
   7 F= -.48259555E+03 E0= -.48256611E+03  d E =-.601434E-01
 curvature:  -2.87 expect dE=-0.857E-01 dE for cont linesearch -0.405E-04
 trial: gam= 0.71499 g(F)=  0.288E-01 g(S)=  0.104E-02 ort = 0.120E-02 (trialstep = 0.174E+01)
 search vector abs. value=  0.836E-01
 bond charge predicted
       N       E                     dE             d eps       ncg     rms          rms(c)
DAV:   1    -0.482609433021E+03   -0.13877E-01   -0.11535E+01  1424   0.697E+00    0.699E-01
DAV:   2    -0.482646771087E+03   -0.37338E-01   -0.30346E-01  2032   0.181E+00    0.154E+00
DAV:   3    -0.482636116591E+03    0.10654E-01   -0.32016E-02  2032   0.781E-01    0.621E-01
DAV:   4    -0.482633496574E+03    0.26200E-02   -0.46393E-03  1824   0.338E-01    0.396E-01
DAV:   5    -0.482632819913E+03    0.67666E-03   -0.35501E-03  2056   0.352E-01    0.148E-01
DAV:   6    -0.482632828153E+03   -0.82402E-05   -0.24826E-03  2056   0.520E-01    0.126E-01
DAV:   7    -0.482632669892E+03    0.15826E-03   -0.72219E-04  2016   0.278E-01    0.430E-02
DAV:   8    -0.482632684785E+03   -0.14893E-04   -0.85686E-05  1288   0.670E-02    0.325E-02
DAV:   9    -0.482632688087E+03   -0.33019E-05   -0.69240E-05  1352   0.777E-02
   8 F= -.48263269E+03 E0= -.48260633E+03  d E =-.371348E-01
 trial-energy change:   -0.037135  1 .order   -0.037129   -0.053365   -0.020893
 step:   2.8539(harm=  2.8539)  dis= 0.05667  next Energy=  -482.639404 (dE=-0.439E-01)
 bond charge predicted
       N       E                     dE             d eps       ncg     rms          rms(c)
DAV:   1    -0.482629461482E+03    0.32233E-02   -0.47718E+00  1424   0.448E+00    0.454E-01
DAV:   2    -0.482645827276E+03   -0.16366E-01   -0.13136E-01  2032   0.121E+00    0.101E+00
DAV:   3    -0.482640750508E+03    0.50768E-02   -0.12584E-02  2000   0.531E-01    0.389E-01
DAV:   4    -0.482639798998E+03    0.95151E-03   -0.20765E-03  1768   0.199E-01    0.248E-01
DAV:   5    -0.482639743909E+03    0.55090E-04   -0.22387E-03  2128   0.299E-01    0.165E-01
DAV:   6    -0.482639478734E+03    0.26517E-03   -0.18428E-03  2088   0.341E-01    0.665E-02
DAV:   7    -0.482639473898E+03    0.48364E-05   -0.19905E-04  1640   0.961E-02    0.268E-02
DAV:   8    -0.482639483053E+03   -0.91551E-05   -0.49016E-05  1192   0.794E-02
   9 F= -.48263948E+03 E0= -.48261479E+03  d E =-.439297E-01
 curvature:  -3.88 expect dE=-0.912E-01 dE for cont linesearch -0.770E-11
 trial: gam= 0.83623 g(F)=  0.227E-01 g(S)=  0.766E-03 ort =-0.407E-06 (trialstep = 0.196E+01)
 search vector abs. value=  0.819E-01
 bond charge predicted
       N       E                     dE             d eps       ncg     rms          rms(c)
DAV:   1    -0.482638345337E+03    0.11286E-02   -0.14244E+01  1408   0.778E+00    0.840E-01
DAV:   2    -0.482679472015E+03   -0.41127E-01   -0.43878E-01  2064   0.196E+00    0.892E-01
DAV:   3    -0.482686053354E+03   -0.65813E-02   -0.41379E-02  2208   0.136E+00    0.146E+00
DAV:   4    -0.482673859173E+03    0.12194E-01   -0.16835E-02  1816   0.512E-01    0.387E-01
DAV:   5    -0.482673220048E+03    0.63913E-03   -0.95803E-03  2064   0.749E-01    0.334E-01
DAV:   6    -0.482672596953E+03    0.62309E-03   -0.28921E-03  2120   0.351E-01    0.143E-01
DAV:   7    -0.482672542013E+03    0.54940E-04   -0.36572E-04  1896   0.116E-01    0.649E-02
DAV:   8    -0.482672562859E+03   -0.20846E-04   -0.16793E-04  1480   0.139E-01    0.473E-02
DAV:   9    -0.482672559778E+03    0.30803E-05   -0.70681E-05  1304   0.105E-01
  10 F= -.48267256E+03 E0= -.48264969E+03  d E =-.330767E-01
 trial-energy change:   -0.033077  1 .order   -0.032882   -0.046045   -0.019718
 step:   3.3251(harm=  3.4280)  dis= 0.06581  next Energy=  -482.679492 (dE=-0.400E-01)
 bond charge predicted
       N       E                     dE             d eps       ncg     rms          rms(c)
DAV:   1    -0.482662823523E+03    0.97393E-02   -0.69036E+00  1408   0.542E+00    0.583E-01
DAV:   2    -0.482683268501E+03   -0.20445E-01   -0.22205E-01  2056   0.135E+00    0.588E-01
DAV:   3    -0.482686733106E+03   -0.34646E-02   -0.19373E-02  2224   0.911E-01    0.984E-01
DAV:   4    -0.482680728686E+03    0.60044E-02   -0.69670E-03  1832   0.353E-01    0.261E-01
DAV:   5    -0.482680602908E+03    0.12578E-03   -0.45758E-03  2064   0.516E-01    0.234E-01
DAV:   6    -0.482680256853E+03    0.34605E-03   -0.14692E-03  2120   0.258E-01    0.915E-02
DAV:   7    -0.482680246449E+03    0.10403E-04   -0.16212E-04  1776   0.692E-02    0.407E-02
DAV:   8    -0.482680259945E+03   -0.13496E-04   -0.69177E-05  1344   0.895E-02    0.294E-02
DAV:   9    -0.482680262764E+03   -0.28193E-05   -0.32158E-05  1208   0.703E-02
  11 F= -.48268026E+03 E0= -.48265840E+03  d E =-.407797E-01
 curvature:  -5.95 expect dE=-0.983E-01 dE for cont linesearch -0.788E-04
 trial: gam= 0.63611 g(F)=  0.160E-01 g(S)=  0.531E-03 ort = 0.104E-02 (trialstep = 0.223E+01)
 search vector abs. value=  0.510E-01
 bond charge predicted
       N       E                     dE             d eps       ncg     rms          rms(c)
DAV:   1    -0.482679340158E+03    0.91979E-03   -0.11319E+01  1416   0.727E+00    0.673E-01
DAV:   2    -0.482713105938E+03   -0.33766E-01   -0.32215E-01  2024   0.174E+00    0.119E+00
DAV:   3    -0.482707129313E+03    0.59766E-02   -0.26754E-02  2032   0.685E-01    0.620E-01
DAV:   4    -0.482703825879E+03    0.33034E-02   -0.53610E-03  2016   0.435E-01    0.309E-01
DAV:   5    -0.482704268662E+03   -0.44278E-03   -0.75545E-03  2112   0.705E-01    0.293E-01
DAV:   6    -0.482703340273E+03    0.92839E-03   -0.34707E-03  2224   0.524E-01    0.764E-02
DAV:   7    -0.482703403209E+03   -0.62937E-04   -0.34341E-04  1904   0.922E-02    0.395E-02
DAV:   8    -0.482703416061E+03   -0.12852E-04   -0.12853E-04  1408   0.113E-01    0.318E-02
DAV:   9    -0.482703413548E+03    0.25128E-05   -0.58508E-05  1248   0.979E-02
  12 F= -.48270341E+03 E0= -.48268322E+03  d E =-.231508E-01
 trial-energy change:   -0.023151  1 .order   -0.022891   -0.038363   -0.007418
 step:   2.7372(harm=  2.7684)  dis= 0.03956  next Energy=  -482.704254 (dE=-0.240E-01)
 bond charge predicted
       N       E                     dE             d eps       ncg     rms          rms(c)
DAV:   1    -0.482703033040E+03    0.38302E-03   -0.57637E-01  1424   0.165E+00    0.154E-01
DAV:   2    -0.482704978749E+03   -0.19457E-02   -0.18122E-02  2032   0.404E-01    0.273E-01
DAV:   3    -0.482704576765E+03    0.40198E-03   -0.13400E-03  2024   0.163E-01    0.139E-01
DAV:   4    -0.482704438252E+03    0.13851E-03   -0.29647E-04  1976   0.104E-01    0.740E-02
DAV:   5    -0.482704463754E+03   -0.25502E-04   -0.38367E-04  1848   0.166E-01    0.664E-02
DAV:   6    -0.482704419132E+03    0.44622E-04   -0.17990E-04  1464   0.125E-01    0.140E-02
DAV:   7    -0.482704432169E+03   -0.13037E-04   -0.19970E-05  1056   0.269E-02    0.882E-03
DAV:   8    -0.482704436856E+03   -0.46865E-05   -0.96303E-06  1072   0.321E-02
  13 F= -.48270444E+03 E0= -.48268461E+03  d E =-.241741E-01
 curvature:  -4.10 expect dE=-0.531E-01 dE for cont linesearch -0.166E-04
 trial: gam= 0.82549 g(F)=  0.127E-01 g(S)=  0.249E-03 ort = 0.455E-03 (trialstep = 0.233E+01)
 search vector abs. value=  0.485E-01
 bond charge predicted
       N       E                     dE             d eps       ncg     rms          rms(c)
DAV:   1    -0.482705789093E+03   -0.13569E-02   -0.11545E+01  1432   0.742E+00    0.607E-01
DAV:   2    -0.482732590588E+03   -0.26801E-01   -0.25973E-01  2032   0.159E+00    0.980E-01
DAV:   3    -0.482728874798E+03    0.37158E-02   -0.21111E-02  2096   0.597E-01    0.559E-01
DAV:   4    -0.482726258495E+03    0.26163E-02   -0.40781E-03  2000   0.397E-01    0.293E-01
DAV:   5    -0.482726784422E+03   -0.52593E-03   -0.62959E-03  2120   0.643E-01    0.284E-01
DAV:   6    -0.482725935438E+03    0.84898E-03   -0.30029E-03  2208   0.474E-01    0.677E-02
DAV:   7    -0.482725999540E+03   -0.64102E-04   -0.30733E-04  1840   0.547E-02    0.373E-02
DAV:   8    -0.482725998604E+03    0.93559E-06   -0.49586E-05  1320   0.368E-02
  14 F= -.48272600E+03 E0= -.48270660E+03  d E =-.215617E-01
 trial-energy change:   -0.021562  1 .order   -0.021485   -0.031119   -0.011852
 step:   3.7172(harm=  3.7696)  dis= 0.04929  next Energy=  -482.729527 (dE=-0.251E-01)
 bond charge predicted
       N       E                     dE             d eps       ncg     rms          rms(c)
DAV:   1    -0.482722075314E+03    0.39242E-02   -0.40503E+00  1424   0.440E+00    0.358E-01
DAV:   2    -0.482732003394E+03   -0.99281E-02   -0.98902E-02  2040   0.980E-01    0.546E-01
DAV:   3    -0.482730829002E+03    0.11744E-02   -0.69307E-03  2120   0.374E-01    0.329E-01
DAV:   4    -0.482729921392E+03    0.90761E-03   -0.13388E-03  1952   0.186E-01    0.165E-01
DAV:   5    -0.482729861461E+03    0.59931E-04   -0.98727E-04  1880   0.118E-01    0.506E-02
DAV:   6    -0.482729895420E+03   -0.33959E-04   -0.23001E-04  1720   0.150E-01    0.468E-02
DAV:   7    -0.482729882964E+03    0.12456E-04   -0.11878E-04  1368   0.128E-01    0.262E-02
DAV:   8    -0.482729887035E+03   -0.40710E-05   -0.21727E-05  1040   0.366E-02
  15 F= -.48272989E+03 E0= -.48271053E+03  d E =-.254502E-01
 curvature:  -6.84 expect dE=-0.935E-01 dE for cont linesearch -0.159E-04
 trial: gam= 1.03068 g(F)=  0.135E-01 g(S)=  0.175E-03 ort = 0.336E-03 (trialstep = 0.192E+01)
 search vector abs. value=  0.658E-01
 bond charge predicted
       N       E                     dE             d eps       ncg     rms          rms(c)
DAV:   1    -0.482731513327E+03   -0.16304E-02   -0.10623E+01  1440   0.740E+00    0.548E-01
DAV:   2    -0.482757136461E+03   -0.25623E-01   -0.23370E-01  2016   0.172E+00    0.984E-01
DAV:   3    -0.482751602474E+03    0.55340E-02   -0.22523E-02  1872   0.562E-01    0.510E-01
DAV:   4    -0.482750172996E+03    0.14295E-02   -0.70309E-03  2040   0.633E-01    0.347E-01
DAV:   5    -0.482749409599E+03    0.76340E-03   -0.44417E-03  2184   0.585E-01    0.199E-01
DAV:   6    -0.482749374055E+03    0.35544E-04   -0.17097E-03  2024   0.237E-01    0.884E-02
DAV:   7    -0.482749366573E+03    0.74814E-05   -0.37442E-04  1944   0.164E-01    0.480E-02
DAV:   8    -0.482749353162E+03    0.13411E-04   -0.12249E-04  1280   0.130E-01    0.218E-02
DAV:   9    -0.482749360751E+03   -0.75885E-05   -0.25351E-05  1056   0.393E-02
  16 F= -.48274936E+03 E0= -.48273000E+03  d E =-.194737E-01
 trial-energy change:   -0.019474  1 .order   -0.019120   -0.026935   -0.011306
 step:   3.0639(harm=  3.3112)  dis= 0.04427  next Energy=  -482.752797 (dE=-0.229E-01)
 bond charge predicted
       N       E                     dE             d eps       ncg     rms          rms(c)
DAV:   1    -0.482747555642E+03    0.17975E-02   -0.37608E+00  1424   0.440E+00    0.322E-01
DAV:   2    -0.482756453973E+03   -0.88983E-02   -0.78443E-02  2024   0.918E-01    0.592E-01
DAV:   3    -0.482754197020E+03    0.22570E-02   -0.72984E-03  1976   0.337E-01    0.274E-01
DAV:   4    -0.482753762730E+03    0.43429E-03   -0.16584E-03  2000   0.298E-01    0.168E-01
DAV:   5    -0.482753732239E+03    0.30491E-04   -0.16467E-03  2192   0.355E-01    0.135E-01
DAV:   6    -0.482753616344E+03    0.11589E-03   -0.66214E-04  2048   0.193E-01    0.327E-02
DAV:   7    -0.482753636382E+03   -0.20038E-04   -0.10564E-04  1408   0.868E-02    0.265E-02
DAV:   8    -0.482753634655E+03    0.17273E-05   -0.43779E-05  1296   0.768E-02
  17 F= -.48275363E+03 E0= -.48273407E+03  d E =-.237476E-01
 curvature:  -7.53 expect dE=-0.749E-01 dE for cont linesearch -0.148E-03
 trial: gam= 0.67147 g(F)=  0.983E-02 g(S)=  0.116E-03 ort = 0.114E-02 (trialstep = 0.215E+01)
 search vector abs. value=  0.412E-01
 bond charge predicted
       N       E                     dE             d eps       ncg     rms          rms(c)
DAV:   1    -0.482754943304E+03   -0.13069E-02   -0.79263E+00  1416   0.669E+00    0.465E-01
DAV:   2    -0.482772037155E+03   -0.17094E-01   -0.18253E-01  2032   0.160E+00    0.541E-01
DAV:   3    -0.482771548436E+03    0.48872E-03   -0.14106E-02  2080   0.570E-01    0.452E-01
DAV:   4    -0.482770231599E+03    0.13168E-02   -0.35916E-03  1984   0.363E-01    0.305E-01
DAV:   5    -0.482769683931E+03    0.54767E-03   -0.29691E-03  2184   0.483E-01    0.180E-01
DAV:   6    -0.482769580917E+03    0.10301E-03   -0.11780E-03  2048   0.208E-01    0.609E-02
DAV:   7    -0.482769597034E+03   -0.16117E-04   -0.18863E-04  1848   0.805E-02    0.246E-02
DAV:   8    -0.482769602971E+03   -0.59375E-05   -0.47841E-05  1256   0.777E-02
  18 F= -.48276960E+03 E0= -.48274949E+03  d E =-.159683E-01
 trial-energy change:   -0.015968  1 .order   -0.015740   -0.023023   -0.008458
 step:   3.2432(harm=  3.3982)  dis= 0.03218  next Energy=  -482.771784 (dE=-0.181E-01)
 bond charge predicted
       N       E                     dE             d eps       ncg     rms          rms(c)
DAV:   1    -0.482768351956E+03    0.12451E-02   -0.20497E+00  1424   0.340E+00    0.236E-01
DAV:   2    -0.482772690344E+03   -0.43384E-02   -0.46354E-02  2024   0.776E-01    0.262E-01
DAV:   3    -0.482772662230E+03    0.28113E-04   -0.32479E-03  2112   0.277E-01    0.240E-01
DAV:   4    -0.482772240943E+03    0.42129E-03   -0.92068E-04  2008   0.198E-01    0.138E-01
DAV:   5    -0.482772168876E+03    0.72067E-04   -0.74150E-04  2104   0.267E-01    0.919E-02
DAV:   6    -0.482772137995E+03    0.30881E-04   -0.31441E-04  1880   0.129E-01    0.328E-02
DAV:   7    -0.482772150069E+03   -0.12075E-04   -0.11647E-04  1384   0.118E-01    0.277E-02
DAV:   8    -0.482772146599E+03    0.34705E-05   -0.37089E-05  1192   0.693E-02
  19 F= -.48277215E+03 E0= -.48275170E+03  d E =-.185119E-01
 curvature:  -6.43 expect dE=-0.621E-01 dE for cont linesearch -0.597E-04
 trial: gam= 1.02727 g(F)=  0.902E-02 g(S)=  0.626E-03 ort = 0.618E-03 (trialstep = 0.179E+01)
 search vector abs. value=  0.544E-01
 bond charge predicted
       N       E                     dE             d eps       ncg     rms          rms(c)
DAV:   1    -0.482771872662E+03    0.27741E-03   -0.72017E+00  1416   0.642E+00    0.463E-01
DAV:   2    -0.482792203886E+03   -0.20331E-01   -0.17611E-01  2072   0.143E+00    0.750E-01
DAV:   3    -0.482787514256E+03    0.46896E-02   -0.16419E-02  2056   0.684E-01    0.455E-01
DAV:   4    -0.482786101549E+03    0.14127E-02   -0.30007E-03  1896   0.276E-01    0.180E-01
DAV:   5    -0.482786372856E+03   -0.27131E-03   -0.27815E-03  2088   0.494E-01    0.195E-01
DAV:   6    -0.482786006569E+03    0.36629E-03   -0.14672E-03  2144   0.379E-01    0.667E-02
DAV:   7    -0.482786031269E+03   -0.24700E-04   -0.25781E-04  1632   0.129E-01    0.392E-02
DAV:   8    -0.482786024702E+03    0.65669E-05   -0.96219E-05  1320   0.100E-01
  20 F= -.48278602E+03 E0= -.48276499E+03  d E =-.138781E-01
 trial-energy change:   -0.013878  1 .order   -0.013899   -0.018447   -0.009350
 step:   3.6368(harm=  3.6368)  dis= 0.03713  next Energy=  -482.790850 (dE=-0.187E-01)
 bond charge predicted
       N       E                     dE             d eps       ncg     rms          rms(c)
DAV:   1    -0.482776067679E+03    0.99636E-02   -0.76105E+00  1416   0.660E+00    0.476E-01
DAV:   2    -0.482797191612E+03   -0.21124E-01   -0.18434E-01  2072   0.147E+00    0.754E-01
DAV:   3    -0.482792470041E+03    0.47216E-02   -0.17240E-02  2064   0.702E-01    0.469E-01
DAV:   4    -0.482790949188E+03    0.15209E-02   -0.32298E-03  1856   0.275E-01    0.186E-01
DAV:   5    -0.482791252961E+03   -0.30377E-03   -0.29992E-03  2096   0.497E-01    0.204E-01
DAV:   6    -0.482790854862E+03    0.39810E-03   -0.15500E-03  2224   0.375E-01    0.669E-02
DAV:   7    -0.482790883714E+03   -0.28852E-04   -0.26150E-04  1680   0.136E-01    0.392E-02
DAV:   8    -0.482790877424E+03    0.62895E-05   -0.97529E-05  1312   0.105E-01
  21 F= -.48279088E+03 E0= -.48276925E+03  d E =-.187308E-01
 curvature:  -9.61 expect dE=-0.988E-01 dE for cont linesearch -0.317E-08
 trial: gam= 1.07513 g(F)=  0.101E-01 g(S)=  0.218E-03 ort = 0.423E-05 (trialstep = 0.161E+01)
 search vector abs. value=  0.731E-01
 bond charge predicted
       N       E                     dE             d eps       ncg     rms          rms(c)
DAV:   1    -0.482787716218E+03    0.31675E-02   -0.76442E+00  1416   0.671E+00    0.514E-01
DAV:   2    -0.482812345759E+03   -0.24630E-01   -0.19483E-01  2080   0.157E+00    0.908E-01
DAV:   3    -0.482804363624E+03    0.79821E-02   -0.22273E-02  2056   0.823E-01    0.458E-01
DAV:   4    -0.482803065444E+03    0.12982E-02   -0.38001E-03  1832   0.266E-01    0.203E-01
DAV:   5    -0.482803259017E+03   -0.19357E-03   -0.31256E-03  2144   0.470E-01    0.203E-01
DAV:   6    -0.482802906320E+03    0.35270E-03   -0.13316E-03  2184   0.315E-01    0.642E-02
DAV:   7    -0.482802930905E+03   -0.24585E-04   -0.22129E-04  1720   0.100E-01    0.283E-02
DAV:   8    -0.482802934666E+03   -0.37607E-05   -0.71967E-05  1272   0.942E-02
  22 F= -.48280293E+03 E0= -.48278072E+03  d E =-.120572E-01
 trial-energy change:   -0.012057  1 .order   -0.011937   -0.016526   -0.007348
 step:   2.7420(harm=  2.8943)  dis= 0.02892  next Energy=  -482.805570 (dE=-0.147E-01)
 bond charge predicted
       N       E                     dE             d eps       ncg     rms          rms(c)
DAV:   1    -0.482798041486E+03    0.48894E-02   -0.38071E+00  1408   0.474E+00    0.360E-01
DAV:   2    -0.482810398234E+03   -0.12357E-01   -0.99579E-02  2072   0.108E+00    0.633E-01
DAV:   3    -0.482806687388E+03    0.37108E-02   -0.10879E-02  2048   0.558E-01    0.327E-01
DAV:   4    -0.482805991854E+03    0.69553E-03   -0.17610E-03  1760   0.161E-01    0.137E-01
DAV:   5    -0.482806168216E+03   -0.17636E-03   -0.16463E-03  2160   0.330E-01    0.153E-01
DAV:   6    -0.482805938912E+03    0.22930E-03   -0.80946E-04  1840   0.252E-01    0.444E-02
DAV:   7    -0.482805957412E+03   -0.18500E-04   -0.10925E-04  1504   0.392E-02    0.149E-02
DAV:   8    -0.482805964139E+03   -0.67275E-05   -0.15154E-05  1032   0.221E-02
  23 F= -.48280596E+03 E0= -.48278333E+03  d E =-.150867E-01
 curvature: -10.15 expect dE=-0.695E-01 dE for cont linesearch -0.398E-04
 trial: gam= 0.53820 g(F)=  0.638E-02 g(S)=  0.471E-03 ort = 0.536E-03 (trialstep = 0.183E+01)
 search vector abs. value=  0.286E-01
 bond charge predicted
       N       E                     dE             d eps       ncg     rms          rms(c)
DAV:   1    -0.482808349927E+03   -0.23925E-02   -0.36791E+00  1408   0.489E+00    0.366E-01
DAV:   2    -0.482816383773E+03   -0.80338E-02   -0.90405E-02  2064   0.109E+00    0.352E-01
DAV:   3    -0.482817043668E+03   -0.65990E-03   -0.76557E-03  2168   0.491E-01    0.437E-01
DAV:   4    -0.482815284634E+03    0.17590E-02   -0.20798E-03  1912   0.213E-01    0.152E-01
DAV:   5    -0.482815472922E+03   -0.18829E-03   -0.14957E-03  2112   0.327E-01    0.158E-01
DAV:   6    -0.482815257368E+03    0.21555E-03   -0.87470E-04  2048   0.265E-01    0.478E-02
DAV:   7    -0.482815274568E+03   -0.17199E-04   -0.11705E-04  1600   0.655E-02    0.180E-02
DAV:   8    -0.482815280636E+03   -0.60682E-05   -0.37946E-05  1200   0.661E-02
  24 F= -.48281528E+03 E0= -.48279237E+03  d E =-.931650E-02
 trial-energy change:   -0.009316  1 .order   -0.009294   -0.013087   -0.005501
 step:   3.1647(harm=  3.1647)  dis= 0.01557  next Energy=  -482.817253 (dE=-0.113E-01)
 bond charge predicted
       N       E                     dE             d eps       ncg     rms          rms(c)
DAV:   1    -0.482813648437E+03    0.16261E-02   -0.19356E+00  1408   0.354E+00    0.266E-01
DAV:   2    -0.482817843202E+03   -0.41948E-02   -0.47162E-02  2048   0.804E-01    0.258E-01
DAV:   3    -0.482818172068E+03   -0.32887E-03   -0.40818E-03  2152   0.398E-01    0.311E-01
DAV:   4    -0.482817264278E+03    0.90779E-03   -0.10785E-03  1928   0.151E-01    0.110E-01
DAV:   5    -0.482817350845E+03   -0.86567E-04   -0.80207E-04  2040   0.272E-01    0.108E-01
DAV:   6    -0.482817256058E+03    0.94787E-04   -0.41635E-04  1720   0.197E-01    0.352E-02
DAV:   7    -0.482817271601E+03   -0.15543E-04   -0.11255E-04  1528   0.100E-01    0.262E-02
DAV:   8    -0.482817268109E+03    0.34918E-05   -0.44276E-05  1232   0.749E-02
  25 F= -.48281727E+03 E0= -.48279418E+03  d E =-.113040E-01
 curvature:  -6.34 expect dE=-0.438E-01 dE for cont linesearch -0.502E-07
 trial: gam= 1.08761 g(F)=  0.670E-02 g(S)=  0.209E-03 ort =-0.151E-04 (trialstep = 0.148E+01)
 search vector abs. value=  0.407E-01
 bond charge predicted
       N       E                     dE             d eps       ncg     rms          rms(c)
DAV:   1    -0.482819108772E+03   -0.18372E-02   -0.32311E+00  1408   0.467E+00    0.380E-01
DAV:   2    -0.482829287407E+03   -0.10179E-01   -0.85940E-02  2056   0.103E+00    0.615E-01
DAV:   3    -0.482826064503E+03    0.32229E-02   -0.10183E-02  2096   0.557E-01    0.323E-01
DAV:   4    -0.482825285662E+03    0.77884E-03   -0.16574E-03  1800   0.173E-01    0.137E-01
DAV:   5    -0.482825490614E+03   -0.20495E-03   -0.15886E-03  2152   0.343E-01    0.147E-01
DAV:   6    -0.482825265715E+03    0.22490E-03   -0.80081E-04  1712   0.279E-01    0.452E-02
DAV:   7    -0.482825280255E+03   -0.14540E-04   -0.13994E-04  1672   0.873E-02    0.226E-02
DAV:   8    -0.482825281222E+03   -0.96649E-06   -0.48799E-05  1256   0.775E-02
  26 F= -.48282528E+03 E0= -.48280212E+03  d E =-.801311E-02
 trial-energy change:   -0.008013  1 .order   -0.008002   -0.010170   -0.005834
 step:   3.4613(harm=  3.4613)  dis= 0.01810  next Energy=  -482.829195 (dE=-0.119E-01)
 bond charge predicted
       N       E                     dE             d eps       ncg     rms          rms(c)
DAV:   1    -0.482818431617E+03    0.68486E-02   -0.58521E+00  1408   0.629E+00    0.515E-01
DAV:   2    -0.482836795406E+03   -0.18364E-01   -0.15435E-01  2064   0.140E+00    0.824E-01
DAV:   3    -0.482830851295E+03    0.59441E-02   -0.18261E-02  2120   0.763E-01    0.432E-01
DAV:   4    -0.482829443900E+03    0.14074E-02   -0.30389E-03  1800   0.230E-01    0.187E-01
DAV:   5    -0.482829800000E+03   -0.35610E-03   -0.29230E-03  2152   0.457E-01    0.202E-01
DAV:   6    -0.482829390754E+03    0.40925E-03   -0.14888E-03  2040   0.373E-01    0.650E-02
DAV:   7    -0.482829405911E+03   -0.15158E-04   -0.23879E-04  1840   0.108E-01    0.289E-02
DAV:   8    -0.482829409000E+03   -0.30889E-05   -0.82302E-05  1288   0.101E-01
  27 F= -.48282941E+03 E0= -.48280609E+03  d E =-.121409E-01
 curvature: -10.22 expect dE=-0.591E-01 dE for cont linesearch -0.178E-05
 trial: gam= 0.74518 g(F)=  0.544E-02 g(S)=  0.349E-03 ort = 0.842E-04 (trialstep = 0.187E+01)
 search vector abs. value=  0.285E-01
 bond charge predicted
       N       E                     dE             d eps       ncg     rms          rms(c)
DAV:   1    -0.482831011605E+03   -0.16057E-02   -0.35297E+00  1408   0.501E+00    0.512E-01
DAV:   2    -0.482855397461E+03   -0.24386E-01   -0.12024E-01  2088   0.157E+00    0.122E+00
DAV:   3    -0.482837523725E+03    0.17874E-01   -0.24944E-02  2136   0.100E+00    0.286E-01
DAV:   4    -0.482837577827E+03   -0.54102E-04   -0.44280E-03  1952   0.370E-01    0.212E-01
DAV:   5    -0.482837330647E+03    0.24718E-03   -0.20907E-03  2200   0.372E-01    0.108E-01
DAV:   6    -0.482837330435E+03    0.21207E-06   -0.37904E-04  2064   0.144E-01    0.367E-02
DAV:   7    -0.482837358146E+03   -0.27711E-04   -0.13380E-04  1464   0.115E-01    0.292E-02
DAV:   8    -0.482837352544E+03    0.56019E-05   -0.56359E-05  1248   0.937E-02
  28 F= -.48283735E+03 E0= -.48281440E+03  d E =-.794354E-02
 trial-energy change:   -0.007944  1 .order   -0.007872   -0.010952   -0.004792
 step:   3.1765(harm=  3.3300)  dis= 0.01545  next Energy=  -482.839045 (dE=-0.964E-02)
 bond charge predicted
       N       E                     dE             d eps       ncg     rms          rms(c)
DAV:   1    -0.482836090888E+03    0.12673E-02   -0.17097E+00  1408   0.349E+00    0.358E-01
DAV:   2    -0.482848261648E+03   -0.12171E-01   -0.58760E-02  2088   0.110E+00    0.883E-01
DAV:   3    -0.482839234147E+03    0.90275E-02   -0.12691E-02  2152   0.704E-01    0.204E-01
DAV:   4    -0.482839297607E+03   -0.63460E-04   -0.21289E-03  1928   0.262E-01    0.148E-01
DAV:   5    -0.482839175908E+03    0.12170E-03   -0.99566E-04  2192   0.259E-01    0.746E-02
DAV:   6    -0.482839180902E+03   -0.49938E-05   -0.18188E-04  1912   0.974E-02    0.250E-02
DAV:   7    -0.482839196370E+03   -0.15468E-04   -0.63180E-05  1344   0.780E-02    0.197E-02
DAV:   8    -0.482839194525E+03    0.18449E-05   -0.27003E-05  1208   0.650E-02
  29 F= -.48283919E+03 E0= -.48281646E+03  d E =-.978552E-02
 curvature:  -8.03 expect dE=-0.419E-01 dE for cont linesearch -0.190E-04
 trial: gam= 0.90110 g(F)=  0.486E-02 g(S)=  0.354E-03 ort = 0.260E-03 (trialstep = 0.211E+01)
 search vector abs. value=  0.288E-01
 bond charge predicted
       N       E                     dE             d eps       ncg     rms          rms(c)
DAV:   1    -0.482839490780E+03   -0.29441E-03   -0.46537E+00  1408   0.575E+00    0.394E-01
DAV:   2    -0.482849458389E+03   -0.99676E-02   -0.10374E-01  2008   0.111E+00    0.450E-01
DAV:   3    -0.482849019033E+03    0.43936E-03   -0.84939E-03  2152   0.497E-01    0.397E-01
DAV:   4    -0.482847670500E+03    0.13485E-02   -0.18425E-03  1936   0.228E-01    0.150E-01
DAV:   5    -0.482847888745E+03   -0.21825E-03   -0.13295E-03  2056   0.337E-01    0.118E-01
DAV:   6    -0.482847787960E+03    0.10079E-03   -0.86187E-04  1928   0.334E-01    0.460E-02
DAV:   7    -0.482847800537E+03   -0.12577E-04   -0.10796E-04  1424   0.837E-02    0.199E-02
DAV:   8    -0.482847805519E+03   -0.49828E-05   -0.41032E-05  1224   0.654E-02
  30 F= -.48284781E+03 E0= -.48282516E+03  d E =-.861099E-02
 trial-energy change:   -0.008611  1 .order   -0.008541   -0.011492   -0.005591
 step:   3.8789(harm=  4.1088)  dis= 0.01938  next Energy=  -482.850190 (dE=-0.110E-01)
 bond charge predicted
       N       E                     dE             d eps       ncg     rms          rms(c)
DAV:   1    -0.482844548385E+03    0.32522E-02   -0.32718E+00  1408   0.482E+00    0.331E-01
DAV:   2    -0.482851761392E+03   -0.72130E-02   -0.74594E-02  2000   0.936E-01    0.382E-01
DAV:   3    -0.482851384658E+03    0.37673E-03   -0.59673E-03  2136   0.416E-01    0.329E-01
DAV:   4    -0.482850466158E+03    0.91850E-03   -0.12942E-03  1944   0.197E-01    0.126E-01
DAV:   5    -0.482850648788E+03   -0.18263E-03   -0.10269E-03  2120   0.303E-01    0.110E-01
DAV:   6    -0.482850550731E+03    0.98057E-04   -0.66121E-04  1832   0.280E-01    0.375E-02
DAV:   7    -0.482850567676E+03   -0.16945E-04   -0.82895E-05  1280   0.648E-02    0.201E-02
DAV:   8    -0.482850569538E+03   -0.18623E-05   -0.38483E-05  1256   0.671E-02
  31 F= -.48285057E+03 E0= -.48282803E+03  d E =-.113750E-01
 curvature: -10.73 expect dE=-0.691E-01 dE for cont linesearch -0.537E-04
 trial: gam= 1.20548 g(F)=  0.631E-02 g(S)=  0.128E-03 ort = 0.380E-03 (trialstep = 0.144E+01)
 search vector abs. value=  0.493E-01
 bond charge predicted
       N       E                     dE             d eps       ncg     rms          rms(c)
DAV:   1    -0.482852333678E+03   -0.17660E-02   -0.36991E+00  1432   0.514E+00    0.352E-01
DAV:   2    -0.482859072622E+03   -0.67389E-02   -0.78989E-02  2072   0.106E+00    0.323E-01
DAV:   3    -0.482859703404E+03   -0.63078E-03   -0.69660E-03  2192   0.553E-01    0.381E-01
DAV:   4    -0.482858397145E+03    0.13063E-02   -0.17102E-03  1984   0.214E-01    0.156E-01
DAV:   5    -0.482858597693E+03   -0.20055E-03   -0.13420E-03  2048   0.307E-01    0.145E-01
DAV:   6    -0.482858472005E+03    0.12569E-03   -0.77341E-04  2040   0.262E-01    0.446E-02
DAV:   7    -0.482858498436E+03   -0.26431E-04   -0.12166E-04  1648   0.900E-02    0.216E-02
DAV:   8    -0.482858501205E+03   -0.27697E-05   -0.48774E-05  1232   0.816E-02
  32 F= -.48285850E+03 E0= -.48283586E+03  d E =-.793167E-02
 trial-energy change:   -0.007932  1 .order   -0.007884   -0.009941   -0.005827
 step:   3.2119(harm=  3.4852)  dis= 0.02318  next Energy=  -482.862163 (dE=-0.116E-01)
 bond charge predicted
       N       E                     dE             d eps       ncg     rms          rms(c)
DAV:   1    -0.482853181739E+03    0.53167E-02   -0.55649E+00  1432   0.630E+00    0.436E-01
DAV:   2    -0.482863654746E+03   -0.10473E-01   -0.12093E-01  2064   0.135E+00    0.420E-01
DAV:   3    -0.482864311142E+03   -0.65640E-03   -0.11310E-02  2184   0.727E-01    0.460E-01
DAV:   4    -0.482862449441E+03    0.18617E-02   -0.26221E-03  1976   0.255E-01    0.199E-01
DAV:   5    -0.482862665959E+03   -0.21652E-03   -0.20521E-03  2056   0.380E-01    0.177E-01
DAV:   6    -0.482862520087E+03    0.14587E-03   -0.10810E-03  2104   0.303E-01    0.540E-02
DAV:   7    -0.482862559360E+03   -0.39273E-04   -0.18843E-04  1856   0.110E-01    0.269E-02
DAV:   8    -0.482862562159E+03   -0.27990E-05   -0.70957E-05  1248   0.989E-02
  33 F= -.48286256E+03 E0= -.48283979E+03  d E =-.119926E-01
 curvature: -12.23 expect dE=-0.739E-01 dE for cont linesearch -0.453E-04
 trial: gam= 0.96875 g(F)=  0.562E-02 g(S)=  0.419E-03 ort = 0.427E-03 (trialstep = 0.167E+01)
 search vector abs. value=  0.531E-01
 bond charge predicted
       N       E                     dE             d eps       ncg     rms          rms(c)
DAV:   1    -0.482861436438E+03    0.11229E-02   -0.52857E+00  1424   0.617E+00    0.438E-01
DAV:   2    -0.482873834440E+03   -0.12398E-01   -0.12027E-01  2016   0.127E+00    0.567E-01
DAV:   3    -0.482872074474E+03    0.17600E-02   -0.12761E-02  2184   0.732E-01    0.410E-01
DAV:   4    -0.482870766825E+03    0.13076E-02   -0.23964E-03  1784   0.215E-01    0.178E-01
DAV:   5    -0.482871042285E+03   -0.27546E-03   -0.24316E-03  2136   0.431E-01    0.174E-01
DAV:   6    -0.482870829065E+03    0.21322E-03   -0.10202E-03  2160   0.301E-01    0.433E-02
DAV:   7    -0.482870863952E+03   -0.34886E-04   -0.17133E-04  1760   0.102E-01    0.268E-02
DAV:   8    -0.482870862473E+03    0.14782E-05   -0.62361E-05  1264   0.913E-02
  34 F= -.48287086E+03 E0= -.48284820E+03  d E =-.830031E-02
 trial-energy change:   -0.008300  1 .order   -0.008167   -0.010758   -0.005576
 step:   3.0628(harm=  3.4593)  dis= 0.02466  next Energy=  -482.873277 (dE=-0.107E-01)
 bond charge predicted
       N       E                     dE             d eps       ncg     rms          rms(c)
DAV:   1    -0.482867341197E+03    0.35228E-02   -0.37147E+00  1424   0.517E+00    0.366E-01
DAV:   2    -0.482876100614E+03   -0.87594E-02   -0.84866E-02  2008   0.106E+00    0.479E-01
DAV:   3    -0.482874793853E+03    0.13068E-02   -0.89854E-03  2184   0.618E-01    0.339E-01
DAV:   4    -0.482873910339E+03    0.88351E-03   -0.16320E-03  1800   0.179E-01    0.147E-01
DAV:   5    -0.482874130359E+03   -0.22002E-03   -0.17298E-03  2136   0.366E-01    0.148E-01
DAV:   6    -0.482873966631E+03    0.16373E-03   -0.74517E-04  2104   0.259E-01    0.357E-02
DAV:   7    -0.482873994176E+03   -0.27545E-04   -0.12080E-04  1624   0.881E-02    0.231E-02
DAV:   8    -0.482873993771E+03    0.40459E-06   -0.46670E-05  1240   0.790E-02
  35 F= -.48287399E+03 E0= -.48285138E+03  d E =-.114316E-01
 curvature: -13.53 expect dE=-0.715E-01 dE for cont linesearch -0.216E-03
 trial: gam= 0.78234 g(F)=  0.492E-02 g(S)=  0.364E-03 ort = 0.920E-03 (trialstep = 0.195E+01)
 search vector abs. value=  0.392E-01
 bond charge predicted
       N       E                     dE             d eps       ncg     rms          rms(c)
DAV:   1    -0.482874460184E+03   -0.46601E-03   -0.50930E+00  1416   0.610E+00    0.534E-01
DAV:   2    -0.482893968242E+03   -0.19508E-01   -0.13891E-01  2072   0.161E+00    0.971E-01
DAV:   3    -0.482884026064E+03    0.99422E-02   -0.22186E-02  2216   0.104E+00    0.377E-01
DAV:   4    -0.482883314640E+03    0.71142E-03   -0.41053E-03  1880   0.336E-01    0.229E-01
DAV:   5    -0.482883100973E+03    0.21367E-03   -0.28668E-03  2096   0.456E-01    0.138E-01
DAV:   6    -0.482883069751E+03    0.31222E-04   -0.61092E-04  2112   0.202E-01    0.400E-02
DAV:   7    -0.482883098806E+03   -0.29055E-04   -0.13076E-04  1736   0.766E-02    0.220E-02
DAV:   8    -0.482883100855E+03   -0.20492E-05   -0.43967E-05  1240   0.786E-02
  36 F= -.48288310E+03 E0= -.48286053E+03  d E =-.910708E-02
 trial-energy change:   -0.009107  1 .order   -0.008963   -0.011677   -0.006248
 step:   3.6671(harm=  4.1849)  dis= 0.02578  next Energy=  -482.885965 (dE=-0.120E-01)
 bond charge predicted
       N       E                     dE             d eps       ncg     rms          rms(c)
DAV:   1    -0.482879875289E+03    0.32235E-02   -0.39879E+00  1416   0.540E+00    0.474E-01
DAV:   2    -0.482895345687E+03   -0.15470E-01   -0.10948E-01  2088   0.145E+00    0.871E-01
DAV:   3    -0.482887337952E+03    0.80077E-02   -0.17746E-02  2216   0.942E-01    0.331E-01
DAV:   4    -0.482886818948E+03    0.51900E-03   -0.32109E-03  1872   0.298E-01    0.202E-01
DAV:   5    -0.482886663493E+03    0.15545E-03   -0.22554E-03  2096   0.406E-01    0.123E-01
DAV:   6    -0.482886641542E+03    0.21950E-04   -0.47941E-04  2088   0.179E-01    0.346E-02
DAV:   7    -0.482886668667E+03   -0.27125E-04   -0.10159E-04  1456   0.791E-02    0.215E-02
DAV:   8    -0.482886670284E+03   -0.16169E-05   -0.43464E-05  1272   0.784E-02
  37 F= -.48288667E+03 E0= -.48286409E+03  d E =-.126765E-01
 curvature: -12.94 expect dE=-0.655E-01 dE for cont linesearch -0.200E-03
 trial: gam= 1.02773 g(F)=  0.506E-02 g(S)=  0.534E-05 ort = 0.779E-03 (trialstep = 0.187E+01)
 search vector abs. value=  0.481E-01
 bond charge predicted
       N       E                     dE             d eps       ncg     rms          rms(c)
DAV:   1    -0.482885212305E+03    0.14564E-02   -0.57903E+00  1416   0.650E+00    0.572E-01
DAV:   2    -0.482909150225E+03   -0.23938E-01   -0.16262E-01  2096   0.177E+00    0.110E+00
DAV:   3    -0.482895966715E+03    0.13184E-01   -0.25811E-02  2216   0.114E+00    0.368E-01
DAV:   4    -0.482895296764E+03    0.66995E-03   -0.43107E-03  1832   0.320E-01    0.225E-01
DAV:   5    -0.482895236552E+03    0.60212E-04   -0.32776E-03  2112   0.492E-01    0.163E-01
DAV:   6    -0.482895117064E+03    0.11949E-03   -0.90045E-04  2176   0.272E-01    0.485E-02
DAV:   7    -0.482895146075E+03   -0.29012E-04   -0.16372E-04  1792   0.822E-02    0.244E-02
DAV:   8    -0.482895153929E+03   -0.78533E-05   -0.55101E-05  1240   0.864E-02
  38 F= -.48289515E+03 E0= -.48287254E+03  d E =-.848364E-02
 trial-energy change:   -0.008484  1 .order   -0.008339   -0.010951   -0.005728
 step:   3.4370(harm=  3.9159)  dis= 0.03032  next Energy=  -482.897646 (dE=-0.110E-01)
 bond charge predicted
       N       E                     dE             d eps       ncg     rms          rms(c)
DAV:   1    -0.482891222889E+03    0.39232E-02   -0.40905E+00  1416   0.546E+00    0.480E-01
DAV:   2    -0.482908100631E+03   -0.16878E-01   -0.11521E-01  2088   0.151E+00    0.928E-01
DAV:   3    -0.482898826938E+03    0.92737E-02   -0.18367E-02  2216   0.965E-01    0.310E-01
DAV:   4    -0.482898383908E+03    0.44303E-03   -0.30512E-03  1840   0.272E-01    0.188E-01
DAV:   5    -0.482898362462E+03    0.21446E-04   -0.23297E-03  2128   0.419E-01    0.137E-01
DAV:   6    -0.482898278708E+03    0.83754E-04   -0.63622E-04  2072   0.229E-01    0.395E-02
DAV:   7    -0.482898304895E+03   -0.26187E-04   -0.12195E-04  1696   0.837E-02    0.231E-02
DAV:   8    -0.482898311193E+03   -0.62971E-05   -0.48304E-05  1232   0.831E-02
  39 F= -.48289831E+03 E0= -.48287563E+03  d E =-.116409E-01
 curvature: -15.18 expect dE=-0.869E-01 dE for cont linesearch -0.192E-03
 trial: gam= 1.14451 g(F)=  0.561E-02 g(S)=  0.111E-03 ort = 0.779E-03 (trialstep = 0.149E+01)
 search vector abs. value=  0.705E-01
 bond charge predicted
       N       E                     dE             d eps       ncg     rms          rms(c)
DAV:   1    -0.482896618150E+03    0.16867E-02   -0.54320E+00  1416   0.627E+00    0.503E-01
DAV:   2    -0.482913941397E+03   -0.17323E-01   -0.14261E-01  2048   0.156E+00    0.817E-01
DAV:   3    -0.482907495868E+03    0.64455E-02   -0.17989E-02  2208   0.953E-01    0.368E-01
DAV:   4    -0.482906638613E+03    0.85725E-03   -0.29602E-03  1760   0.245E-01    0.196E-01
DAV:   5    -0.482906787165E+03   -0.14855E-03   -0.26717E-03  2120   0.457E-01    0.169E-01
DAV:   6    -0.482906617133E+03    0.17003E-03   -0.95541E-04  2168   0.289E-01    0.442E-02
DAV:   7    -0.482906657451E+03   -0.40318E-04   -0.17432E-04  1744   0.103E-01    0.278E-02
DAV:   8    -0.482906657098E+03    0.35295E-06   -0.59361E-05  1264   0.919E-02
  40 F= -.48290666E+03 E0= -.48288382E+03  d E =-.834591E-02
 trial-energy change:   -0.008346  1 .order   -0.008140   -0.009846   -0.006434
 step:   3.0888(harm=  4.2933)  dis= 0.03376  next Energy=  -482.910375 (dE=-0.121E-01)
 bond charge predicted
       N       E                     dE             d eps       ncg     rms          rms(c)
DAV:   1    -0.482900352145E+03    0.63053E-02   -0.62919E+00  1424   0.675E+00    0.544E-01
DAV:   2    -0.482920426464E+03   -0.20074E-01   -0.16485E-01  2048   0.168E+00    0.881E-01
DAV:   3    -0.482912860269E+03    0.75662E-02   -0.21080E-02  2216   0.105E+00    0.394E-01
DAV:   4    -0.482911866415E+03    0.99385E-03   -0.34169E-03  1744   0.259E-01    0.209E-01
DAV:   5    -0.482912056658E+03   -0.19024E-03   -0.31009E-03  2144   0.491E-01    0.185E-01
DAV:   6    -0.482911837033E+03    0.21963E-03   -0.11484E-03  2200   0.318E-01    0.481E-02
DAV:   7    -0.482911880906E+03   -0.43873E-04   -0.19763E-04  1792   0.104E-01    0.285E-02
DAV:   8    -0.482911880670E+03    0.23634E-06   -0.63858E-05  1288   0.946E-02
  41 F= -.48291188E+03 E0= -.48288885E+03  d E =-.135695E-01
 curvature: -18.65 expect dE=-0.868E-01 dE for cont linesearch -0.897E-03
 ZBRENT: increasing intervall
 opt :   6.2905  next Energy=  -482.909828 (dE=-0.115E-01)
 bond charge predicted
       N       E                     dE             d eps       ncg     rms          rms(c)
DAV:   1    -0.482864262687E+03    0.47618E-01   -0.25152E+01  1424   0.135E+01    0.113E+00
DAV:   2    -0.482944745595E+03   -0.80483E-01   -0.66180E-01  2048   0.340E+00    0.170E+00
DAV:   3    -0.482915261169E+03    0.29484E-01   -0.87070E-02  2248   0.227E+00    0.803E-01
DAV:   4    -0.482910517090E+03    0.47441E-02   -0.14207E-02  1768   0.503E-01    0.424E-01
DAV:   5    -0.482911068405E+03   -0.55131E-03   -0.11703E-02  2136   0.942E-01    0.380E-01
DAV:   6    -0.482910114944E+03    0.95346E-03   -0.48837E-03  2232   0.662E-01    0.118E-01
DAV:   7    -0.482910206735E+03   -0.91791E-04   -0.82877E-04  2000   0.185E-01    0.517E-02
DAV:   8    -0.482910217253E+03   -0.10518E-04   -0.25265E-04  1584   0.177E-01    0.330E-02
DAV:   9    -0.482910228455E+03   -0.11202E-04   -0.56580E-05  1344   0.850E-02    0.149E-02
DAV:  10    -0.482910253604E+03   -0.25149E-04   -0.18721E-05  1008   0.235E-02    0.488E-03
DAV:  11    -0.482910264619E+03   -0.11015E-04   -0.76539E-06   992   0.148E-02    0.293E-03
DAV:  12    -0.482910276858E+03   -0.12238E-04   -0.35880E-06   912   0.121E-02    0.187E-03
DAV:  13    -0.482910291580E+03   -0.14722E-04   -0.26254E-06   984   0.929E-03    0.122E-03
DAV:  14    -0.482910301101E+03   -0.95206E-05   -0.27561E-06   992   0.624E-03
  42 F= -.48291030E+03 E0= -.48288682E+03  d E =-.119899E-01
 curvature:  42.69 expect dE= 0.870E+00 dE for cont linesearch  0.568E-02
 ZBRENT: bracketing found
 ZBRENT: interpolating
 opt :   4.2907  next Energy=  -482.912987 (dE=-0.147E-01)
 bond charge predicted
       N       E                     dE             d eps       ncg     rms          rms(c)
DAV:   1    -0.482894813898E+03    0.15478E-01   -0.98104E+00  1432   0.845E+00    0.666E-01
DAV:   2    -0.482927481971E+03   -0.32668E-01   -0.26148E-01  2056   0.216E+00    0.118E+00
DAV:   3    -0.482915035020E+03    0.12447E-01   -0.38435E-02  2200   0.124E+00    0.489E-01
DAV:   4    -0.482913207565E+03    0.18275E-02   -0.49760E-03  1744   0.321E-01    0.249E-01
DAV:   5    -0.482913595051E+03   -0.38749E-03   -0.49490E-03  2160   0.637E-01    0.235E-01
DAV:   6    -0.482913150539E+03    0.44451E-03   -0.20262E-03  2216   0.415E-01    0.499E-02
DAV:   7    -0.482913219280E+03   -0.68741E-04   -0.33233E-04  1976   0.146E-01    0.382E-02
DAV:   8    -0.482913208201E+03    0.11079E-04   -0.10921E-04  1328   0.121E-01    0.190E-02
DAV:   9    -0.482913209444E+03   -0.12432E-05   -0.20156E-05  1128   0.412E-02
  43 F= -.48291321E+03 E0= -.48288999E+03  d E =-.148983E-01
 curvature:  -8.31 expect dE=-0.708E-01 dE for cont linesearch -0.244E-04
 trial: gam= 1.56914 g(F)=  0.848E-02 g(S)=  0.425E-04 ort = 0.455E-03 (trialstep = 0.787E+00)
 search vector abs. value=  0.184E+00
 bond charge predicted
       N       E                     dE             d eps       ncg     rms          rms(c)
DAV:   1    -0.482912122870E+03    0.10853E-02   -0.39935E+00  1440   0.536E+00    0.419E-01
DAV:   2    -0.482923740004E+03   -0.11617E-01   -0.10031E-01  2008   0.128E+00    0.642E-01
DAV:   3    -0.482920012096E+03    0.37279E-02   -0.12437E-02  2192   0.798E-01    0.318E-01
DAV:   4    -0.482919310532E+03    0.70156E-03   -0.19197E-03  1744   0.193E-01    0.156E-01
DAV:   5    -0.482919497402E+03   -0.18687E-03   -0.19100E-03  2152   0.385E-01    0.150E-01
DAV:   6    -0.482919332347E+03    0.16505E-03   -0.79521E-04  2120   0.268E-01    0.375E-02
DAV:   7    -0.482919354686E+03   -0.22339E-04   -0.11250E-04  1736   0.725E-02    0.208E-02
DAV:   8    -0.482919355363E+03   -0.67680E-06   -0.37650E-05  1216   0.718E-02
  44 F= -.48291936E+03 E0= -.48289593E+03  d E =-.614592E-02
 trial-energy change:   -0.006146  1 .order   -0.006245   -0.007265   -0.005226
 step:   2.8045(harm=  2.8045)  dis= 0.05010  next Energy=  -482.926155 (dE=-0.129E-01)
 bond charge predicted
       N       E                     dE             d eps       ncg     rms          rms(c)
DAV:   1    -0.482880504554E+03    0.38850E-01   -0.26283E+01  1432   0.137E+01    0.112E+00
DAV:   2    -0.482957293362E+03   -0.76789E-01   -0.66486E-01  2032   0.331E+00    0.159E+00
DAV:   3    -0.482934309957E+03    0.22983E-01   -0.84070E-02  2224   0.223E+00    0.851E-01
DAV:   4    -0.482928381184E+03    0.59288E-02   -0.13898E-02  1816   0.507E-01    0.415E-01
DAV:   5    -0.482929251376E+03   -0.87019E-03   -0.11728E-02  2160   0.943E-01    0.394E-01
DAV:   6    -0.482928181790E+03    0.10696E-02   -0.54284E-03  2232   0.704E-01    0.122E-01
DAV:   7    -0.482928246588E+03   -0.64798E-04   -0.82788E-04  2096   0.180E-01    0.521E-02
DAV:   8    -0.482928266051E+03   -0.19462E-04   -0.25092E-04  1680   0.169E-01    0.340E-02
DAV:   9    -0.482928271851E+03   -0.58006E-05   -0.73360E-05  1352   0.105E-01
  45 F= -.48292827E+03 E0= -.48290420E+03  d E =-.150624E-01
 curvature: -27.88 expect dE=-0.179E+00 dE for cont linesearch -0.367E-03
 ZBRENT: extrapolating
 opt :   3.4209  next Energy=  -482.928751 (dE=-0.155E-01)
 bond charge predicted
       N       E                     dE             d eps       ncg     rms          rms(c)
DAV:   1    -0.482924578292E+03    0.36878E-02   -0.24604E+00  1440   0.421E+00    0.330E-01
DAV:   2    -0.482931759169E+03   -0.71809E-02   -0.62266E-02  2024   0.101E+00    0.504E-01
DAV:   3    -0.482929444811E+03    0.23144E-02   -0.78826E-03  2200   0.648E-01    0.248E-01
DAV:   4    -0.482929016319E+03    0.42849E-03   -0.11830E-03  1752   0.151E-01    0.122E-01
DAV:   5    -0.482929151619E+03   -0.13530E-03   -0.11954E-03  2144   0.303E-01    0.121E-01
DAV:   6    -0.482929038744E+03    0.11288E-03   -0.52112E-04  1896   0.216E-01    0.286E-02
DAV:   7    -0.482929059875E+03   -0.21132E-04   -0.65396E-05  1456   0.476E-02    0.145E-02
DAV:   8    -0.482929065652E+03   -0.57766E-05   -0.17948E-05  1096   0.472E-02
  46 F= -.48292907E+03 E0= -.48290477E+03  d E =-.158562E-01
 curvature: -36.39 expect dE=-0.296E+00 dE for cont linesearch -0.281E-04
 trial: gam= 0.66072 g(F)=  0.802E-02 g(S)=  0.123E-03 ort = 0.377E-03 (trialstep = 0.131E+01)
 search vector abs. value=  0.888E-01
 bond charge predicted
       N       E                     dE             d eps       ncg     rms          rms(c)
DAV:   1    -0.482927771695E+03    0.12882E-02   -0.53801E+00  1440   0.621E+00    0.479E-01
DAV:   2    -0.482941522727E+03   -0.13751E-01   -0.13733E-01  1984   0.152E+00    0.593E-01
DAV:   3    -0.482939388185E+03    0.21345E-02   -0.16413E-02  2256   0.101E+00    0.411E-01
DAV:   4    -0.482937998101E+03    0.13901E-02   -0.27293E-03  1832   0.239E-01    0.193E-01
DAV:   5    -0.482938074992E+03   -0.76890E-04   -0.23715E-03  2080   0.423E-01    0.157E-01
DAV:   6    -0.482937956905E+03    0.11809E-03   -0.87614E-04  2176   0.259E-01    0.452E-02
DAV:   7    -0.482937977547E+03   -0.20643E-04   -0.15445E-04  1808   0.961E-02    0.260E-02
DAV:   8    -0.482937983406E+03   -0.58582E-05   -0.56227E-05  1296   0.880E-02
  47 F= -.48293798E+03 E0= -.48291359E+03  d E =-.891775E-02
 trial-energy change:   -0.008918  1 .order   -0.008801   -0.011019   -0.006583
 step:   2.7764(harm=  3.2635)  dis= 0.03257  next Energy=  -482.941809 (dE=-0.127E-01)
 bond charge predicted
       N       E                     dE             d eps       ncg     rms          rms(c)
DAV:   1    -0.482930015925E+03    0.79616E-02   -0.66713E+00  1432   0.692E+00    0.536E-01
DAV:   2    -0.482947180712E+03   -0.17165E-01   -0.17073E-01  1976   0.170E+00    0.663E-01
DAV:   3    -0.482944491176E+03    0.26895E-02   -0.20675E-02  2272   0.114E+00    0.457E-01
DAV:   4    -0.482942755663E+03    0.17355E-02   -0.33778E-03  1832   0.265E-01    0.214E-01
DAV:   5    -0.482942854641E+03   -0.98978E-04   -0.29185E-03  2096   0.470E-01    0.176E-01
DAV:   6    -0.482942705081E+03    0.14956E-03   -0.11058E-03  2232   0.292E-01    0.516E-02
DAV:   7    -0.482942728234E+03   -0.23153E-04   -0.19592E-04  1888   0.108E-01    0.293E-02
DAV:   8    -0.482942735592E+03   -0.73580E-05   -0.69453E-05  1312   0.972E-02
  48 F= -.48294274E+03 E0= -.48291821E+03  d E =-.136699E-01
 curvature: -16.19 expect dE=-0.102E+00 dE for cont linesearch -0.302E-03
 ZBRENT: extrapolating
 opt :   3.2821  next Energy=  -482.943061 (dE=-0.140E-01)
 bond charge predicted
       N       E                     dE             d eps       ncg     rms          rms(c)
DAV:   1    -0.482941584570E+03    0.11437E-02   -0.79861E-01  1440   0.240E+00    0.183E-01
DAV:   2    -0.482943657862E+03   -0.20733E-02   -0.20585E-02  1992   0.612E-01    0.230E-01
DAV:   3    -0.482943330973E+03    0.32689E-03   -0.24776E-03  2256   0.401E-01    0.156E-01
DAV:   4    -0.482943139025E+03    0.19195E-03   -0.38572E-04  1816   0.919E-02    0.742E-02
DAV:   5    -0.482943159641E+03   -0.20616E-04   -0.35156E-04  1944   0.169E-01    0.599E-02
DAV:   6    -0.482943147446E+03    0.12195E-04   -0.11586E-04  1432   0.996E-02    0.170E-02
DAV:   7    -0.482943155918E+03   -0.84719E-05   -0.37454E-05  1312   0.535E-02
  49 F= -.48294316E+03 E0= -.48291857E+03  d E =-.140903E-01
 curvature: -17.43 expect dE=-0.152E+00 dE for cont linesearch -0.848E-05
 trial: gam= 1.10186 g(F)=  0.853E-02 g(S)=  0.179E-03 ort = 0.208E-03 (trialstep = 0.130E+01)
 search vector abs. value=  0.117E+00
 bond charge predicted
       N       E                     dE             d eps       ncg     rms          rms(c)
DAV:   1    -0.482939263874E+03    0.38836E-02   -0.69402E+00  1440   0.701E+00    0.484E-01
DAV:   2    -0.482953774405E+03   -0.14511E-01   -0.16715E-01  2008   0.147E+00    0.376E-01
DAV:   3    -0.482954780213E+03   -0.10058E-02   -0.12953E-02  2248   0.957E-01    0.466E-01
DAV:   4    -0.482952776534E+03    0.20037E-02   -0.29629E-03  2120   0.395E-01    0.192E-01
DAV:   5    -0.482953187919E+03   -0.41139E-03   -0.26640E-03  2040   0.407E-01    0.203E-01
DAV:   6    -0.482952823605E+03    0.36431E-03   -0.14687E-03  2232   0.341E-01    0.468E-02
DAV:   7    -0.482952871317E+03   -0.47712E-04   -0.20180E-04  1696   0.123E-01    0.322E-02
DAV:   8    -0.482952865279E+03    0.60377E-05   -0.75202E-05  1280   0.106E-01
  50 F= -.48295287E+03 E0= -.48292783E+03  d E =-.970936E-02
 trial-energy change:   -0.009709  1 .order   -0.009588   -0.011581   -0.007595
 step:   3.0281(harm=  3.7659)  dis= 0.03839  next Energy=  -482.958229 (dE=-0.151E-01)
 bond charge predicted
       N       E                     dE             d eps       ncg     rms          rms(c)
DAV:   1    -0.482936304171E+03    0.16567E-01   -0.12412E+01  1448   0.937E+00    0.653E-01
DAV:   2    -0.482961952726E+03   -0.25649E-01   -0.29505E-01  2000   0.199E+00    0.510E-01
DAV:   3    -0.482963822286E+03   -0.18696E-02   -0.23512E-02  2232   0.131E+00    0.635E-01
DAV:   4    -0.482960031200E+03    0.37911E-02   -0.54016E-03  2128   0.519E-01    0.255E-01
DAV:   5    -0.482960753613E+03   -0.72241E-03   -0.47730E-03  2016   0.567E-01    0.270E-01
DAV:   6    -0.482960115018E+03    0.63859E-03   -0.26433E-03  2224   0.470E-01    0.656E-02
DAV:   7    -0.482960197326E+03   -0.82308E-04   -0.41750E-04  1896   0.183E-01    0.480E-02
DAV:   8    -0.482960180664E+03    0.16662E-04   -0.15914E-04  1440   0.149E-01    0.179E-02
DAV:   9    -0.482960189348E+03   -0.86847E-05   -0.23945E-05  1120   0.343E-02
  51 F= -.48296019E+03 E0= -.48293460E+03  d E =-.170334E-01
 curvature: -22.44 expect dE=-0.143E+00 dE for cont linesearch -0.838E-03
 ZBRENT: increasing intervall
 opt :   6.4921  next Energy=  -482.954370 (dE=-0.112E-01)
 bond charge predicted
       N       E                     dE             d eps       ncg     rms          rms(c)
DAV:   1    -0.482861801115E+03    0.98380E-01   -0.49637E+01  1448   0.187E+01    0.138E+00
DAV:   2    -0.482964409050E+03   -0.10261E+00   -0.11647E+00  2016   0.395E+00    0.106E+00
DAV:   3    -0.482973438585E+03   -0.90295E-02   -0.10027E-01  2248   0.273E+00    0.136E+00
DAV:   4    -0.482955039004E+03    0.18400E-01   -0.24601E-02  2128   0.106E+00    0.518E-01
DAV:   5    -0.482957515167E+03   -0.24762E-02   -0.18161E-02  2064   0.111E+00    0.552E-01
DAV:   6    -0.482954915597E+03    0.25996E-02   -0.10975E-02  2200   0.985E-01    0.156E-01
DAV:   7    -0.482955198771E+03   -0.28317E-03   -0.17816E-03  2080   0.353E-01    0.915E-02
DAV:   8    -0.482955145728E+03    0.53043E-04   -0.65884E-04  1688   0.295E-01    0.377E-02
DAV:   9    -0.482955164185E+03   -0.18457E-04   -0.10343E-04  1600   0.769E-02    0.161E-02
DAV:  10    -0.482955191231E+03   -0.27046E-04   -0.27352E-05  1120   0.175E-02    0.759E-03
DAV:  11    -0.482955202544E+03   -0.11313E-04   -0.56004E-06   992   0.109E-02    0.346E-03
DAV:  12    -0.482955218074E+03   -0.15530E-04   -0.28169E-06   928   0.735E-03    0.197E-03
DAV:  13    -0.482955236649E+03   -0.18575E-04   -0.24672E-06   960   0.690E-03    0.118E-03
DAV:  14    -0.482955244155E+03   -0.75058E-05   -0.15985E-06   992   0.629E-03
  52 F= -.48295524E+03 E0= -.48292854E+03  d E =-.120882E-01
 curvature: 155.74 expect dE= 0.479E+01 dE for cont linesearch  0.375E-01
 ZBRENT: bracketing found
 ZBRENT: interpolating
 opt :   4.0067  next Energy=  -482.961212 (dE=-0.181E-01)
 bond charge predicted
       N       E                     dE             d eps       ncg     rms          rms(c)
DAV:   1    -0.482908536276E+03    0.46700E-01   -0.25508E+01  1440   0.135E+01    0.961E-01
DAV:   2    -0.482966318573E+03   -0.57782E-01   -0.64879E-01  1960   0.299E+00    0.797E-01
DAV:   3    -0.482969789445E+03   -0.34709E-02   -0.56305E-02  2248   0.194E+00    0.916E-01
DAV:   4    -0.482961478053E+03    0.83114E-02   -0.10271E-02  2128   0.756E-01    0.393E-01
DAV:   5    -0.482962532244E+03   -0.10542E-02   -0.99145E-03  2112   0.823E-01    0.390E-01
DAV:   6    -0.482961332826E+03    0.11994E-02   -0.49473E-03  2224   0.598E-01    0.952E-02
DAV:   7    -0.482961534489E+03   -0.20166E-03   -0.10778E-03  2120   0.300E-01    0.753E-02
DAV:   8    -0.482961479493E+03    0.54996E-04   -0.36180E-04  1584   0.221E-01    0.263E-02
DAV:   9    -0.482961484375E+03   -0.48815E-05   -0.58636E-05  1432   0.425E-02
  53 F= -.48296148E+03 E0= -.48293555E+03  d E =-.183285E-01
 curvature:  -4.24 expect dE=-0.437E-01 dE for cont linesearch -0.685E-05
 trial: gam= 1.18165 g(F)=  0.995E-02 g(S)=  0.342E-03 ort = 0.434E-03 (trialstep = 0.123E+01)
 search vector abs. value=  0.175E+00
 bond charge predicted
       N       E                     dE             d eps       ncg     rms          rms(c)
DAV:   1    -0.482954711777E+03    0.67677E-02   -0.94731E+00  1448   0.814E+00    0.532E-01
DAV:   2    -0.482972713148E+03   -0.18001E-01   -0.21475E-01  2000   0.167E+00    0.352E-01
DAV:   3    -0.482972697482E+03    0.15666E-04   -0.10304E-02  2208   0.755E-01    0.319E-01
DAV:   4    -0.482972747742E+03   -0.50260E-04   -0.37717E-03  2240   0.626E-01    0.284E-01
DAV:   5    -0.482972559262E+03    0.18848E-03   -0.18678E-03  1976   0.284E-01    0.195E-01
DAV:   6    -0.482972205334E+03    0.35393E-03   -0.16519E-03  2096   0.421E-01    0.627E-02
DAV:   7    -0.482972253507E+03   -0.48172E-04   -0.32784E-04  1784   0.137E-01    0.472E-02
DAV:   8    -0.482972229252E+03    0.24254E-04   -0.11879E-04  1424   0.113E-01    0.161E-02
DAV:   9    -0.482972231508E+03   -0.22559E-05   -0.15725E-05  1072   0.262E-02
  54 F= -.48297223E+03 E0= -.48294605E+03  d E =-.107471E-01
 trial-energy change:   -0.010747  1 .order   -0.010652   -0.013306   -0.007997
 step:   2.7281(harm=  3.0855)  dis= 0.04377  next Energy=  -482.977265 (dE=-0.158E-01)
 bond charge predicted
       N       E                     dE             d eps       ncg     rms          rms(c)
DAV:   1    -0.482952961788E+03    0.19267E-01   -0.14024E+01  1448   0.990E+00    0.654E-01
DAV:   2    -0.482979690842E+03   -0.26729E-01   -0.31802E-01  1984   0.203E+00    0.431E-01
DAV:   3    -0.482980001502E+03   -0.31066E-03   -0.16328E-02  2216   0.969E-01    0.426E-01
DAV:   4    -0.482979452125E+03    0.54938E-03   -0.52862E-03  2232   0.714E-01    0.320E-01
DAV:   5    -0.482979449557E+03    0.25681E-05   -0.28856E-03  1936   0.366E-01    0.243E-01
DAV:   6    -0.482978910343E+03    0.53921E-03   -0.25760E-03  2128   0.517E-01    0.793E-02
DAV:   7    -0.482978984182E+03   -0.73839E-04   -0.50121E-04  2008   0.177E-01    0.578E-02
DAV:   8    -0.482978949974E+03    0.34207E-04   -0.18412E-04  1544   0.142E-01    0.197E-02
DAV:   9    -0.482978957683E+03   -0.77081E-05   -0.23491E-05  1056   0.309E-02
  55 F= -.48297896E+03 E0= -.48295249E+03  d E =-.174733E-01
 curvature: -23.99 expect dE=-0.170E+00 dE for cont linesearch -0.431E-03
 ZBRENT: extrapolating
 opt :   3.2892  next Energy=  -482.979454 (dE=-0.180E-01)
 bond charge predicted
       N       E                     dE             d eps       ncg     rms          rms(c)
DAV:   1    -0.482975923750E+03    0.30262E-02   -0.19718E+00  1448   0.372E+00    0.240E-01
DAV:   2    -0.482979780692E+03   -0.38569E-02   -0.45910E-02  1984   0.767E-01    0.161E-01
DAV:   3    -0.482979804295E+03   -0.23603E-04   -0.22126E-03  2224   0.350E-01    0.152E-01
DAV:   4    -0.482979772197E+03    0.32098E-04   -0.73219E-04  2200   0.268E-01    0.124E-01
DAV:   5    -0.482979755354E+03    0.16843E-04   -0.41014E-04  1968   0.146E-01    0.839E-02
DAV:   6    -0.482979692516E+03    0.62838E-04   -0.34930E-04  1624   0.207E-01    0.277E-02
DAV:   7    -0.482979706318E+03   -0.13802E-04   -0.66044E-05  1336   0.657E-02    0.204E-02
DAV:   8    -0.482979703398E+03    0.29198E-05   -0.23438E-05  1112   0.497E-02
  56 F= -.48297970E+03 E0= -.48295314E+03  d E =-.182190E-01
 curvature: -27.65 expect dE=-0.270E+00 dE for cont linesearch -0.497E-04
 trial: gam= 0.90430 g(F)=  0.960E-02 g(S)=  0.150E-03 ort = 0.560E-03 (trialstep = 0.164E+01)
 search vector abs. value=  0.154E+00
 bond charge predicted
       N       E                     dE             d eps       ncg     rms          rms(c)
DAV:   1    -0.482964902828E+03    0.14803E-01   -0.14852E+01  1448   0.102E+01    0.699E-01
DAV:   2    -0.482994807983E+03   -0.29905E-01   -0.35211E-01  1976   0.210E+00    0.504E-01
DAV:   3    -0.482997147328E+03   -0.23393E-02   -0.21394E-02  2240   0.113E+00    0.654E-01
DAV:   4    -0.482992945977E+03    0.42014E-02   -0.60342E-03  2176   0.584E-01    0.262E-01
DAV:   5    -0.482993502889E+03   -0.55691E-03   -0.40070E-03  2032   0.565E-01    0.223E-01
DAV:   6    -0.482993065980E+03    0.43691E-03   -0.29466E-03  2152   0.602E-01    0.825E-02
DAV:   7    -0.482993120897E+03   -0.54917E-04   -0.45287E-04  1904   0.183E-01    0.521E-02
DAV:   8    -0.482993103096E+03    0.17801E-04   -0.17796E-04  1576   0.132E-01    0.219E-02
DAV:   9    -0.482993111904E+03   -0.88076E-05   -0.24926E-05  1096   0.401E-02
  57 F= -.48299311E+03 E0= -.48296588E+03  d E =-.134085E-01
 trial-energy change:   -0.013409  1 .order   -0.013245   -0.016851   -0.009639
 step:   3.3603(harm=  3.8383)  dis= 0.04845  next Energy=  -482.998338 (dE=-0.186E-01)
 bond charge predicted
       N       E                     dE             d eps       ncg     rms          rms(c)
DAV:   1    -0.482969180802E+03    0.23922E-01   -0.16242E+01  1448   0.107E+01    0.736E-01
DAV:   2    -0.483002110252E+03   -0.32929E-01   -0.38776E-01  1960   0.220E+00    0.529E-01
DAV:   3    -0.483004684410E+03   -0.25742E-02   -0.23578E-02  2248   0.118E+00    0.686E-01
DAV:   4    -0.483000025325E+03    0.46591E-02   -0.66171E-03  2160   0.611E-01    0.276E-01
DAV:   5    -0.483000626345E+03   -0.60102E-03   -0.43624E-03  2008   0.585E-01    0.236E-01
DAV:   6    -0.483000143998E+03    0.48235E-03   -0.32760E-03  2144   0.631E-01    0.898E-02
DAV:   7    -0.483000200039E+03   -0.56041E-04   -0.52517E-04  2040   0.197E-01    0.547E-02
DAV:   8    -0.483000182125E+03    0.17914E-04   -0.19150E-04  1568   0.136E-01    0.234E-02
DAV:   9    -0.483000194932E+03   -0.12806E-04   -0.31444E-05  1136   0.475E-02    0.118E-02
DAV:  10    -0.483000204354E+03   -0.94222E-05   -0.11025E-05   976   0.255E-02
  58 F= -.48300020E+03 E0= -.48297230E+03  d E =-.205010E-01
 curvature: -27.36 expect dE=-0.239E+00 dE for cont linesearch -0.502E-03
 trial: gam= 0.71829 g(F)=  0.785E-02 g(S)=  0.896E-03 ort = 0.168E-02 (trialstep = 0.199E+01)
 search vector abs. value=  0.904E-01
 bond charge predicted
       N       E                     dE             d eps       ncg     rms          rms(c)
DAV:   1    -0.482990160516E+03    0.10034E-01   -0.12769E+01  1424   0.953E+00    0.829E-01
DAV:   2    -0.483034596258E+03   -0.44436E-01   -0.38289E-01  2008   0.264E+00    0.125E+00
DAV:   3    -0.483018598409E+03    0.15998E-01   -0.53486E-02  2248   0.189E+00    0.597E-01
DAV:   4    -0.483015984989E+03    0.26134E-02   -0.95126E-03  1808   0.479E-01    0.347E-01
DAV:   5    -0.483015452516E+03    0.53247E-03   -0.65783E-03  2160   0.711E-01    0.223E-01
DAV:   6    -0.483015220923E+03    0.23159E-03   -0.16324E-03  2104   0.318E-01    0.600E-02
DAV:   7    -0.483015302645E+03   -0.81722E-04   -0.38327E-04  2008   0.163E-01    0.403E-02
DAV:   8    -0.483015297616E+03    0.50291E-05   -0.13237E-04  1384   0.132E-01    0.211E-02
DAV:   9    -0.483015308456E+03   -0.10840E-04   -0.21736E-05  1128   0.468E-02    0.867E-03
DAV:  10    -0.483015325035E+03   -0.16578E-04   -0.15323E-05  1048   0.131E-02    0.332E-03
DAV:  11    -0.483015331065E+03   -0.60299E-05   -0.33337E-06   992   0.987E-03
  59 F= -.48301533E+03 E0= -.48298658E+03  d E =-.151267E-01
 trial-energy change:   -0.015127  1 .order   -0.014757   -0.019765   -0.009749
 step:   3.3891(harm=  3.9193)  dis= 0.03668  next Energy=  -483.018904 (dE=-0.187E-01)
 bond charge predicted
       N       E                     dE             d eps       ncg     rms          rms(c)
DAV:   1    -0.483007198630E+03    0.81264E-02   -0.63705E+00  1432   0.674E+00    0.581E-01
DAV:   2    -0.483029302193E+03   -0.22104E-01   -0.19118E-01  2008   0.187E+00    0.891E-01
DAV:   3    -0.483021316901E+03    0.79853E-02   -0.26820E-02  2272   0.131E+00    0.420E-01
DAV:   4    -0.483020075946E+03    0.12410E-02   -0.46330E-03  1800   0.337E-01    0.244E-01
DAV:   5    -0.483019846110E+03    0.22984E-03   -0.33188E-03  2144   0.505E-01    0.158E-01
DAV:   6    -0.483019739536E+03    0.10657E-03   -0.81151E-04  2112   0.225E-01    0.407E-02
DAV:   7    -0.483019783096E+03   -0.43560E-04   -0.18978E-04  1688   0.122E-01    0.299E-02
DAV:   8    -0.483019779813E+03    0.32833E-05   -0.72797E-05  1344   0.101E-01
  60 F= -.48301978E+03 E0= -.48299042E+03  d E =-.195755E-01
 curvature: -16.46 expect dE=-0.139E+00 dE for cont linesearch -0.298E-03
 trial: gam= 1.07075 g(F)=  0.833E-02 g(S)=  0.116E-03 ort = 0.128E-02 (trialstep = 0.178E+01)
 search vector abs. value=  0.115E+00
 bond charge predicted
       N       E                     dE             d eps       ncg     rms          rms(c)
DAV:   1    -0.483006221271E+03    0.13562E-01   -0.13324E+01  1448   0.966E+00    0.762E-01
DAV:   2    -0.483041271181E+03   -0.35050E-01   -0.36754E-01  1960   0.231E+00    0.869E-01
DAV:   3    -0.483037676329E+03    0.35949E-02   -0.41472E-02  2240   0.162E+00    0.664E-01
DAV:   4    -0.483033461842E+03    0.42145E-02   -0.67654E-03  1888   0.434E-01    0.308E-01
DAV:   5    -0.483033469639E+03   -0.77968E-05   -0.54210E-03  2088   0.631E-01    0.246E-01
DAV:   6    -0.483033203234E+03    0.26640E-03   -0.25213E-03  2184   0.432E-01    0.952E-02
DAV:   7    -0.483033180763E+03    0.22472E-04   -0.46373E-04  2048   0.152E-01    0.411E-02
DAV:   8    -0.483033211571E+03   -0.30809E-04   -0.89407E-05  1712   0.482E-02    0.169E-02
DAV:   9    -0.483033222963E+03   -0.11392E-04   -0.19359E-05  1048   0.460E-02    0.117E-02
DAV:  10    -0.483033228297E+03   -0.53335E-05   -0.14389E-05  1096   0.484E-02
  61 F= -.48303323E+03 E0= -.48300322E+03  d E =-.134485E-01
 trial-energy change:   -0.013448  1 .order   -0.013103   -0.017508   -0.008699
 step:   3.0426(harm=  3.5467)  dis= 0.03650  next Energy=  -483.036415 (dE=-0.166E-01)
 bond charge predicted
       N       E                     dE             d eps       ncg     rms          rms(c)
DAV:   1    -0.483023995754E+03    0.92272E-02   -0.66202E+00  1440   0.681E+00    0.532E-01
DAV:   2    -0.483041466929E+03   -0.17471E-01   -0.18426E-01  1976   0.164E+00    0.613E-01
DAV:   3    -0.483039634650E+03    0.18323E-02   -0.20767E-02  2224   0.114E+00    0.464E-01
DAV:   4    -0.483037612094E+03    0.20226E-02   -0.32862E-03  1888   0.305E-01    0.217E-01
DAV:   5    -0.483037634545E+03   -0.22451E-04   -0.27101E-03  2088   0.448E-01    0.172E-01
DAV:   6    -0.483037508399E+03    0.12615E-03   -0.12343E-03  2192   0.301E-01    0.651E-02
DAV:   7    -0.483037500939E+03    0.74602E-05   -0.22542E-04  1920   0.106E-01    0.285E-02
DAV:   8    -0.483037517294E+03   -0.16355E-04   -0.39667E-05  1264   0.370E-02    0.119E-02
DAV:   9    -0.483037524779E+03   -0.74852E-05   -0.15810E-05  1080   0.448E-02
  62 F= -.48303752E+03 E0= -.48300704E+03  d E =-.177450E-01
 curvature: -19.05 expect dE=-0.121E+00 dE for cont linesearch -0.387E-03
 ZBRENT: extrapolating
 opt :   3.6165  next Energy=  -483.037963 (dE=-0.182E-01)
 bond charge predicted
       N       E                     dE             d eps       ncg     rms          rms(c)
DAV:   1    -0.483035273512E+03    0.22438E-02   -0.13790E+00  1456   0.311E+00    0.240E-01
DAV:   2    -0.483038881449E+03   -0.36079E-02   -0.38290E-02  1976   0.760E-01    0.280E-01
DAV:   3    -0.483038477185E+03    0.40426E-03   -0.42628E-03  2224   0.521E-01    0.208E-01
DAV:   4    -0.483038089888E+03    0.38730E-03   -0.65157E-04  1872   0.132E-01    0.992E-02
DAV:   5    -0.483038105791E+03   -0.15904E-04   -0.57269E-04  2024   0.209E-01    0.780E-02
DAV:   6    -0.483038082940E+03    0.22852E-04   -0.25303E-04  2016   0.136E-01    0.280E-02
DAV:   7    -0.483038084318E+03   -0.13783E-05   -0.36644E-05  1192   0.428E-02
  63 F= -.48303808E+03 E0= -.48300736E+03  d E =-.183045E-01
 curvature: -21.57 expect dE=-0.198E+00 dE for cont linesearch -0.777E-05
 trial: gam= 1.24074 g(F)=  0.865E-02 g(S)=  0.543E-03 ort = 0.203E-03 (trialstep = 0.132E+01)
 search vector abs. value=  0.186E+00
 bond charge predicted
       N       E                     dE             d eps       ncg     rms          rms(c)
DAV:   1    -0.483024060932E+03    0.14022E-01   -0.12056E+01  1464   0.912E+00    0.626E-01
DAV:   2    -0.483050915821E+03   -0.26855E-01   -0.29793E-01  1960   0.189E+00    0.563E-01
DAV:   3    -0.483051594753E+03   -0.67893E-03   -0.18887E-02  2152   0.917E-01    0.603E-01
DAV:   4    -0.483047754941E+03    0.38398E-02   -0.48115E-03  2032   0.428E-01    0.222E-01
DAV:   5    -0.483048043402E+03   -0.28846E-03   -0.25393E-03  2000   0.368E-01    0.138E-01
DAV:   6    -0.483048011269E+03    0.32133E-04   -0.18028E-03  2152   0.481E-01    0.883E-02
DAV:   7    -0.483047988171E+03    0.23098E-04   -0.36702E-04  1696   0.226E-01    0.316E-02
DAV:   8    -0.483047994363E+03   -0.61920E-05   -0.75228E-05  1256   0.798E-02
  64 F= -.48304799E+03 E0= -.48301666E+03  d E =-.991005E-02
 trial-energy change:   -0.009910  1 .order   -0.009873   -0.012512   -0.007234
 step:   3.1402(harm=  3.1402)  dis= 0.04355  next Energy=  -483.052916 (dE=-0.148E-01)
 bond charge predicted
       N       E                     dE             d eps       ncg     rms          rms(c)
DAV:   1    -0.483009185479E+03    0.38803E-01   -0.22664E+01  1464   0.125E+01    0.880E-01
DAV:   2    -0.483058624499E+03   -0.49439E-01   -0.54842E-01  1960   0.261E+00    0.781E-01
DAV:   3    -0.483060282946E+03   -0.16584E-02   -0.36101E-02  2184   0.130E+00    0.849E-01
DAV:   4    -0.483052547930E+03    0.77350E-02   -0.95615E-03  2040   0.571E-01    0.314E-01
DAV:   5    -0.483053194333E+03   -0.64640E-03   -0.56529E-03  2048   0.662E-01    0.239E-01
DAV:   6    -0.483052860852E+03    0.33348E-03   -0.42218E-03  2176   0.751E-01    0.119E-01
DAV:   7    -0.483052883376E+03   -0.22523E-04   -0.69541E-04  2128   0.269E-01    0.519E-02
DAV:   8    -0.483052882487E+03    0.88870E-06   -0.19700E-04  1592   0.127E-01    0.316E-02
DAV:   9    -0.483052891106E+03   -0.86196E-05   -0.51677E-05  1224   0.669E-02
  65 F= -.48305289E+03 E0= -.48302065E+03  d E =-.148068E-01
 curvature: -30.98 expect dE=-0.243E+00 dE for cont linesearch -0.765E-04
 trial: gam= 0.66680 g(F)=  0.778E-02 g(S)=  0.692E-04 ort =-0.679E-03 (trialstep = 0.169E+01)
 search vector abs. value=  0.898E-01
 bond charge predicted
       N       E                     dE             d eps       ncg     rms          rms(c)
DAV:   1    -0.483044880820E+03    0.80017E-02   -0.93888E+00  1472   0.806E+00    0.512E-01
DAV:   2    -0.483063610006E+03   -0.18729E-01   -0.21579E-01  1960   0.169E+00    0.372E-01
DAV:   3    -0.483064195411E+03   -0.58541E-03   -0.85011E-03  2056   0.463E-01    0.417E-01
DAV:   4    -0.483062767299E+03    0.14281E-02   -0.31326E-03  2024   0.320E-01    0.227E-01
DAV:   5    -0.483062882980E+03   -0.11568E-03   -0.20586E-03  2216   0.375E-01    0.170E-01
DAV:   6    -0.483062704318E+03    0.17866E-03   -0.16316E-03  2072   0.382E-01    0.726E-02
DAV:   7    -0.483062724458E+03   -0.20139E-04   -0.31872E-04  1952   0.166E-01    0.353E-02
DAV:   8    -0.483062723017E+03    0.14402E-05   -0.73999E-05  1408   0.758E-02
  66 F= -.48306272E+03 E0= -.48302987E+03  d E =-.983191E-02
 trial-energy change:   -0.009832  1 .order   -0.009468   -0.012476   -0.006459
 step:   2.8157(harm=  3.4996)  dis= 0.02526  next Energy=  -483.064991 (dE=-0.121E-01)
 bond charge predicted
[...]
 bond charge predicted
       N       E                     dE             d eps       ncg     rms          rms(c)
DAV:   1    -0.483133190978E+03    0.15969E-02   -0.24640E+00  1448   0.420E+00    0.271E-01
DAV:   2    -0.483138205573E+03   -0.50146E-02   -0.55864E-02  2016   0.843E-01    0.246E-01
DAV:   3    -0.483138335334E+03   -0.12976E-03   -0.31851E-03  1968   0.251E-01    0.259E-01
DAV:   4    -0.483137717926E+03    0.61741E-03   -0.95208E-04  1976   0.180E-01    0.121E-01
DAV:   5    -0.483137825841E+03   -0.10792E-03   -0.99846E-04  2176   0.304E-01    0.125E-01
DAV:   6    -0.483137683362E+03    0.14248E-03   -0.68724E-04  1992   0.253E-01    0.318E-02
DAV:   7    -0.483137699551E+03   -0.16189E-04   -0.97029E-05  1456   0.623E-02    0.184E-02
DAV:   8    -0.483137697974E+03    0.15773E-05   -0.27537E-05  1080   0.478E-02
  90 F= -.48313770E+03 E0= -.48309812E+03  d E =-.290498E-02
 trial-energy change:   -0.002905  1 .order   -0.002963   -0.004611   -0.001315
 step:   3.5533(harm=  3.3760)  dis= 0.00917  next Energy=  -483.138002 (dE=-0.321E-02)
 bond charge predicted
       N       E                     dE             d eps       ncg     rms          rms(c)
DAV:   1    -0.483136952045E+03    0.74751E-03   -0.55027E-01  1448   0.199E+00    0.129E-01
DAV:   2    -0.483138094087E+03   -0.11420E-02   -0.12579E-02  2016   0.390E-01    0.116E-01
DAV:   3    -0.483138133612E+03   -0.39525E-04   -0.74709E-04  2024   0.125E-01    0.127E-01
DAV:   4    -0.483137980135E+03    0.15348E-03   -0.21744E-04  1768   0.865E-02    0.543E-02
DAV:   5    -0.483138008155E+03   -0.28020E-04   -0.19309E-04  1736   0.145E-01    0.531E-02
DAV:   6    -0.483137982702E+03    0.25453E-04   -0.13391E-04  1488   0.130E-01    0.155E-02
DAV:   7    -0.483137986452E+03   -0.37497E-05   -0.21963E-05  1080   0.351E-02
  91 F= -.48313799E+03 E0= -.48309832E+03  d E =-.319346E-02
 curvature: -10.16 expect dE=-0.184E-01 dE for cont linesearch -0.228E-06
 trial: gam= 1.12133 g(F)=  0.177E-02 g(S)=  0.489E-04 ort = 0.163E-04 (trialstep = 0.187E+01)
 search vector abs. value=  0.168E-01
 bond charge predicted
       N       E                     dE             d eps       ncg     rms          rms(c)
DAV:   1    -0.483136410496E+03    0.15722E-02   -0.21072E+00  1448   0.385E+00    0.244E-01
DAV:   2    -0.483140388485E+03   -0.39780E-02   -0.46223E-02  2000   0.814E-01    0.177E-01
DAV:   3    -0.483140334375E+03    0.54110E-04   -0.23922E-03  2168   0.375E-01    0.147E-01
DAV:   4    -0.483140296903E+03    0.37473E-04   -0.86606E-04  2136   0.262E-01    0.123E-01
DAV:   5    -0.483140400855E+03   -0.10395E-03   -0.39827E-04  2040   0.133E-01    0.136E-01
DAV:   6    -0.483140197991E+03    0.20286E-03   -0.43718E-04  1848   0.219E-01    0.404E-02
DAV:   7    -0.483140215017E+03   -0.17026E-04   -0.13059E-04  1520   0.856E-02    0.249E-02
DAV:   8    -0.483140209750E+03    0.52667E-05   -0.50881E-05  1184   0.647E-02
  92 F= -.48314021E+03 E0= -.48310027E+03  d E =-.222330E-02
 trial-energy change:   -0.002223  1 .order   -0.002326   -0.003427   -0.001225
 step:   2.9090(harm=  2.9090)  dis= 0.00954  next Energy=  -483.140653 (dE=-0.267E-02)
 bond charge predicted
       N       E                     dE             d eps       ncg     rms          rms(c)
DAV:   1    -0.483139321119E+03    0.89390E-03   -0.65181E-01  1448   0.214E+00    0.136E-01
DAV:   2    -0.483140574635E+03   -0.12535E-02   -0.14495E-02  2008   0.433E-01    0.949E-02
DAV:   3    -0.483140562249E+03    0.12386E-04   -0.61213E-04  2136   0.144E-01    0.798E-02
DAV:   4    -0.483140579671E+03   -0.17422E-04   -0.22777E-04  1704   0.105E-01    0.829E-02
DAV:   5    -0.483140564004E+03    0.15667E-04   -0.15862E-04  1520   0.836E-02    0.634E-02
DAV:   6    -0.483140524888E+03    0.39116E-04   -0.18577E-04  1376   0.125E-01    0.215E-02
DAV:   7    -0.483140530910E+03   -0.60222E-05   -0.39099E-05  1200   0.433E-02
  93 F= -.48314053E+03 E0= -.48310044E+03  d E =-.254446E-02
 curvature: -13.34 expect dE=-0.197E-01 dE for cont linesearch -0.705E-05
 trial: gam= 0.71417 g(F)=  0.145E-02 g(S)=  0.288E-04 ort = 0.943E-04 (trialstep = 0.208E+01)
 search vector abs. value=  0.102E-01
 bond charge predicted
       N       E                     dE             d eps       ncg     rms          rms(c)
DAV:   1    -0.483139598212E+03    0.92668E-03   -0.15796E+00  1448   0.331E+00    0.217E-01
DAV:   2    -0.483142785802E+03   -0.31876E-02   -0.37542E-02  2016   0.682E-01    0.144E-01
DAV:   3    -0.483142682718E+03    0.10308E-03   -0.12678E-03  2064   0.136E-01    0.921E-02
DAV:   4    -0.483142709125E+03   -0.26407E-04   -0.28945E-04  2056   0.105E-01    0.736E-02
DAV:   5    -0.483142737615E+03   -0.28490E-04   -0.25087E-04  1920   0.995E-02    0.844E-02
DAV:   6    -0.483142681709E+03    0.55906E-04   -0.15876E-04  1456   0.764E-02    0.353E-02
DAV:   7    -0.483142676793E+03    0.49166E-05   -0.62191E-05  1272   0.907E-02
  94 F= -.48314268E+03 E0= -.48310224E+03  d E =-.214588E-02
 trial-energy change:   -0.002146  1 .order   -0.002283   -0.003212   -0.001354
 step:   3.5915(harm=  3.5915)  dis= 0.00933  next Energy=  -483.143307 (dE=-0.278E-02)
 bond charge predicted
       N       E                     dE             d eps       ncg     rms          rms(c)
DAV:   1    -0.483141505028E+03    0.11767E-02   -0.83996E-01  1448   0.241E+00    0.158E-01
DAV:   2    -0.483143108914E+03   -0.16039E-02   -0.18907E-02  2024   0.484E-01    0.105E-01
DAV:   3    -0.483143071030E+03    0.37884E-04   -0.74598E-04  2136   0.172E-01    0.732E-02
DAV:   4    -0.483143117175E+03   -0.46145E-04   -0.37772E-04  1784   0.227E-01    0.835E-02
DAV:   5    -0.483143100961E+03    0.16214E-04   -0.18468E-04  1832   0.119E-01    0.691E-02
DAV:   6    -0.483143060167E+03    0.40794E-04   -0.15152E-04  1312   0.100E-01    0.253E-02
DAV:   7    -0.483143061047E+03   -0.88014E-06   -0.36716E-05  1120   0.558E-02
  95 F= -.48314306E+03 E0= -.48310236E+03  d E =-.253014E-02
 curvature: -11.83 expect dE=-0.176E-01 dE for cont linesearch -0.132E-10
 trial: gam= 1.06337 g(F)=  0.147E-02 g(S)=  0.151E-04 ort =-0.107E-06 (trialstep = 0.186E+01)
 search vector abs. value=  0.130E-01
 bond charge predicted
       N       E                     dE             d eps       ncg     rms          rms(c)
DAV:   1    -0.483141721818E+03    0.13383E-02   -0.16135E+00  1448   0.332E+00    0.222E-01
DAV:   2    -0.483145001483E+03   -0.32797E-02   -0.38158E-02  2024   0.639E-01    0.150E-01
DAV:   3    -0.483145063347E+03   -0.61864E-04   -0.21512E-03  2096   0.292E-01    0.158E-01
DAV:   4    -0.483144952490E+03    0.11086E-03   -0.78993E-04  2056   0.193E-01    0.113E-01
DAV:   5    -0.483144961185E+03   -0.86946E-05   -0.33542E-04  1920   0.117E-01    0.945E-02
DAV:   6    -0.483144893081E+03    0.68103E-04   -0.36310E-04  1672   0.166E-01    0.414E-02
DAV:   7    -0.483144894358E+03   -0.12765E-05   -0.93720E-05  1432   0.781E-02
  96 F= -.48314489E+03 E0= -.48310399E+03  d E =-.183331E-02
 trial-energy change:   -0.001833  1 .order   -0.001955   -0.002767   -0.001144
 step:   3.1794(harm=  3.1794)  dis= 0.00969  next Energy=  -483.145419 (dE=-0.236E-02)
 bond charge predicted
       N       E                     dE             d eps       ncg     rms          rms(c)
DAV:   1    -0.483143523333E+03    0.13697E-02   -0.80013E-01  1448   0.234E+00    0.158E-01
DAV:   2    -0.483145260786E+03   -0.17375E-02   -0.19995E-02  2048   0.469E-01    0.107E-01
DAV:   3    -0.483145311658E+03   -0.50872E-04   -0.11280E-03  2088   0.219E-01    0.119E-01
DAV:   4    -0.483145230788E+03    0.80870E-04   -0.37925E-04  1720   0.140E-01    0.776E-02
DAV:   5    -0.483145246333E+03   -0.15545E-04   -0.18489E-04  1728   0.818E-02    0.688E-02
DAV:   6    -0.483145209972E+03    0.36361E-04   -0.17010E-04  1368   0.115E-01    0.293E-02
DAV:   7    -0.483145212266E+03   -0.22941E-05   -0.47297E-05  1240   0.568E-02
  97 F= -.48314521E+03 E0= -.48310417E+03  d E =-.215122E-02
 curvature: -13.93 expect dE=-0.203E-01 dE for cont linesearch -0.282E-05
 trial: gam= 0.92241 g(F)=  0.142E-02 g(S)=  0.370E-04 ort = 0.513E-04 (trialstep = 0.213E+01)
 search vector abs. value=  0.126E-01
 bond charge predicted
       N       E                     dE             d eps       ncg     rms          rms(c)
DAV:   1    -0.483143617917E+03    0.15921E-02   -0.20478E+00  1448   0.373E+00    0.247E-01
DAV:   2    -0.483147357771E+03   -0.37399E-02   -0.42882E-02  2000   0.724E-01    0.187E-01
DAV:   3    -0.483147557857E+03   -0.20009E-03   -0.25187E-03  2128   0.309E-01    0.214E-01
DAV:   4    -0.483147214000E+03    0.34386E-03   -0.67067E-04  1960   0.159E-01    0.124E-01
DAV:   5    -0.483147223097E+03   -0.90968E-05   -0.76135E-04  2008   0.233E-01    0.968E-02
DAV:   6    -0.483147159807E+03    0.63290E-04   -0.66519E-04  2040   0.237E-01    0.449E-02
DAV:   7    -0.483147158343E+03    0.14637E-05   -0.14017E-04  1368   0.961E-02    0.206E-02
DAV:   8    -0.483147158958E+03   -0.61469E-06   -0.34876E-05  1160   0.552E-02
  98 F= -.48314716E+03 E0= -.48310580E+03  d E =-.194669E-02
 trial-energy change:   -0.001947  1 .order   -0.002106   -0.003207   -0.001005
 step:   3.0995(harm=  3.0995)  dis= 0.00905  next Energy=  -483.147548 (dE=-0.234E-02)
 bond charge predicted
       N       E                     dE             d eps       ncg     rms          rms(c)
DAV:   1    -0.483146636218E+03    0.52213E-03   -0.42758E-01  1448   0.170E+00    0.113E-01
DAV:   2    -0.483147415810E+03   -0.77959E-03   -0.89016E-03  2016   0.323E-01    0.836E-02
DAV:   3    -0.483147448737E+03   -0.32927E-04   -0.50203E-04  2064   0.121E-01    0.913E-02
DAV:   4    -0.483147396874E+03    0.51863E-04   -0.13887E-04  1312   0.560E-02    0.590E-02
DAV:   5    -0.483147399543E+03   -0.26692E-05   -0.12662E-04  1296   0.115E-01    0.507E-02
DAV:   6    -0.483147380749E+03    0.18794E-04   -0.11053E-04  1320   0.108E-01    0.192E-02
DAV:   7    -0.483147382972E+03   -0.22225E-05   -0.33921E-05  1064   0.462E-02
  99 F= -.48314738E+03 E0= -.48310586E+03  d E =-.217071E-02
 curvature: -12.98 expect dE=-0.146E-01 dE for cont linesearch -0.332E-04
 trial: gam= 0.67561 g(F)=  0.109E-02 g(S)=  0.324E-04 ort = 0.180E-03 (trialstep = 0.232E+01)
 search vector abs. value=  0.713E-02
 bond charge predicted
       N       E                     dE             d eps       ncg     rms          rms(c)
DAV:   1    -0.483146422095E+03    0.95865E-03   -0.13902E+00  1432   0.310E+00    0.219E-01
DAV:   2    -0.483149491055E+03   -0.30690E-02   -0.33114E-02  2048   0.636E-01    0.243E-01
DAV:   3    -0.483149417931E+03    0.73124E-04   -0.28141E-03  2032   0.254E-01    0.214E-01
DAV:   4    -0.483148996024E+03    0.42191E-03   -0.63314E-04  2048   0.150E-01    0.961E-02
DAV:   5    -0.483149009803E+03   -0.13779E-04   -0.50792E-04  1992   0.186E-01    0.788E-02
DAV:   6    -0.483149005012E+03    0.47911E-05   -0.51336E-04  2048   0.195E-01    0.512E-02
DAV:   7    -0.483148981091E+03    0.23921E-04   -0.12665E-04  1376   0.958E-02    0.127E-02
DAV:   8    -0.483148985965E+03   -0.48741E-05   -0.17767E-05   984   0.330E-02
 100 F= -.48314899E+03 E0= -.48310722E+03  d E =-.160299E-02
 trial-energy change:   -0.001603  1 .order   -0.001713   -0.002897   -0.000529
 step:   3.1579(harm=  2.8407)  dis= 0.00623  next Energy=  -483.149076 (dE=-0.169E-02)
 bond charge predicted
       N       E                     dE             d eps       ncg     rms          rms(c)
DAV:   1    -0.483148702361E+03    0.27873E-03   -0.18044E-01  1432   0.112E+00    0.795E-02
DAV:   2    -0.483149120466E+03   -0.41810E-03   -0.44655E-03  2056   0.236E-01    0.877E-02
DAV:   3    -0.483149110604E+03    0.98622E-05   -0.37451E-04  1920   0.101E-01    0.781E-02
DAV:   4    -0.483149055636E+03    0.54968E-04   -0.79591E-05  1232   0.555E-02    0.357E-02
DAV:   5    -0.483149058684E+03   -0.30472E-05   -0.73085E-05  1144   0.801E-02
 101 F= -.48314906E+03 E0= -.48310724E+03  d E =-.167571E-02
 curvature:  -5.08 expect dE=-0.479E-02 dE for cont linesearch -0.581E-05
 trial: gam= 0.87897 g(F)=  0.909E-03 g(S)=  0.324E-04 ort = 0.903E-04 (trialstep = 0.249E+01)
 search vector abs. value=  0.661E-02
 bond charge predicted
       N       E                     dE             d eps       ncg     rms          rms(c)
DAV:   1    -0.483147562649E+03    0.14930E-02   -0.14720E+00  1424   0.322E+00    0.252E-01
DAV:   2    -0.483153089732E+03   -0.55271E-02   -0.37675E-02  2048   0.718E-01    0.515E-01
DAV:   3    -0.483150290779E+03    0.27990E-02   -0.64017E-03  2032   0.379E-01    0.173E-01
DAV:   4    -0.483150183563E+03    0.10722E-03   -0.76243E-04  1928   0.133E-01    0.862E-02
DAV:   5    -0.483150236529E+03   -0.52965E-04   -0.53762E-04  2136   0.176E-01    0.733E-02
DAV:   6    -0.483150193108E+03    0.43420E-04   -0.39099E-04  1664   0.179E-01    0.312E-02
DAV:   7    -0.483150197583E+03   -0.44743E-05   -0.70760E-05  1312   0.710E-02
 102 F= -.48315020E+03 E0= -.48310817E+03  d E =-.113890E-02
 trial-energy change:   -0.001139  1 .order   -0.001403   -0.002542   -0.000264
 step:   2.7777(harm=  2.7777)  dis= 0.00483  next Energy=  -483.150477 (dE=-0.142E-02)
 bond charge predicted
       N       E                     dE             d eps       ncg     rms          rms(c)
DAV:   1    -0.483150156962E+03    0.36147E-04   -0.19716E-02  1408   0.373E-01    0.311E-02
DAV:   2    -0.483150234831E+03   -0.77870E-04   -0.56086E-04  2080   0.977E-02    0.581E-02
DAV:   3    -0.483150199424E+03    0.35407E-04   -0.71621E-05  1304   0.458E-02    0.213E-02
DAV:   4    -0.483150199552E+03   -0.12763E-06   -0.82161E-06   848   0.194E-02
 103 F= -.48315020E+03 E0= -.48310814E+03  d E =-.114087E-02
 curvature:  -8.99 expect dE=-0.819E-02 dE for cont linesearch -0.729E-07
 trial: gam= 0.84719 g(F)=  0.758E-03 g(S)=  0.153E-03 ort =-0.732E-05 (trialstep = 0.255E+01)
 search vector abs. value=  0.564E-02
 bond charge predicted
       N       E                     dE             d eps       ncg     rms          rms(c)
DAV:   1    -0.483148912671E+03    0.12868E-02   -0.12996E+00  1456   0.305E+00    0.209E-01
DAV:   2    -0.483151604718E+03   -0.26920E-02   -0.31207E-02  2016   0.575E-01    0.157E-01
DAV:   3    -0.483151863065E+03   -0.25835E-03   -0.22692E-03  2128   0.323E-01    0.213E-01
DAV:   4    -0.483151435776E+03    0.42729E-03   -0.80615E-04  2064   0.161E-01    0.968E-02
DAV:   5    -0.483151523192E+03   -0.87416E-04   -0.53804E-04  1928   0.174E-01    0.994E-02
DAV:   6    -0.483151433102E+03    0.90089E-04   -0.37322E-04  1512   0.172E-01    0.281E-02
DAV:   7    -0.483151445141E+03   -0.12039E-04   -0.65067E-05  1304   0.522E-02    0.130E-02
DAV:   8    -0.483151443744E+03    0.13970E-05   -0.13755E-05   896   0.283E-02
 104 F= -.48315144E+03 E0= -.48310933E+03  d E =-.124419E-02
 trial-energy change:   -0.001244  1 .order   -0.001303   -0.002304   -0.000302
 step:   3.0342(harm=  2.9315)  dis= 0.00500  next Energy=  -483.151472 (dE=-0.127E-02)
 bond charge predicted
       N       E                     dE             d eps       ncg     rms          rms(c)
DAV:   1    -0.483151353070E+03    0.92071E-04   -0.47588E-02  1440   0.585E-01    0.413E-02
DAV:   2    -0.483151461481E+03   -0.10841E-03   -0.11975E-03  2080   0.120E-01    0.333E-02
DAV:   3    -0.483151471454E+03   -0.99731E-05   -0.99961E-05  1592   0.743E-02
 105 F= -.48315147E+03 E0= -.48310914E+03  d E =-.127190E-02
 curvature:  -8.49 expect dE=-0.684E-02 dE for cont linesearch -0.245E-06
 trial: gam= 0.73534 g(F)=  0.734E-03 g(S)=  0.716E-04 ort = 0.128E-04 (trialstep = 0.264E+01)
 search vector abs. value=  0.387E-02
 bond charge predicted
       N       E                     dE             d eps       ncg     rms          rms(c)
DAV:   1    -0.483150575789E+03    0.88569E-03   -0.92751E-01  1424   0.262E+00    0.268E-01
DAV:   2    -0.483155697389E+03   -0.51216E-02   -0.34502E-02  2064   0.875E-01    0.551E-01
DAV:   3    -0.483152415606E+03    0.32818E-02   -0.71910E-03  2160   0.594E-01    0.192E-01
DAV:   4    -0.483152357239E+03    0.58367E-04   -0.13170E-03  1936   0.239E-01    0.145E-01
DAV:   5    -0.483152217964E+03    0.13928E-03   -0.71508E-04  2016   0.216E-01    0.605E-02
DAV:   6    -0.483152241381E+03   -0.23417E-04   -0.17773E-04  1840   0.827E-02    0.340E-02
DAV:   7    -0.483152232800E+03    0.85810E-05   -0.71831E-05  1352   0.663E-02
 106 F= -.48315223E+03 E0= -.48311010E+03  d E =-.761346E-03
 trial-energy change:   -0.000761  1 .order   -0.000974   -0.002155    0.000207
 step:   2.2209(harm=  2.4131)  dis= 0.00275  next Energy=  -483.152250 (dE=-0.779E-03)
 bond charge predicted
       N       E                     dE             d eps       ncg     rms          rms(c)
DAV:   1    -0.483152211236E+03    0.30145E-04   -0.23907E-02  1440   0.432E-01    0.419E-02
DAV:   2    -0.483152356102E+03   -0.14487E-03   -0.85838E-04  2080   0.180E-01    0.938E-02
DAV:   3    -0.483152252474E+03    0.10363E-03   -0.18528E-04  1552   0.105E-01    0.294E-02
DAV:   4    -0.483152256108E+03   -0.36344E-05   -0.38373E-05  1160   0.518E-02
 107 F= -.48315226E+03 E0= -.48311004E+03  d E =-.784655E-03
 curvature:  -1.77 expect dE=-0.149E-02 dE for cont linesearch -0.395E-06
 trial: gam= 0.91692 g(F)=  0.476E-03 g(S)=  0.363E-03 ort =-0.294E-04 (trialstep = 0.245E+01)
 search vector abs. value=  0.404E-02
 bond charge predicted
       N       E                     dE             d eps       ncg     rms          rms(c)
DAV:   1    -0.483151717996E+03    0.53448E-03   -0.85758E-01  1424   0.250E+00    0.203E-01
DAV:   2    -0.483154687087E+03   -0.29691E-02   -0.22832E-02  2032   0.609E-01    0.357E-01
DAV:   3    -0.483153448525E+03    0.12386E-02   -0.45133E-03  2136   0.368E-01    0.165E-01
DAV:   4    -0.483153328932E+03    0.11959E-03   -0.51622E-04  1824   0.116E-01    0.897E-02
DAV:   5    -0.483153318521E+03    0.10411E-04   -0.45847E-04  1840   0.184E-01    0.709E-02
DAV:   6    -0.483153294599E+03    0.23921E-04   -0.16242E-04  1640   0.106E-01    0.197E-02
DAV:   7    -0.483153302238E+03   -0.76382E-05   -0.40856E-05  1192   0.363E-02
 108 F= -.48315330E+03 E0= -.48311109E+03  d E =-.104613E-02
 trial-energy change:   -0.001046  1 .order   -0.001060   -0.001992   -0.000128
 step:   2.6218(harm=  2.6218)  dis= 0.00329  next Energy=  -483.153321 (dE=-0.106E-02)
 bond charge predicted
       N       E                     dE             d eps       ncg     rms          rms(c)
DAV:   1    -0.483153292635E+03    0.19645E-05   -0.39923E-03  1448   0.176E-01    0.168E-02
DAV:   2    -0.483153310743E+03   -0.18108E-04   -0.13432E-04  1904   0.586E-02    0.269E-02
DAV:   3    -0.483153303428E+03    0.73148E-05   -0.20381E-05  1096   0.345E-02
 109 F= -.48315330E+03 E0= -.48311115E+03  d E =-.104732E-02
 curvature:  -6.53 expect dE=-0.405E-02 dE for cont linesearch -0.220E-06
 trial: gam= 0.62017 g(F)=  0.605E-03 g(S)=  0.146E-04 ort =-0.117E-04 (trialstep = 0.249E+01)
 search vector abs. value=  0.216E-02
 bond charge predicted
       N       E                     dE             d eps       ncg     rms          rms(c)
DAV:   1    -0.483153254563E+03    0.56180E-04   -0.45993E-01  1440   0.186E+00    0.180E-01
DAV:   2    -0.483155022191E+03   -0.17676E-02   -0.14433E-02  2080   0.569E-01    0.306E-01
DAV:   3    -0.483154183611E+03    0.83858E-03   -0.37431E-03  2240   0.397E-01    0.153E-01
DAV:   4    -0.483154070384E+03    0.11323E-03   -0.47531E-04  1792   0.115E-01    0.943E-02
DAV:   5    -0.483154010255E+03    0.60129E-04   -0.32468E-04  1864   0.151E-01    0.453E-02
DAV:   6    -0.483154017035E+03   -0.67799E-05   -0.97094E-05  1616   0.665E-02
 110 F= -.48315402E+03 E0= -.48311176E+03  d E =-.713607E-03
 trial-energy change:   -0.000714  1 .order   -0.000721   -0.001524    0.000082
 step:   2.3593(harm=  2.3593)  dis= 0.00227  next Energy=  -483.154026 (dE=-0.723E-03)
 reached required accuracy - stopping structural energy minimisation
