<?xml version="1.0" encoding="ISO-8859-1"?>
<modeling>
 <generator>
  <i name="program" type="string">vasp </i>
  <i name="version" type="string">6.3.2  </i>
  <i name="subversion" type="string">27Jun22 (build May 04 2024 18:40:40) complex                          parallel </i>
  <i name="platform" type="string">LinuxIFC </i>
  <i name="date" type="string">2024 09 03 </i>
  <i name="time" type="string">04:33:09 </i>
 </generator>
 <incar>
  <i type="string" name="SYSTEM">slab_Cel1-OPT</i>
  <i type="int" name="ISTART">     0</i>
  <i type="string" name="PREC">N</i>
  <i type="string" name="ALGO">N</i>
  <i type="int" name="ICHARG">     2</i>
  <i type="int" name="NELM">   200</i>
  <i type="int" name="IBRION">     2</i>
  <i name="EDIFF">      0.00001000</i>
  <i name="EDIFFG">     -0.05000000</i>
  <i type="int" name="NSW">  1000</i>
  <i type="int" name="ISIF">     3</i>
  <i name="ENCUT">    400.00000000</i>
  <i name="POTIM">      0.10000000</i>
  <i type="string" name="LREAL">AUTO</i>
  <i type="int" name="ISMEAR">     0</i>
  <i name="SIGMA">      0.10000000</i>
  <i type="logical" name="LWAVE"> F  </i>
  <i type="logical" name="LCHARG"> F  </i>
  <i type="logical" name="LELF"> F  </i>
  <i type="logical" name="LAECHG"> F  </i>
  <i type="logical" name="LDIPOL"> T  </i>
  <i type="int" name="IDIPOL">     3</i>
 </incar>
 <primitive_cell>
  <structure name="primitive_cell" >
   <crystal>
    <varray name="basis" >
     <v>      13.75970367       0.00000000       0.00000000 </v>
     <v>       0.00000000      11.28669971       0.00000000 </v>
     <v>       0.00000000       0.00000000      15.00000000 </v>
    </varray>
    <i name="volume">   2329.52465126 </i>
    <varray name="rec_basis" >
     <v>       0.07267598       0.00000000       0.00000000 </v>
     <v>       0.00000000       0.08859986       0.00000000 </v>
     <v>       0.00000000       0.00000000       0.06666667 </v>
    </varray>
   </crystal>
   <varray name="positions" >
    <v>       0.07054120       0.38816457       0.22227495 </v>
    <v>       0.98151180       0.21832942       0.16785344 </v>
    <v>       0.22877304       0.39667288       0.18904348 </v>
    <v>       0.82472337       0.57572318       0.18403191 </v>
    <v>       0.14970601       0.24663792       0.12277753 </v>
    <v>       0.90758628       0.38434512       0.21811946 </v>
    <v>       0.56886571       0.39316130       0.23173729 </v>
    <v>       0.47768100       0.22391730       0.18017943 </v>
    <v>       0.73035049       0.39802658       0.19909345 </v>
    <v>       0.31101118       0.58132963       0.17977696 </v>
    <v>       0.64681854       0.25040749       0.13377315 </v>
    <v>       0.40275100       0.39355427       0.22106508 </v>
    <v>       0.81808056       0.88988957       0.05647519 </v>
    <v>       0.73319531       0.72568325       0.12448457 </v>
    <v>       0.97932824       0.89597624       0.07999408 </v>
    <v>       0.06867909       0.07698375       0.09423854 </v>
    <v>       0.90528082       0.74258583       0.14719628 </v>
    <v>       0.65472406       0.89333727       0.07691603 </v>
    <v>       0.31825350       0.89473226       0.05377466 </v>
    <v>       0.22716619       0.72126926       0.10084126 </v>
    <v>       0.47498917       0.90396535       0.09489577 </v>
    <v>       0.56592959       0.08075138       0.11024766 </v>
    <v>       0.38612516       0.76037560       0.16363174 </v>
    <v>       0.15509033       0.88950396       0.05271529 </v>
    <v>       0.98784551       0.43883046       0.24713656 </v>
    <v>       0.89991795       0.26975381       0.19549767 </v>
    <v>       0.15759857       0.43325808       0.24240148 </v>
    <v>       0.14788829       0.14353661       0.08017307 </v>
    <v>       0.98633649       0.10796021       0.13653167 </v>
    <v>       0.22915942       0.31533454       0.12527490 </v>
    <v>       0.06735802       0.28598388       0.16888911 </v>
    <v>       0.82274912       0.45552252       0.21014877 </v>
    <v>       0.48493735       0.44793349       0.25146232 </v>
    <v>       0.39648714       0.27665554       0.20625030 </v>
    <v>       0.65756919       0.43524210       0.25419888 </v>
    <v>       0.64488604       0.14640144       0.09374788 </v>
    <v>       0.48286722       0.11321356       0.15081376 </v>
    <v>       0.72606390       0.31870920       0.13454719 </v>
    <v>       0.56470606       0.29135323       0.18008364 </v>
    <v>       0.31888640       0.46086995       0.20329135 </v>
    <v>       0.73287748       0.94248397       0.03965616 </v>
    <v>       0.64891188       0.78317499       0.11254597 </v>
    <v>       0.90382696       0.93469024       0.03189926 </v>
    <v>       0.90701680       0.63807548       0.18754912 </v>
    <v>       0.73647441       0.61699787       0.15934394 </v>
    <v>       0.98321706       0.81212363       0.14197152 </v>
    <v>       0.81925020       0.78400528       0.10639513 </v>
    <v>       0.56804185       0.96074410       0.08520074 </v>
    <v>       0.23699719       0.94478449       0.02657725 </v>
    <v>       0.14820250       0.77173059       0.06843984 </v>
    <v>       0.40793432       0.93556381       0.03646331 </v>
    <v>       0.38047481       0.65838217       0.20939239 </v>
    <v>       0.23501053       0.60894863       0.12850628 </v>
    <v>       0.46527775       0.83024755       0.16578047 </v>
    <v>       0.31113112       0.79334051       0.10891910 </v>
    <v>       0.06990262       0.95754122       0.06514651 </v>
    <v>       0.57736557       0.77647674       0.24193941 </v>
    <v>       0.65582252       0.60772566       0.29790490 </v>
    <v>       0.48700699       0.61617049       0.29396059 </v>
   </varray>
  </structure>
  <varray name="primitive_index" >
   <v type="int" >        1 </v>
   <v type="int" >        2 </v>
   <v type="int" >        3 </v>
   <v type="int" >        4 </v>
   <v type="int" >        5 </v>
   <v type="int" >        6 </v>
   <v type="int" >        7 </v>
   <v type="int" >        8 </v>
   <v type="int" >        9 </v>
   <v type="int" >       10 </v>
   <v type="int" >       11 </v>
   <v type="int" >       12 </v>
   <v type="int" >       13 </v>
   <v type="int" >       14 </v>
   <v type="int" >       15 </v>
   <v type="int" >       16 </v>
   <v type="int" >       17 </v>
   <v type="int" >       18 </v>
   <v type="int" >       19 </v>
   <v type="int" >       20 </v>
   <v type="int" >       21 </v>
   <v type="int" >       22 </v>
   <v type="int" >       23 </v>
   <v type="int" >       24 </v>
   <v type="int" >       25 </v>
   <v type="int" >       26 </v>
   <v type="int" >       27 </v>
   <v type="int" >       28 </v>
   <v type="int" >       29 </v>
   <v type="int" >       30 </v>
   <v type="int" >       31 </v>
   <v type="int" >       32 </v>
   <v type="int" >       33 </v>
   <v type="int" >       34 </v>
   <v type="int" >       35 </v>
   <v type="int" >       36 </v>
   <v type="int" >       37 </v>
   <v type="int" >       38 </v>
   <v type="int" >       39 </v>
   <v type="int" >       40 </v>
   <v type="int" >       41 </v>
   <v type="int" >       42 </v>
   <v type="int" >       43 </v>
   <v type="int" >       44 </v>
   <v type="int" >       45 </v>
   <v type="int" >       46 </v>
   <v type="int" >       47 </v>
   <v type="int" >       48 </v>
   <v type="int" >       49 </v>
   <v type="int" >       50 </v>
   <v type="int" >       51 </v>
   <v type="int" >       52 </v>
   <v type="int" >       53 </v>
   <v type="int" >       54 </v>
   <v type="int" >       55 </v>
   <v type="int" >       56 </v>
   <v type="int" >       57 </v>
   <v type="int" >       58 </v>
   <v type="int" >       59 </v>
  </varray>
 </primitive_cell>
 <kpoints>
  <generation param="Gamma">
   <v type="int" name="divisions">       2        2        1 </v>
   <v name="usershift">      0.00000000       0.00000000       0.00000000 </v>
   <v name="genvec1">      0.50000000       0.00000000       0.00000000 </v>
   <v name="genvec2">      0.00000000       0.50000000       0.00000000 </v>
   <v name="genvec3">      0.00000000       0.00000000       1.00000000 </v>
   <v name="shift">      0.00000000       0.00000000       0.00000000 </v>
  </generation>
  <varray name="kpointlist" >
   <v>       0.00000000       0.00000000       0.00000000 </v>
   <v>       0.50000000       0.00000000       0.00000000 </v>
   <v>       0.00000000       0.50000000       0.00000000 </v>
   <v>       0.50000000       0.50000000       0.00000000 </v>
  </varray>
  <varray name="weights" >
   <v>       0.25000000 </v>
   <v>       0.25000000 </v>
   <v>       0.25000000 </v>
   <v>       0.25000000 </v>
  </varray>
 </kpoints>
 <parameters>
  <separator name="general" >
   <i type="string" name="SYSTEM">slab_Cel1-OPT</i>
   <i type="logical" name="LCOMPAT"> F  </i>
  </separator>
  <separator name="electronic" >
   <i type="string" name="PREC">n</i>
   <i name="ENMAX">    400.00000000</i>
   <i name="ENAUG">    644.87300000</i>
   <i name="EDIFF">      0.00001000</i>
   <i type="int" name="IALGO">    38</i>
   <i type="int" name="IWAVPR">    11</i>
   <i type="int" name="NBANDS">   176</i>
   <i type="int" name="NBANDSLOW">    -1</i>
   <i type="int" name="NBANDSHIGH">    -1</i>
   <i name="NELECT">    288.00000000</i>
   <i type="int" name="TURBO">     0</i>
   <i type="int" name="IRESTART">     0</i>
   <i type="int" name="NREBOOT">     0</i>
   <i type="int" name="NMIN">     0</i>
   <i name="EREF">      0.00000000</i>
   <separator name="electronic smearing" >
    <i type="int" name="ISMEAR">     0</i>
    <i name="SIGMA">      0.10000000</i>
    <i name="KSPACING">      0.50000000</i>
    <i type="logical" name="KGAMMA"> T  </i>
    <i type="logical" name="KBLOWUP"> T  </i>
   </separator>
   <separator name="electronic projectors" >
    <i type="logical" name="LREAL"> T  </i>
    <v name="ROPT">     -0.00050000     -0.00050000     -0.00050000     -0.00050000</v>
    <i type="int" name="LMAXPAW">  -100</i>
    <i type="int" name="LMAXMIX">     2</i>
    <i type="logical" name="NLSPLINE"> F  </i>
   </separator>
   <separator name="electronic startup" >
    <i type="int" name="ISTART">     0</i>
    <i type="int" name="ICHARG">     2</i>
    <i type="int" name="INIWAV">     1</i>
   </separator>
   <separator name="electronic spin" >
    <i type="int" name="ISPIN">     1</i>
    <i type="logical" name="LNONCOLLINEAR"> F  </i>
    <v name="MAGMOM">      1.00000000      1.00000000      1.00000000      1.00000000      1.00000000      1.00000000      1.00000000      1.00000000      1.00000000      1.00000000      1.00000000      1.00000000      1.00000000      1.00000000      1.00000000      1.00000000      1.00000000      1.00000000      1.00000000      1.00000000
      1.00000000      1.00000000      1.00000000      1.00000000      1.00000000      1.00000000      1.00000000      1.00000000      1.00000000      1.00000000      1.00000000      1.00000000      1.00000000      1.00000000      1.00000000      1.00000000      1.00000000      1.00000000      1.00000000      1.00000000
      1.00000000      1.00000000      1.00000000      1.00000000      1.00000000      1.00000000      1.00000000      1.00000000      1.00000000      1.00000000      1.00000000      1.00000000      1.00000000      1.00000000      1.00000000      1.00000000      1.00000000      1.00000000      1.00000000</v>
    <i name="NUPDOWN">     -1.00000000</i>
    <i type="logical" name="LSORBIT"> F  </i>
    <v name="SAXIS">      0.00000000      0.00000000      1.00000000</v>
    <i type="logical" name="LSPIRAL"> F  </i>
    <v name="QSPIRAL">      0.00000000      0.00000000      0.00000000</v>
    <i type="logical" name="LZEROZ"> F  </i>
   </separator>
   <separator name="electronic exchange-correlation" >
    <i type="logical" name="LASPH"> F  </i>
    <i type="logical" name="LMETAGGA"> F  </i>
   </separator>
   <separator name="electronic convergence" >
    <i type="int" name="NELM">   200</i>
    <i type="int" name="NELMDL">    -5</i>
    <i type="int" name="NELMIN">     2</i>
    <i name="ENINI">    400.00000000</i>
    <separator name="electronic convergence detail" >
     <i type="logical" name="LDIAG"> T  </i>
     <i type="logical" name="LSUBROT"> F  </i>
     <i name="WEIMIN">      0.00100000</i>
     <i name="EBREAK">      0.00000001</i>
     <i name="DEPER">      0.30000000</i>
     <i type="int" name="NRMM">     4</i>
     <i name="TIME">      0.40000000</i>
    </separator>
   </separator>
   <separator name="electronic mixer" >
    <i name="AMIX">      0.40000000</i>
    <i name="BMIX">      1.00000000</i>
    <i name="AMIN">      0.10000000</i>
    <i name="AMIX_MAG">      1.60000000</i>
    <i name="BMIX_MAG">      1.00000000</i>
    <separator name="electronic mixer details" >
     <i type="int" name="IMIX">     4</i>
     <i type="logical" name="MIXFIRST"> F  </i>
     <i type="int" name="MAXMIX">   -45</i>
     <i name="WC">    100.00000000</i>
     <i type="int" name="INIMIX">     1</i>
     <i type="int" name="MIXPRE">     1</i>
     <i type="int" name="MREMOVE">     5</i>
    </separator>
   </separator>
   <separator name="electronic dipolcorrection" >
    <i type="logical" name="LDIPOL"> T  </i>
    <i type="logical" name="LMONO"> F  </i>
    <i type="int" name="IDIPOL">     3</i>
    <i name="EPSILON">      1.00000000</i>
    <v name="DIPOL">   -100.00000000   -100.00000000   -100.00000000</v>
    <i name="EFIELD">      0.00000000</i>
   </separator>
  </separator>
  <separator name="grids" >
   <i type="int" name="NGX">    70</i>
   <i type="int" name="NGY">    56</i>
   <i type="int" name="NGZ">    80</i>
   <i type="int" name="NGXF">   140</i>
   <i type="int" name="NGYF">   112</i>
   <i type="int" name="NGZF">   160</i>
   <i type="logical" name="ADDGRID"> F  </i>
  </separator>
  <separator name="ionic" >
   <i type="int" name="NSW">  1000</i>
   <i type="int" name="IBRION">     2</i>
   <i type="int" name="MDALGO">     0</i>
   <i type="int" name="ISIF">     3</i>
   <i name="PSTRESS">      0.00000000</i>
   <i name="EDIFFG">     -0.05000000</i>
   <i type="int" name="NFREE">     1</i>
   <i name="POTIM">      0.10000000</i>
   <i name="SMASS">     -3.00000000</i>
   <i name="SCALEE">      1.00000000</i>
  </separator>
  <separator name="ionic md" >
   <i name="TEBEG">      0.00010000</i>
   <i name="TEEND">      0.00010000</i>
   <i type="int" name="NBLOCK">     1</i>
   <i type="int" name="KBLOCK">  1000</i>
   <i type="int" name="NPACO">   256</i>
   <i name="APACO">     10.00000000</i>
  </separator>
  <separator name="symmetry" >
   <i type="int" name="ISYM">     2</i>
   <i name="SYMPREC">      0.00001000</i>
  </separator>
  <separator name="dos" >
   <i type="int" name="LORBIT">     0</i>
   <v name="RWIGS">     -1.00000000     -1.00000000     -1.00000000     -1.00000000</v>
   <i type="int" name="NEDOS">   301</i>
   <i name="EMIN">     10.00000000</i>
   <i name="EMAX">    -10.00000000</i>
   <i name="EFERMI">      0.00000000</i>
  </separator>
  <separator name="writing" >
   <i type="int" name="NWRITE">     2</i>
   <i type="logical" name="LWAVE"> F  </i>
   <i type="logical" name="LDOWNSAMPLE"> F  </i>
   <i type="logical" name="LCHARG"> F  </i>
   <i type="logical" name="LPARD"> F  </i>
   <i type="logical" name="LVTOT"> F  </i>
   <i type="logical" name="LVHAR"> F  </i>
   <i type="logical" name="LELF"> F  </i>
   <i type="logical" name="LOPTICS"> F  </i>
   <v name="STM">      0.00000000      0.00000000      0.00000000      0.00000000      0.00000000      0.00000000      0.00000000</v>
  </separator>
  <separator name="performance" >
   <i type="int" name="NPAR">     4</i>
   <i type="int" name="NSIM">     4</i>
   <i type="int" name="NBLK">    -1</i>
   <i type="logical" name="LPLANE"> T  </i>
   <i type="logical" name="LSCALAPACK"> T  </i>
   <i type="logical" name="LSCAAWARE"> F  </i>
   <i type="logical" name="LSCALU"> F  </i>
   <i type="logical" name="LASYNC"> F  </i>
   <i type="logical" name="LORBITALREAL"> F  </i>
  </separator>
  <separator name="miscellaneous" >
   <i type="int" name="IDIOT">     3</i>
   <i type="int" name="PHON_NSTRUCT">    -1</i>
   <i type="logical" name="LMUSIC"> F  </i>
   <v name="POMASS">     12.01100000     14.00100000     63.54600000    106.42000000</v>
   <v name="DARWINR">      0.00000000      0.00000000      0.00000000      0.00000000</v>
   <v name="DARWINV">      1.00000000      1.00000000      1.00000000      1.00000000</v>
   <i type="logical" name="LCORR"> T  </i>
  </separator>
  <i type="logical" name="GGA_COMPAT"> T  </i>
  <i type="logical" name="LBERRY"> F  </i>
  <i type="int" name="ICORELEVEL">     0</i>
  <i type="logical" name="LDAU"> F  </i>
  <i type="int" name="I_CONSTRAINED_M">     0</i>
  <separator name="electronic exchange-correlation" >
   <i type="string" name="GGA">--</i>
   <i type="int" name="VOSKOWN">     0</i>
   <i type="logical" name="LHFCALC"> F  </i>
   <i type="string" name="PRECFOCK"></i>
   <i type="logical" name="LSYMGRAD"> F  </i>
   <i type="logical" name="LHFONE"> F  </i>
   <i type="logical" name="LRHFCALC"> F  </i>
   <i type="logical" name="LTHOMAS"> F  </i>
   <i type="logical" name="LMODELHF"> F  </i>
   <i type="logical" name="LFOCKACE"> F  </i>
   <i name="ENCUT4O">     -1.00000000</i>
   <i type="int" name="EXXOEP">     0</i>
   <i type="int" name="FOURORBIT">     0</i>
   <i name="AEXX">      0.00000000</i>
   <i name="HFALPHA">      0.00000000</i>
   <i name="MCALPHA">      0.00000000</i>
   <i name="ALDAX">      1.00000000</i>
   <i name="AGGAX">      1.00000000</i>
   <i name="ALDAC">      1.00000000</i>
   <i name="AGGAC">      1.00000000</i>
   <i type="int" name="NKREDX">     1</i>
   <i type="int" name="NKREDY">     1</i>
   <i type="int" name="NKREDZ">     1</i>
   <i type="logical" name="SHIFTRED"> F  </i>
   <i type="logical" name="ODDONLY"> F  </i>
   <i type="logical" name="EVENONLY"> F  </i>
   <i type="int" name="LMAXFOCK">     0</i>
   <i type="int" name="NMAXFOCKAE">     0</i>
   <i type="logical" name="LFOCKAEDFT"> F  </i>
   <i name="HFSCREEN">      0.00000000</i>
   <i name="HFSCREENC">      0.00000000</i>
   <i type="int" name="NBANDSGWLOW">     0</i>
  </separator>
  <separator name="vdW DFT" >
   <i type="logical" name="LUSE_VDW"> F  </i>
   <i name="Zab_VDW">     -0.84910000</i>
   <i name="PARAM1">      0.12340000</i>
   <i name="PARAM2">      1.00000000</i>
   <i name="PARAM3">      0.00000000</i>
  </separator>
  <separator name="model GW" >
   <i type="int" name="MODEL_GW">     0</i>
   <i name="MODEL_EPS0">     23.69008120</i>
   <i name="MODEL_ALPHA">      1.00000000</i>
  </separator>
  <separator name="linear response parameters" >
   <i type="logical" name="LEPSILON"> F  </i>
   <i type="logical" name="LRPA"> F  </i>
   <i type="logical" name="LNABLA"> F  </i>
   <i type="logical" name="LVEL"> F  </i>
   <i name="CSHIFT">      0.10000000</i>
   <i name="OMEGAMAX">     -1.00000000</i>
   <i name="DEG_THRESHOLD">      0.00200000</i>
   <i name="RTIME">     -0.10000000</i>
   <i name="WPLASMAI">      0.00000000</i>
   <v name="DFIELD">      0.00000000      0.00000000      0.00000000</v>
   <v name="WPLASMA">      0.00000000      0.00000000      0.00000000      0.00000000      0.00000000      0.00000000      0.00000000      0.00000000      0.00000000</v>
  </separator>
  <separator name="orbital magnetization" >
   <i type="logical" name="NUCIND"> F  </i>
   <v name="MAGPOS">      0.00000000      0.00000000      0.00000000</v>
   <i type="logical" name="LNICSALL"> T  </i>
   <i type="logical" name="ORBITALMAG"> F  </i>
   <i type="logical" name="LMAGBLOCH"> F  </i>
   <i type="logical" name="LCHIMAG"> F  </i>
   <i type="logical" name="LGAUGE"> T  </i>
   <i type="int" name="MAGATOM">     0</i>
   <v name="MAGDIPOL">      0.00000000      0.00000000      0.00000000</v>
   <v name="AVECCONST">      0.00000000      0.00000000      0.00000000</v>
  </separator>
  <separator name="response functions" >
   <i type="logical" name="LFINITE_TEMPERATURE"> F  </i>
   <i type="logical" name="LADDER"> F  </i>
   <i type="logical" name="LRPAFORCE"> F  </i>
   <i type="logical" name="LFXC"> F  </i>
   <i type="logical" name="LHARTREE"> T  </i>
   <i type="int" name="IBSE">     0</i>
   <v type="int" name="KPOINT">    -1     0     0     0</v>
   <i type="logical" name="LTCTC"> F  </i>
   <i type="logical" name="LTCTE"> F  </i>
   <i type="logical" name="LTETE"> F  </i>
   <i type="logical" name="LTRIPLET"> F  </i>
   <i type="logical" name="LFXCEPS"> F  </i>
   <i type="logical" name="LFXHEG"> F  </i>
   <i type="int" name="NATURALO">     2</i>
   <i type="logical" name="LHOLEGF"> F  </i>
   <i type="logical" name="L2ORDER"> F  </i>
   <i type="logical" name="LDMP1"> F  </i>
   <i type="logical" name="LMP2LT"> F  </i>
   <i type="logical" name="LSMP2LT"> F  </i>
   <i type="logical" name="LGWLF"> F  </i>
   <i name="ENCUTGW">     -2.00000000</i>
   <i name="ENCUTGWSOFT">     -2.00000000</i>
   <i name="ENCUTLF">     -1.00000000</i>
   <i type="logical" name="LESF_SPLINES"> F  </i>
   <i type="int" name="LMAXMP2">    -1</i>
   <i name="SCISSOR">      0.00000000</i>
   <i type="int" name="NOMEGA">     0</i>
   <i type="int" name="NOMEGAR">     0</i>
   <i type="int" name="NBANDSGW">    -1</i>
   <i type="int" name="NBANDSO">    -1</i>
   <i type="int" name="NBANDSV">    -1</i>
   <i type="int" name="NELMGW">     1</i>
   <i type="int" name="NELMHF">     1</i>
   <i type="int" name="DIM">     3</i>
   <i type="int" name="IESPILON">     4</i>
   <i type="int" name="ANTIRES">     0</i>
   <i name="OMEGAMAX">    -30.00000000</i>
   <i name="OMEGAMIN">    -30.00000000</i>
   <i name="OMEGATL">   -200.00000000</i>
   <i type="int" name="OMEGAGRID">     0</i>
   <i name="CSHIFT">     -0.10000000</i>
   <i type="logical" name="LSELFENERGY"> F  </i>
   <i type="logical" name="LSPECTRAL"> F  </i>
   <i type="logical" name="LSPECTRALGW"> F  </i>
   <i type="logical" name="LSINGLES"> F  </i>
   <i type="logical" name="LFERMIGW"> F  </i>
   <i type="logical" name="ODDONLYGW"> F  </i>
   <i type="logical" name="EVENONLYGW"> F  </i>
   <i type="int" name="NKREDLFX">     1</i>
   <i type="int" name="NKREDLFY">     1</i>
   <i type="int" name="NKREDLFZ">     1</i>
   <i type="int" name="MAXMEM">  2800</i>
   <i type="int" name="TELESCOPE">     0</i>
   <i type="int" name="NTAUPAR">    -1</i>
   <i type="int" name="NOMEGAPAR">    -1</i>
   <i name="DAMP_NEWTON">      0.80000001</i>
   <i name="LAMBDA">      1.00000000</i>
  </separator>
  <separator name="External order field" >
   <i name="OFIELD_KAPPA">      0.00000000</i>
   <v name="OFIELD_K">      0.00000000      0.00000000      0.00000000</v>
   <i name="OFIELD_Q6_NEAR">      0.00000000</i>
   <i name="OFIELD_Q6_FAR">      0.00000000</i>
   <i name="OFIELD_A">      0.00000000</i>
  </separator>
  <separator name="optional k-points parameters" >
   <i type="int" name="KPOINTS_OPT_MODE">     1</i>
   <i type="logical" name="LKPOINTS_OPT"> F  </i>
  </separator>
  <separator name="solvation model" >
   <i type="logical" name="LSOL"> F  </i>
  </separator>
 </parameters>
 <atominfo>
  <atoms>      59 </atoms>
  <types>       4 </types>
  <array name="atoms" >
   <dimension dim="1">ion</dimension>
   <field type="string">element</field>
   <field type="int">atomtype</field>
   <set>
    <rc><c>C </c><c>   1</c></rc>
    <rc><c>C </c><c>   1</c></rc>
    <rc><c>C </c><c>   1</c></rc>
    <rc><c>C </c><c>   1</c></rc>
    <rc><c>C </c><c>   1</c></rc>
    <rc><c>C </c><c>   1</c></rc>
    <rc><c>C </c><c>   1</c></rc>
    <rc><c>C </c><c>   1</c></rc>
    <rc><c>C </c><c>   1</c></rc>
    <rc><c>C </c><c>   1</c></rc>
    <rc><c>C </c><c>   1</c></rc>
    <rc><c>C </c><c>   1</c></rc>
    <rc><c>C </c><c>   1</c></rc>
    <rc><c>C </c><c>   1</c></rc>
    <rc><c>C </c><c>   1</c></rc>
    <rc><c>C </c><c>   1</c></rc>
    <rc><c>C </c><c>   1</c></rc>
    <rc><c>C </c><c>   1</c></rc>
    <rc><c>C </c><c>   1</c></rc>
    <rc><c>C </c><c>   1</c></rc>
    <rc><c>C </c><c>   1</c></rc>
    <rc><c>C </c><c>   1</c></rc>
    <rc><c>C </c><c>   1</c></rc>
    <rc><c>C </c><c>   1</c></rc>
    <rc><c>N </c><c>   2</c></rc>
    <rc><c>N </c><c>   2</c></rc>
    <rc><c>N </c><c>   2</c></rc>
    <rc><c>N </c><c>   2</c></rc>
    <rc><c>N </c><c>   2</c></rc>
    <rc><c>N </c><c>   2</c></rc>
    <rc><c>N </c><c>   2</c></rc>
    <rc><c>N </c><c>   2</c></rc>
    <rc><c>N </c><c>   2</c></rc>
    <rc><c>N </c><c>   2</c></rc>
    <rc><c>N </c><c>   2</c></rc>
    <rc><c>N </c><c>   2</c></rc>
    <rc><c>N </c><c>   2</c></rc>
    <rc><c>N </c><c>   2</c></rc>
    <rc><c>N </c><c>   2</c></rc>
    <rc><c>N </c><c>   2</c></rc>
    <rc><c>N </c><c>   2</c></rc>
    <rc><c>N </c><c>   2</c></rc>
    <rc><c>N </c><c>   2</c></rc>
    <rc><c>N </c><c>   2</c></rc>
    <rc><c>N </c><c>   2</c></rc>
    <rc><c>N </c><c>   2</c></rc>
    <rc><c>N </c><c>   2</c></rc>
    <rc><c>N </c><c>   2</c></rc>
    <rc><c>N </c><c>   2</c></rc>
    <rc><c>N </c><c>   2</c></rc>
    <rc><c>N </c><c>   2</c></rc>
    <rc><c>N </c><c>   2</c></rc>
    <rc><c>N </c><c>   2</c></rc>
    <rc><c>N </c><c>   2</c></rc>
    <rc><c>N </c><c>   2</c></rc>
    <rc><c>N </c><c>   2</c></rc>
    <rc><c>Cu</c><c>   3</c></rc>
    <rc><c>Cu</c><c>   3</c></rc>
    <rc><c>Pd</c><c>   4</c></rc>
   </set>
  </array>
  <array name="atomtypes" >
   <dimension dim="1">type</dimension>
   <field type="int">atomspertype</field>
   <field type="string">element</field>
   <field>mass</field>
   <field>valence</field>
   <field type="string">pseudopotential</field>
   <set>
    <rc><c>  24</c><c>C </c><c>     12.01100000</c><c>      4.00000000</c><c>  PAW_PBE C 08Apr2002                   </c></rc>
    <rc><c>  32</c><c>N </c><c>     14.00100000</c><c>      5.00000000</c><c>  PAW_PBE N 08Apr2002                   </c></rc>
    <rc><c>   2</c><c>Cu</c><c>     63.54600000</c><c>     11.00000000</c><c>  PAW_PBE Cu 22Jun2005                  </c></rc>
    <rc><c>   1</c><c>Pd</c><c>    106.42000000</c><c>     10.00000000</c><c>  PAW_PBE Pd 04Jan2005                  </c></rc>
   </set>
  </array>
 </atominfo>
 <structure name="initialpos" >
  <crystal>
   <varray name="basis" >
    <v>      13.75970367       0.00000000       0.00000000 </v>
    <v>       0.00000000      11.28669971       0.00000000 </v>
    <v>       0.00000000       0.00000000      15.00000000 </v>
   </varray>
   <i name="volume">   2329.52465126 </i>
   <varray name="rec_basis" >
    <v>       0.07267598       0.00000000       0.00000000 </v>
    <v>       0.00000000       0.08859986       0.00000000 </v>
    <v>       0.00000000       0.00000000       0.06666667 </v>
   </varray>
  </crystal>
  <varray name="positions" >
   <v>       0.07054120       0.38816457       0.22227495 </v>
   <v>       0.98151180       0.21832942       0.16785344 </v>
   <v>       0.22877304       0.39667288       0.18904348 </v>
   <v>       0.82472337       0.57572318       0.18403191 </v>
   <v>       0.14970601       0.24663792       0.12277753 </v>
   <v>       0.90758628       0.38434512       0.21811946 </v>
   <v>       0.56886571       0.39316130       0.23173729 </v>
   <v>       0.47768100       0.22391730       0.18017943 </v>
   <v>       0.73035049       0.39802658       0.19909345 </v>
   <v>       0.31101118       0.58132963       0.17977696 </v>
   <v>       0.64681854       0.25040749       0.13377315 </v>
   <v>       0.40275100       0.39355427       0.22106508 </v>
   <v>       0.81808056       0.88988957       0.05647519 </v>
   <v>       0.73319531       0.72568325       0.12448457 </v>
   <v>       0.97932824       0.89597624       0.07999408 </v>
   <v>       0.06867909       0.07698375       0.09423854 </v>
   <v>       0.90528082       0.74258583       0.14719628 </v>
   <v>       0.65472406       0.89333727       0.07691603 </v>
   <v>       0.31825350       0.89473226       0.05377466 </v>
   <v>       0.22716619       0.72126926       0.10084126 </v>
   <v>       0.47498917       0.90396535       0.09489577 </v>
   <v>       0.56592959       0.08075138       0.11024766 </v>
   <v>       0.38612516       0.76037560       0.16363174 </v>
   <v>       0.15509033       0.88950396       0.05271529 </v>
   <v>       0.98784551       0.43883046       0.24713656 </v>
   <v>       0.89991795       0.26975381       0.19549767 </v>
   <v>       0.15759857       0.43325808       0.24240148 </v>
   <v>       0.14788829       0.14353661       0.08017307 </v>
   <v>       0.98633649       0.10796021       0.13653167 </v>
   <v>       0.22915942       0.31533454       0.12527490 </v>
   <v>       0.06735802       0.28598388       0.16888911 </v>
   <v>       0.82274912       0.45552252       0.21014877 </v>
   <v>       0.48493735       0.44793349       0.25146232 </v>
   <v>       0.39648714       0.27665554       0.20625030 </v>
   <v>       0.65756919       0.43524210       0.25419888 </v>
   <v>       0.64488604       0.14640144       0.09374788 </v>
   <v>       0.48286722       0.11321356       0.15081376 </v>
   <v>       0.72606390       0.31870920       0.13454719 </v>
   <v>       0.56470606       0.29135323       0.18008364 </v>
   <v>       0.31888640       0.46086995       0.20329135 </v>
   <v>       0.73287748       0.94248397       0.03965616 </v>
   <v>       0.64891188       0.78317499       0.11254597 </v>
   <v>       0.90382696       0.93469024       0.03189926 </v>
   <v>       0.90701680       0.63807548       0.18754912 </v>
   <v>       0.73647441       0.61699787       0.15934394 </v>
   <v>       0.98321706       0.81212363       0.14197152 </v>
   <v>       0.81925020       0.78400528       0.10639513 </v>
   <v>       0.56804185       0.96074410       0.08520074 </v>
   <v>       0.23699719       0.94478449       0.02657725 </v>
   <v>       0.14820250       0.77173059       0.06843984 </v>
   <v>       0.40793432       0.93556381       0.03646331 </v>
   <v>       0.38047481       0.65838217       0.20939239 </v>
   <v>       0.23501053       0.60894863       0.12850628 </v>
   <v>       0.46527775       0.83024755       0.16578047 </v>
   <v>       0.31113112       0.79334051       0.10891910 </v>
   <v>       0.06990262       0.95754122       0.06514651 </v>
   <v>       0.57736557       0.77647674       0.24193941 </v>
   <v>       0.65582252       0.60772566       0.29790490 </v>
   <v>       0.48700699       0.61617049       0.29396059 </v>
  </varray>
 </structure>
 <calculation>
  <scstep>
   <time name="dav">    1.60    1.60</time>
   <time name="total">    1.64    1.65</time>
   <dipole>
    <v name="dipole">      0.00000000       0.00000000       0.00009034 </v>
    <i name="Tr[quadrupol]">  -8097.46955554 </i>
    <i name="Echarged">      0.00000000 </i>
    <i name="Edipol_quadrupol">      0.00000000 </i>
    <i name="Eion">      0.00000000 </i>
   </dipole>
   <energy>
    <i name="alphaZ">    170.68447094 </i>
    <i name="ewald">  28784.59497549 </i>
    <i name="hartreedc"> -41706.28205082 </i>
    <i name="XCdc">   1017.01519837 </i>
    <i name="pawpsdc">  12425.52815900 </i>
    <i name="pawaedc"> -12626.76671379 </i>
    <i name="eentropy">     -0.08591196 </i>
    <i name="bandstr">   -855.56226329 </i>
    <i name="atom">  15585.91262314 </i>
    <i name="e_fr_energy">   2795.03848708 </i>
    <i name="e_wo_entrp">   2795.12439904 </i>
    <i name="e_0_energy">   2795.08144306 </i>
   </energy>
  </scstep>
  <scstep>
   <time name="dav">    1.87    1.87</time>
   <time name="total">    1.87    1.87</time>
   <dipole>
    <v name="dipole">      0.00000000       0.00000000       0.00009034 </v>
    <i name="Tr[quadrupol]">  -8097.46955554 </i>
    <i name="Echarged">      0.00000000 </i>
    <i name="Edipol_quadrupol">      0.00000000 </i>
    <i name="Eion">      0.00000000 </i>
   </dipole>
   <energy>
    <i name="e_fr_energy">     83.08496632 </i>
    <i name="e_wo_entrp">     83.08504751 </i>
    <i name="e_0_energy">     83.08500692 </i>
   </energy>
  </scstep>
  <scstep>
   <time name="dav">    1.75    1.76</time>
   <time name="total">    1.75    1.76</time>
   <dipole>
    <v name="dipole">      0.00000000       0.00000000       0.00009034 </v>
    <i name="Tr[quadrupol]">  -8097.46955554 </i>
    <i name="Echarged">      0.00000000 </i>
    <i name="Edipol_quadrupol">      0.00000000 </i>
    <i name="Eion">      0.00000000 </i>
   </dipole>
   <energy>
    <i name="e_fr_energy">   -481.70964940 </i>
    <i name="e_wo_entrp">   -481.54908960 </i>
    <i name="e_0_energy">   -481.62936950 </i>
   </energy>
  </scstep>
  <scstep>
   <time name="dav">    2.07    2.07</time>
   <time name="total">    2.07    2.08</time>
   <dipole>
    <v name="dipole">      0.00000000       0.00000000       0.00009034 </v>
    <i name="Tr[quadrupol]">  -8097.46955554 </i>
    <i name="Echarged">      0.00000000 </i>
    <i name="Edipol_quadrupol">      0.00000000 </i>
    <i name="Eion">      0.00000000 </i>
   </dipole>
   <energy>
    <i name="e_fr_energy">   -520.70169060 </i>
    <i name="e_wo_entrp">   -520.50154206 </i>
    <i name="e_0_energy">   -520.60161633 </i>
   </energy>
  </scstep>
  <scstep>
   <time name="dav">    2.05    2.05</time>
   <time name="total">    2.10    2.10</time>
   <dipole>
    <v name="dipole">      0.00000000       0.00000000       0.00009034 </v>
    <i name="Tr[quadrupol]">  -8097.46955554 </i>
    <i name="Echarged">      0.00000000 </i>
    <i name="Edipol_quadrupol">      0.00000000 </i>
    <i name="Eion">      0.00000000 </i>
   </dipole>
   <energy>
    <i name="e_fr_energy">   -521.90566519 </i>
    <i name="e_wo_entrp">   -521.71007913 </i>
    <i name="e_0_energy">   -521.80787216 </i>
   </energy>
  </scstep>
  <scstep>
   <time name="dav">    2.15    2.15</time>
   <time name="total">    2.23    2.23</time>
   <dipole>
    <v name="dipole">      0.00000000       0.00000000      -1.65906415 </v>
    <i name="Tr[quadrupol]">  -8100.21708536 </i>
    <i name="Echarged">      0.00000000 </i>
    <i name="Edipol_quadrupol">      0.00000000 </i>
    <i name="Eion">      0.00000000 </i>
   </dipole>
   <energy>
    <i name="e_fr_energy">   -638.47515957 </i>
    <i name="e_wo_entrp">   -638.39796834 </i>
    <i name="e_0_energy">   -638.43656396 </i>
   </energy>
  </scstep>
  <scstep>
   <time name="dav">    1.98    1.98</time>
   <time name="total">    2.06    2.06</time>
   <dipole>
    <v name="dipole">      0.00000000       0.00000000      -0.62793784 </v>
    <i name="Tr[quadrupol]">  -8099.27561821 </i>
    <i name="Echarged">      0.00000000 </i>
    <i name="Edipol_quadrupol">      0.00000000 </i>
    <i name="Eion">      0.00000000 </i>
   </dipole>
   <energy>
    <i name="e_fr_energy">   -521.28166352 </i>
    <i name="e_wo_entrp">   -521.28166352 </i>
    <i name="e_0_energy">   -521.28166352 </i>
   </energy>
  </scstep>
  <scstep>
   <time name="dav">    1.97    1.98</time>
   <time name="total">    2.05    2.07</time>
   <dipole>
    <v name="dipole">      0.00000000       0.00000000      -0.61913800 </v>
    <i name="Tr[quadrupol]">  -8099.88077848 </i>
    <i name="Echarged">      0.00000000 </i>
    <i name="Edipol_quadrupol">      0.00000000 </i>
    <i name="Eion">      0.00000000 </i>
   </dipole>
   <energy>
    <i name="e_fr_energy">   -491.01956575 </i>
    <i name="e_wo_entrp">   -491.01956575 </i>
    <i name="e_0_energy">   -491.01956575 </i>
   </energy>
  </scstep>
  <scstep>
   <time name="dav">    2.19    2.19</time>
   <time name="total">    2.26    2.27</time>
   <dipole>
    <v name="dipole">      0.00000000       0.00000000      -0.37347294 </v>
    <i name="Tr[quadrupol]">  -8100.37786157 </i>
    <i name="Echarged">      0.00000000 </i>
    <i name="Edipol_quadrupol">      0.00000000 </i>
    <i name="Eion">      0.00000000 </i>
   </dipole>
   <energy>
    <i name="e_fr_energy">   -500.25689651 </i>
    <i name="e_wo_entrp">   -500.10233773 </i>
    <i name="e_0_energy">   -500.17961712 </i>
   </energy>
  </scstep>
  <scstep>
   <time name="dav">    2.05    2.05</time>
   <time name="total">    2.13    2.13</time>
   <dipole>
    <v name="dipole">      0.00000000       0.00000000      -0.62128804 </v>
    <i name="Tr[quadrupol]">  -8100.48320948 </i>
    <i name="Echarged">      0.00000000 </i>
    <i name="Edipol_quadrupol">      0.00000000 </i>
    <i name="Eion">      0.00000000 </i>
   </dipole>
   <energy>
    <i name="e_fr_energy">   -488.73107524 </i>
    <i name="e_wo_entrp">   -488.73107524 </i>
    <i name="e_0_energy">   -488.73107524 </i>
   </energy>
  </scstep>
  <scstep>
   <time name="dav">    2.04    2.04</time>
   <time name="total">    2.12    2.12</time>
   <dipole>
    <v name="dipole">      0.00000000       0.00000000      -0.48377382 </v>
    <i name="Tr[quadrupol]">  -8100.85337124 </i>
    <i name="Echarged">      0.00000000 </i>
    <i name="Edipol_quadrupol">      0.00000000 </i>
    <i name="Eion">      0.00000000 </i>
   </dipole>
   <energy>
    <i name="e_fr_energy">   -484.12230761 </i>
    <i name="e_wo_entrp">   -484.12229522 </i>
    <i name="e_0_energy">   -484.12230141 </i>
   </energy>
  </scstep>
  <scstep>
   <time name="dav">    2.22    2.23</time>
   <time name="total">    2.31    2.31</time>
   <dipole>
    <v name="dipole">      0.00000000       0.00000000      -0.34493790 </v>
    <i name="Tr[quadrupol]">  -8100.94224274 </i>
    <i name="Echarged">      0.00000000 </i>
    <i name="Edipol_quadrupol">      0.00000000 </i>
    <i name="Eion">      0.00000000 </i>
   </dipole>
   <energy>
    <i name="e_fr_energy">   -482.92988045 </i>
    <i name="e_wo_entrp">   -482.87888576 </i>
    <i name="e_0_energy">   -482.90438311 </i>
   </energy>
  </scstep>
  <scstep>
   <time name="dav">    2.13    2.13</time>
   <time name="total">    2.21    2.22</time>
   <dipole>
    <v name="dipole">      0.00000000       0.00000000      -0.27855628 </v>
    <i name="Tr[quadrupol]">  -8101.01589657 </i>
    <i name="Echarged">      0.00000000 </i>
    <i name="Edipol_quadrupol">      0.00000000 </i>
    <i name="Eion">      0.00000000 </i>
   </dipole>
   <energy>
    <i name="e_fr_energy">   -482.72167757 </i>
    <i name="e_wo_entrp">   -482.64089863 </i>
    <i name="e_0_energy">   -482.68128810 </i>
   </energy>
  </scstep>
  <scstep>
   <time name="dav">    1.84    1.84</time>
   <time name="total">    1.92    1.92</time>
   <dipole>
    <v name="dipole">      0.00000000       0.00000000      -0.26584555 </v>
    <i name="Tr[quadrupol]">  -8101.03216739 </i>
    <i name="Echarged">      0.00000000 </i>
    <i name="Edipol_quadrupol">      0.00000000 </i>
    <i name="Eion">      0.00000000 </i>
   </dipole>
   <energy>
    <i name="e_fr_energy">   -482.63363942 </i>
    <i name="e_wo_entrp">   -482.56467600 </i>
    <i name="e_0_energy">   -482.59915771 </i>
   </energy>
  </scstep>
  <scstep>
   <time name="dav">    1.89    1.89</time>
   <time name="total">    1.96    1.96</time>
   <dipole>
    <v name="dipole">      0.00000000       0.00000000      -0.12557467 </v>
    <i name="Tr[quadrupol]">  -8101.25395888 </i>
    <i name="Echarged">      0.00000000 </i>
    <i name="Edipol_quadrupol">      0.00000000 </i>
    <i name="Eion">      0.00000000 </i>
   </dipole>
   <energy>
    <i name="e_fr_energy">   -482.47081188 </i>
    <i name="e_wo_entrp">   -482.39657945 </i>
    <i name="e_0_energy">   -482.43369566 </i>
   </energy>
  </scstep>
  <scstep>
   <time name="dav">    1.95    1.95</time>
   <time name="total">    2.02    2.03</time>
   <dipole>
    <v name="dipole">      0.00000000       0.00000000      -0.10930148 </v>
    <i name="Tr[quadrupol]">  -8101.40132383 </i>
    <i name="Echarged">      0.00000000 </i>
    <i name="Edipol_quadrupol">      0.00000000 </i>
    <i name="Eion">      0.00000000 </i>
   </dipole>
   <energy>
    <i name="e_fr_energy">   -482.36373614 </i>
    <i name="e_wo_entrp">   -482.27293578 </i>
    <i name="e_0_energy">   -482.31833596 </i>
   </energy>
  </scstep>
  <scstep>
   <time name="dav">    1.99    2.00</time>
   <time name="total">    2.07    2.08</time>
   <dipole>
    <v name="dipole">      0.00000000       0.00000000      -0.10904413 </v>
    <i name="Tr[quadrupol]">  -8101.55268105 </i>
    <i name="Echarged">      0.00000000 </i>
    <i name="Edipol_quadrupol">      0.00000000 </i>
    <i name="Eion">      0.00000000 </i>
   </dipole>
   <energy>
    <i name="e_fr_energy">   -482.40190083 </i>
    <i name="e_wo_entrp">   -482.34823667 </i>
    <i name="e_0_energy">   -482.37506875 </i>
   </energy>
  </scstep>
  <scstep>
   <time name="dav">    1.97    1.97</time>
   <time name="total">    2.05    2.05</time>
   <dipole>
    <v name="dipole">      0.00000000       0.00000000      -0.09661725 </v>
    <i name="Tr[quadrupol]">  -8101.70014335 </i>
    <i name="Echarged">      0.00000000 </i>
    <i name="Edipol_quadrupol">      0.00000000 </i>
    <i name="Eion">      0.00000000 </i>
   </dipole>
   <energy>
    <i name="e_fr_energy">   -482.39067108 </i>
    <i name="e_wo_entrp">   -482.31419863 </i>
    <i name="e_0_energy">   -482.35243486 </i>
   </energy>
  </scstep>
  <scstep>
   <time name="dav">    2.14    2.14</time>
   <time name="total">    2.21    2.22</time>
   <dipole>
    <v name="dipole">      0.00000000       0.00000000      -0.06810696 </v>
    <i name="Tr[quadrupol]">  -8102.00371220 </i>
    <i name="Echarged">      0.00000000 </i>
    <i name="Edipol_quadrupol">      0.00000000 </i>
    <i name="Eion">      0.00000000 </i>
   </dipole>
   <energy>
    <i name="e_fr_energy">   -482.32989184 </i>
    <i name="e_wo_entrp">   -482.23958011 </i>
    <i name="e_0_energy">   -482.28473597 </i>
   </energy>
  </scstep>
  <scstep>
   <time name="dav">    2.24    2.24</time>
   <time name="total">    2.32    2.32</time>
   <dipole>
    <v name="dipole">      0.00000000       0.00000000      -0.04066295 </v>
    <i name="Tr[quadrupol]">  -8102.20590667 </i>
    <i name="Echarged">      0.00000000 </i>
    <i name="Edipol_quadrupol">      0.00000000 </i>
    <i name="Eion">      0.00000000 </i>
   </dipole>
   <energy>
    <i name="e_fr_energy">   -482.30449001 </i>
    <i name="e_wo_entrp">   -482.20793280 </i>
    <i name="e_0_energy">   -482.25621140 </i>
   </energy>
  </scstep>
  <scstep>
   <time name="dav">    2.10    2.10</time>
   <time name="total">    2.18    2.18</time>
   <dipole>
    <v name="dipole">      0.00000000       0.00000000      -0.02408392 </v>
    <i name="Tr[quadrupol]">  -8102.31444222 </i>
    <i name="Echarged">      0.00000000 </i>
    <i name="Edipol_quadrupol">      0.00000000 </i>
    <i name="Eion">      0.00000000 </i>
   </dipole>
   <energy>
    <i name="e_fr_energy">   -482.30231523 </i>
    <i name="e_wo_entrp">   -482.20647830 </i>
    <i name="e_0_energy">   -482.25439677 </i>
   </energy>
  </scstep>
  <scstep>
   <time name="dav">    2.11    2.11</time>
   <time name="total">    2.18    2.20</time>
   <dipole>
    <v name="dipole">      0.00000000       0.00000000      -0.01097021 </v>
    <i name="Tr[quadrupol]">  -8102.47230152 </i>
    <i name="Echarged">      0.00000000 </i>
    <i name="Edipol_quadrupol">      0.00000000 </i>
    <i name="Eion">      0.00000000 </i>
   </dipole>
   <energy>
    <i name="e_fr_energy">   -482.30533736 </i>
    <i name="e_wo_entrp">   -482.21222621 </i>
    <i name="e_0_energy">   -482.25878178 </i>
   </energy>
  </scstep>
  <scstep>
   <time name="dav">    1.96    1.96</time>
   <time name="total">    2.04    2.04</time>
   <dipole>
    <v name="dipole">      0.00000000       0.00000000       0.01505231 </v>
    <i name="Tr[quadrupol]">  -8102.71169289 </i>
    <i name="Echarged">      0.00000000 </i>
    <i name="Edipol_quadrupol">      0.00000000 </i>
    <i name="Eion">      0.00000000 </i>
   </dipole>
   <energy>
    <i name="e_fr_energy">   -482.31192592 </i>
    <i name="e_wo_entrp">   -482.21984199 </i>
    <i name="e_0_energy">   -482.26588396 </i>
   </energy>
  </scstep>
  <scstep>
   <time name="dav">    2.02    2.02</time>
   <time name="total">    2.10    2.10</time>
   <dipole>
    <v name="dipole">      0.00000000       0.00000000       0.01787180 </v>
    <i name="Tr[quadrupol]">  -8102.77369565 </i>
    <i name="Echarged">      0.00000000 </i>
    <i name="Edipol_quadrupol">      0.00000000 </i>
    <i name="Eion">      0.00000000 </i>
   </dipole>
   <energy>
    <i name="e_fr_energy">   -482.31091035 </i>
    <i name="e_wo_entrp">   -482.22165989 </i>
    <i name="e_0_energy">   -482.26628512 </i>
   </energy>
  </scstep>
  <scstep>
   <time name="dav">    1.98    1.98</time>
   <time name="total">    2.06    2.06</time>
   <dipole>
    <v name="dipole">      0.00000000       0.00000000       0.02080889 </v>
    <i name="Tr[quadrupol]">  -8102.83922010 </i>
    <i name="Echarged">      0.00000000 </i>
    <i name="Edipol_quadrupol">      0.00000000 </i>
    <i name="Eion">      0.00000000 </i>
   </dipole>
   <energy>
    <i name="e_fr_energy">   -482.31102192 </i>
    <i name="e_wo_entrp">   -482.22025475 </i>
    <i name="e_0_energy">   -482.26563834 </i>
   </energy>
  </scstep>
  <scstep>
   <time name="dav">    2.06    2.06</time>
   <time name="total">    2.13    2.14</time>
   <dipole>
    <v name="dipole">      0.00000000       0.00000000       0.02951776 </v>
    <i name="Tr[quadrupol]">  -8102.99950815 </i>
    <i name="Echarged">      0.00000000 </i>
    <i name="Edipol_quadrupol">      0.00000000 </i>
    <i name="Eion">      0.00000000 </i>
   </dipole>
   <energy>
    <i name="e_fr_energy">   -482.31312761 </i>
    <i name="e_wo_entrp">   -482.22524389 </i>
    <i name="e_0_energy">   -482.26918575 </i>
   </energy>
  </scstep>
  <scstep>
   <time name="dav">    1.64    1.65</time>
   <time name="total">    1.72    1.73</time>
   <dipole>
    <v name="dipole">      0.00000000       0.00000000       0.03458331 </v>
    <i name="Tr[quadrupol]">  -8103.03511860 </i>
    <i name="Echarged">      0.00000000 </i>
    <i name="Edipol_quadrupol">      0.00000000 </i>
    <i name="Eion">      0.00000000 </i>
   </dipole>
   <energy>
    <i name="e_fr_energy">   -482.31302971 </i>
    <i name="e_wo_entrp">   -482.22325308 </i>
    <i name="e_0_energy">   -482.26814139 </i>
   </energy>
  </scstep>
  <scstep>
   <time name="dav">    1.48    1.48</time>
   <time name="total">    1.56    1.57</time>
   <dipole>
    <v name="dipole">      0.00000000       0.00000000       0.03182560 </v>
    <i name="Tr[quadrupol]">  -8103.09386892 </i>
    <i name="Echarged">      0.00000000 </i>
    <i name="Edipol_quadrupol">      0.00000000 </i>
    <i name="Eion">      0.00000000 </i>
   </dipole>
   <energy>
    <i name="e_fr_energy">   -482.31414254 </i>
    <i name="e_wo_entrp">   -482.22598011 </i>
    <i name="e_0_energy">   -482.27006133 </i>
   </energy>
  </scstep>
  <scstep>
   <time name="dav">    1.83    1.83</time>
   <time name="total">    1.91    1.91</time>
   <dipole>
    <v name="dipole">      0.00000000       0.00000000       0.04550722 </v>
    <i name="Tr[quadrupol]">  -8103.21375085 </i>
    <i name="Echarged">      0.00000000 </i>
    <i name="Edipol_quadrupol">      0.00000000 </i>
    <i name="Eion">      0.00000000 </i>
   </dipole>
   <energy>
    <i name="e_fr_energy">   -482.31461496 </i>
    <i name="e_wo_entrp">   -482.22347288 </i>
    <i name="e_0_energy">   -482.26904392 </i>
   </energy>
  </scstep>
  <scstep>
   <time name="dav">    1.82    1.82</time>
   <time name="total">    1.90    1.90</time>
   <dipole>
    <v name="dipole">      0.00000000       0.00000000       0.04736871 </v>
    <i name="Tr[quadrupol]">  -8103.25683764 </i>
    <i name="Echarged">      0.00000000 </i>
    <i name="Edipol_quadrupol">      0.00000000 </i>
    <i name="Eion">      0.00000000 </i>
   </dipole>
   <energy>
    <i name="e_fr_energy">   -482.31487308 </i>
    <i name="e_wo_entrp">   -482.22377212 </i>
    <i name="e_0_energy">   -482.26932260 </i>
   </energy>
  </scstep>
  <scstep>
   <time name="dav">    1.36    1.36</time>
   <time name="total">    1.44    1.44</time>
   <dipole>
    <v name="dipole">      0.00000000       0.00000000       0.04775160 </v>
    <i name="Tr[quadrupol]">  -8103.27554764 </i>
    <i name="Echarged">      0.00000000 </i>
    <i name="Edipol_quadrupol">      0.00000000 </i>
    <i name="Eion">      0.00000000 </i>
   </dipole>
   <energy>
    <i name="e_fr_energy">   -482.31494241 </i>
    <i name="e_wo_entrp">   -482.22359660 </i>
    <i name="e_0_energy">   -482.26926951 </i>
   </energy>
  </scstep>
  <scstep>
   <time name="dav">    1.45    1.45</time>
   <time name="total">    1.53    1.53</time>
   <dipole>
    <v name="dipole">      0.00000000       0.00000000       0.04302290 </v>
    <i name="Tr[quadrupol]">  -8103.29908892 </i>
    <i name="Echarged">      0.00000000 </i>
    <i name="Edipol_quadrupol">      0.00000000 </i>
    <i name="Eion">      0.00000000 </i>
   </dipole>
   <energy>
    <i name="e_fr_energy">   -482.31515399 </i>
    <i name="e_wo_entrp">   -482.22432648 </i>
    <i name="e_0_energy">   -482.26974024 </i>
   </energy>
  </scstep>
  <scstep>
   <time name="dav">    1.21    1.22</time>
   <time name="total">    1.30    1.30</time>
   <dipole>
    <v name="dipole">      0.00000000       0.00000000       0.04114479 </v>
    <i name="Tr[quadrupol]">  -8103.30080556 </i>
    <i name="Echarged">      0.00000000 </i>
    <i name="Edipol_quadrupol">      0.00000000 </i>
    <i name="Eion">      0.00000000 </i>
   </dipole>
   <energy>
    <i name="e_fr_energy">   -482.31521539 </i>
    <i name="e_wo_entrp">   -482.22417517 </i>
    <i name="e_0_energy">   -482.26969528 </i>
   </energy>
  </scstep>
  <scstep>
   <time name="dav">    1.11    1.11</time>
   <time name="total">    1.19    1.19</time>
   <dipole>
    <v name="dipole">      0.00000000       0.00000000       0.03987937 </v>
    <i name="Tr[quadrupol]">  -8103.29947710 </i>
    <i name="Echarged">      0.00000000 </i>
    <i name="Edipol_quadrupol">      0.00000000 </i>
    <i name="Eion">      0.00000000 </i>
   </dipole>
   <energy>
    <i name="e_fr_energy">   -482.31525709 </i>
    <i name="e_wo_entrp">   -482.22422671 </i>
    <i name="e_0_energy">   -482.26974190 </i>
   </energy>
  </scstep>
  <scstep>
   <time name="dav">    1.14    1.15</time>
   <time name="total">    1.22    1.23</time>
   <dipole>
    <v name="dipole">      0.00000000       0.00000000       0.03862201 </v>
    <i name="Tr[quadrupol]">  -8103.30106180 </i>
    <i name="Echarged">      0.00000000 </i>
    <i name="Edipol_quadrupol">      0.00000000 </i>
    <i name="Eion">      0.00000000 </i>
   </dipole>
   <energy>
    <i name="e_fr_energy">   -482.31528772 </i>
    <i name="e_wo_entrp">   -482.22435326 </i>
    <i name="e_0_energy">   -482.26982049 </i>
   </energy>
  </scstep>
  <scstep>
   <time name="dav">    1.23    1.23</time>
   <time name="total">    1.32    1.32</time>
   <dipole>
    <v name="dipole">      0.00000000       0.00000000       0.03804137 </v>
    <i name="Tr[quadrupol]">  -8103.30646725 </i>
    <i name="Echarged">      0.00000000 </i>
    <i name="Edipol_quadrupol">      0.00000000 </i>
    <i name="Eion">      0.00000000 </i>
   </dipole>
   <energy>
    <i name="e_fr_energy">   -482.31531008 </i>
    <i name="e_wo_entrp">   -482.22429905 </i>
    <i name="e_0_energy">   -482.26980456 </i>
   </energy>
  </scstep>
  <scstep>
   <time name="dav">    1.17    1.17</time>
   <time name="total">    1.26    1.26</time>
   <dipole>
    <v name="dipole">      0.00000000       0.00000000       0.03770768 </v>
    <i name="Tr[quadrupol]">  -8103.30875434 </i>
    <i name="Echarged">      0.00000000 </i>
    <i name="Edipol_quadrupol">      0.00000000 </i>
    <i name="Eion">      0.00000000 </i>
   </dipole>
   <energy>
    <i name="e_fr_energy">   -482.31532198 </i>
    <i name="e_wo_entrp">   -482.22433057 </i>
    <i name="e_0_energy">   -482.26982627 </i>
   </energy>
  </scstep>
  <scstep>
   <time name="dav">    1.13    1.13</time>
   <time name="total">    1.21    1.21</time>
   <dipole>
    <v name="dipole">      0.00000000       0.00000000       0.03702975 </v>
    <i name="Tr[quadrupol]">  -8103.30616661 </i>
    <i name="Echarged">      0.00000000 </i>
    <i name="Edipol_quadrupol">      0.00000000 </i>
    <i name="Eion">      0.00000000 </i>
   </dipole>
   <energy>
    <i name="e_fr_energy">   -482.31533740 </i>
    <i name="e_wo_entrp">   -482.22429065 </i>
    <i name="e_0_energy">   -482.26981402 </i>
   </energy>
  </scstep>
  <scstep>
   <time name="dav">    1.12    1.12</time>
   <time name="total">    1.16    1.16</time>
   <dipole>
    <v name="dipole">      0.00000000       0.00000000       0.03685380 </v>
    <i name="Tr[quadrupol]">  -8103.30870140 </i>
    <i name="Echarged">      0.00000000 </i>
    <i name="Edipol_quadrupol">      0.00000000 </i>
    <i name="Eion">      0.00000000 </i>
   </dipole>
   <energy>
    <i name="alphaZ">    170.83241325 </i>
    <i name="ewald">  28784.59497549 </i>
    <i name="hartreedc"> -42340.20439391 </i>
    <i name="XCdc">   1047.07079178 </i>
    <i name="pawpsdc">  31032.69341005 </i>
    <i name="pawaedc"> -31251.85600190 </i>
    <i name="eentropy">     -0.09100336 </i>
    <i name="bandstr">  -3511.26815870 </i>
    <i name="atom">  15585.91262314 </i>
    <i name="e_fr_energy">   -482.31534415 </i>
    <i name="e_wo_entrp">   -482.22434079 </i>
    <i name="e_0_energy">   -482.26984247 </i>
   </energy>
  </scstep>
  <structure>
   <crystal>
    <varray name="basis" >
     <v>      13.75970367       0.00000000       0.00000000 </v>
     <v>       0.00000000      11.28669971       0.00000000 </v>
     <v>       0.00000000       0.00000000      15.00000000 </v>
    </varray>
    <i name="volume">   2329.52465126 </i>
    <varray name="rec_basis" >
     <v>       0.07267598       0.00000000       0.00000000 </v>
     <v>       0.00000000       0.08859986       0.00000000 </v>
     <v>       0.00000000       0.00000000       0.06666667 </v>
    </varray>
   </crystal>
   <varray name="positions" >
    <v>       0.07054120       0.38816457       0.22227495 </v>
    <v>       0.98151180       0.21832942       0.16785344 </v>
    <v>       0.22877304       0.39667288       0.18904348 </v>
    <v>       0.82472337       0.57572318       0.18403191 </v>
    <v>       0.14970601       0.24663792       0.12277753 </v>
    <v>       0.90758628       0.38434512       0.21811946 </v>
    <v>       0.56886571       0.39316130       0.23173729 </v>
    <v>       0.47768100       0.22391730       0.18017943 </v>
    <v>       0.73035049       0.39802658       0.19909345 </v>
    <v>       0.31101118       0.58132963       0.17977696 </v>
    <v>       0.64681854       0.25040749       0.13377315 </v>
    <v>       0.40275100       0.39355427       0.22106508 </v>
    <v>       0.81808056       0.88988957       0.05647519 </v>
    <v>       0.73319531       0.72568325       0.12448457 </v>
    <v>       0.97932824       0.89597624       0.07999408 </v>
    <v>       0.06867909       0.07698375       0.09423854 </v>
    <v>       0.90528082       0.74258583       0.14719628 </v>
    <v>       0.65472406       0.89333727       0.07691603 </v>
    <v>       0.31825350       0.89473226       0.05377466 </v>
    <v>       0.22716619       0.72126926       0.10084126 </v>
    <v>       0.47498917       0.90396535       0.09489577 </v>
    <v>       0.56592959       0.08075138       0.11024766 </v>
    <v>       0.38612516       0.76037560       0.16363174 </v>
    <v>       0.15509033       0.88950396       0.05271529 </v>
    <v>       0.98784551       0.43883046       0.24713656 </v>
    <v>       0.89991795       0.26975381       0.19549767 </v>
    <v>       0.15759857       0.43325808       0.24240148 </v>
    <v>       0.14788829       0.14353661       0.08017307 </v>
    <v>       0.98633649       0.10796021       0.13653167 </v>
    <v>       0.22915942       0.31533454       0.12527490 </v>
    <v>       0.06735802       0.28598388       0.16888911 </v>
    <v>       0.82274912       0.45552252       0.21014877 </v>
    <v>       0.48493735       0.44793349       0.25146232 </v>
    <v>       0.39648714       0.27665554       0.20625030 </v>
    <v>       0.65756919       0.43524210       0.25419888 </v>
    <v>       0.64488604       0.14640144       0.09374788 </v>
    <v>       0.48286722       0.11321356       0.15081376 </v>
    <v>       0.72606390       0.31870920       0.13454719 </v>
    <v>       0.56470606       0.29135323       0.18008364 </v>
    <v>       0.31888640       0.46086995       0.20329135 </v>
    <v>       0.73287748       0.94248397       0.03965616 </v>
    <v>       0.64891188       0.78317499       0.11254597 </v>
    <v>       0.90382696       0.93469024       0.03189926 </v>
    <v>       0.90701680       0.63807548       0.18754912 </v>
    <v>       0.73647441       0.61699787       0.15934394 </v>
    <v>       0.98321706       0.81212363       0.14197152 </v>
    <v>       0.81925020       0.78400528       0.10639513 </v>
    <v>       0.56804185       0.96074410       0.08520074 </v>
    <v>       0.23699719       0.94478449       0.02657725 </v>
    <v>       0.14820250       0.77173059       0.06843984 </v>
    <v>       0.40793432       0.93556381       0.03646331 </v>
    <v>       0.38047481       0.65838217       0.20939239 </v>
    <v>       0.23501053       0.60894863       0.12850628 </v>
    <v>       0.46527775       0.83024755       0.16578047 </v>
    <v>       0.31113112       0.79334051       0.10891910 </v>
    <v>       0.06990262       0.95754122       0.06514651 </v>
    <v>       0.57736557       0.77647674       0.24193941 </v>
    <v>       0.65582252       0.60772566       0.29790490 </v>
    <v>       0.48700699       0.61617049       0.29396059 </v>
   </varray>
  </structure>
  <varray name="forces" >
   <v>       0.01336459      -0.01059174      -0.02588722 </v>
   <v>       0.03996144       0.10663403       0.03339726 </v>
   <v>       0.03133713       0.05788815      -0.00746020 </v>
   <v>       0.15244424       0.02898497       0.15073247 </v>
   <v>       0.03264651       0.12306663       0.06732560 </v>
   <v>       0.01837157       0.06996611       0.01405887 </v>
   <v>      -0.00217016      -0.06961143      -0.06640173 </v>
   <v>       0.16382631       0.21994572       0.05230108 </v>
   <v>      -0.15761463       0.21542740       0.24801580 </v>
   <v>      -0.15793340       0.06882463      -0.06704193 </v>
   <v>       0.01417599       0.29976085       0.08814023 </v>
   <v>       0.14390149       0.06619860       0.04921792 </v>
   <v>       0.07089243       0.00103340       0.03153268 </v>
   <v>       0.17013890       0.03663874      -0.11352731 </v>
   <v>       0.01610341       0.08959974      -0.00986489 </v>
   <v>       0.00688241       0.13834378      -0.00970768 </v>
   <v>       0.03258549       0.18270625      -0.08019065 </v>
   <v>       0.06530959       0.07913635       0.01695794 </v>
   <v>      -0.05061194      -0.04231580       0.04423671 </v>
   <v>       0.11603444       0.18331934      -0.01982173 </v>
   <v>       0.02489463       0.04942088       0.10765860 </v>
   <v>       0.03123415       0.23967628      -0.05310931 </v>
   <v>      -0.09721597       0.13703765      -0.20057871 </v>
   <v>      -0.08915687       0.03255905      -0.00237878 </v>
   <v>       0.01968543      -0.01305766      -0.01783638 </v>
   <v>      -0.03460106      -0.01970631       0.01043315 </v>
   <v>       0.02839272       0.00313375      -0.00579391 </v>
   <v>      -0.06457076      -0.09389284      -0.02161295 </v>
   <v>       0.06450478      -0.04378485      -0.03505734 </v>
   <v>      -0.01379818      -0.09201630      -0.07305798 </v>
   <v>      -0.01992992      -0.02109511       0.01741201 </v>
   <v>       0.01015839      -0.07534661       0.05684024 </v>
   <v>      -0.22249712      -0.99337939      -0.50166542 </v>
   <v>      -0.01434785      -0.08565303       0.09380124 </v>
   <v>       0.31347792      -0.17496550      -0.01367139 </v>
   <v>      -0.12141920      -0.21325481      -0.03453154 </v>
   <v>       0.04969756      -0.16967833      -0.06685209 </v>
   <v>      -0.13010546      -0.17266203      -0.21837723 </v>
   <v>      -0.12669534      -0.21506939      -0.09844123 </v>
   <v>      -0.13277486      -0.09757155      -0.08506672 </v>
   <v>      -0.03755912       0.00112222      -0.00594121 </v>
   <v>       0.01019619       0.02707535      -0.01541756 </v>
   <v>      -0.02497126      -0.01963048       0.02562011 </v>
   <v>      -0.09827451      -0.22608219       0.01754726 </v>
   <v>      -0.08112125       0.03027454       0.02268655 </v>
   <v>      -0.05180174      -0.12963932       0.00788607 </v>
   <v>      -0.09101306      -0.08214422       0.11621143 </v>
   <v>      -0.03622792      -0.15053189      -0.06217974 </v>
   <v>       0.04259481      -0.00348410       0.04360517 </v>
   <v>      -0.05757343       0.00766670      -0.06515857 </v>
   <v>       0.08470729      -0.01512246       0.00325640 </v>
   <v>      -0.99262787       0.06477693      -0.75329290 </v>
   <v>       0.08285580      -0.04880105       0.09578500 </v>
   <v>      -0.03344696       0.10608365      -0.02345679 </v>
   <v>      -0.05184815      -0.07505699      -0.01767355 </v>
   <v>      -0.01352615      -0.14054298      -0.03544026 </v>
   <v>       0.34334376       0.65860113      -0.23697445 </v>
   <v>       0.86703269      -0.03701116       0.08603454 </v>
   <v>      -0.05531795       0.20679664       1.54277503 </v>
  </varray>
  <varray name="stress" >
   <v>      -3.13566174       4.72886607       1.08368199 </v>
   <v>       4.72886608      -4.70932967      -0.22608470 </v>
   <v>       1.08368196      -0.22608469     -11.81274537 </v>
  </varray>
  <energy>
   <i name="e_fr_energy">   -482.31534415 </i>
   <i name="e_wo_entrp">   -482.22434079 </i>
   <i name="e_0_energy">   -482.26984247 </i>
  </energy>
  <time name="totalsc">   74.03   74.17</time>
 </calculation>
 <calculation>
  <scstep>
   <time name="dav">    1.46    1.47</time>
   <time name="total">    1.53    1.54</time>
   <dipole>
    <v name="dipole">      0.00000000       0.00000000       0.03667076 </v>
    <i name="Tr[quadrupol]">  -8085.80916212 </i>
    <i name="Echarged">      0.00000000 </i>
    <i name="Edipol_quadrupol">      0.00000000 </i>
    <i name="Eion">      0.00000000 </i>
   </dipole>
   <energy>
    <i name="alphaZ">    171.15057006 </i>
    <i name="ewald">  28830.08574005 </i>
    <i name="hartreedc"> -42389.35019611 </i>
    <i name="XCdc">   1047.72344013 </i>
    <i name="pawpsdc">  31032.69383775 </i>
    <i name="pawaedc"> -31251.85788783 </i>
    <i name="eentropy">     -0.08124105 </i>
    <i name="bandstr">  -3508.65696421 </i>
    <i name="atom">  15585.91262314 </i>
    <i name="e_fr_energy">   -482.38007805 </i>
    <i name="e_wo_entrp">   -482.29883700 </i>
    <i name="e_0_energy">   -482.33945753 </i>
   </energy>
  </scstep>
  <scstep>
   <time name="dav">    1.98    1.98</time>
   <time name="total">    2.06    2.06</time>
   <dipole>
    <v name="dipole">      0.00000000       0.00000000       0.04310718 </v>
    <i name="Tr[quadrupol]">  -8085.80687924 </i>
    <i name="Echarged">      0.00000000 </i>
    <i name="Edipol_quadrupol">      0.00000000 </i>
    <i name="Eion">      0.00000000 </i>
   </dipole>
   <energy>
    <i name="e_fr_energy">   -482.39158937 </i>
    <i name="e_wo_entrp">   -482.30452590 </i>
    <i name="e_0_energy">   -482.34805764 </i>
   </energy>
  </scstep>
  <scstep>
   <time name="dav">    1.99    1.99</time>
   <time name="total">    2.07    2.07</time>
   <dipole>
    <v name="dipole">      0.00000000       0.00000000       0.04154610 </v>
    <i name="Tr[quadrupol]">  -8085.81149798 </i>
    <i name="Echarged">      0.00000000 </i>
    <i name="Edipol_quadrupol">      0.00000000 </i>
    <i name="Eion">      0.00000000 </i>
   </dipole>
   <energy>
    <i name="e_fr_energy">   -482.39089699 </i>
    <i name="e_wo_entrp">   -482.30650669 </i>
    <i name="e_0_energy">   -482.34870184 </i>
   </energy>
  </scstep>
  <scstep>
   <time name="dav">    1.98    1.98</time>
   <time name="total">    2.05    2.06</time>
   <dipole>
    <v name="dipole">      0.00000000       0.00000000       0.03734664 </v>
    <i name="Tr[quadrupol]">  -8085.80854940 </i>
    <i name="Echarged">      0.00000000 </i>
    <i name="Edipol_quadrupol">      0.00000000 </i>
    <i name="Eion">      0.00000000 </i>
   </dipole>
   <energy>
    <i name="e_fr_energy">   -482.39194316 </i>
    <i name="e_wo_entrp">   -482.31676276 </i>
    <i name="e_0_energy">   -482.35435296 </i>
   </energy>
  </scstep>
  <scstep>
   <time name="dav">    1.95    1.95</time>
   <time name="total">    2.02    2.03</time>
   <dipole>
    <v name="dipole">      0.00000000       0.00000000       0.04317378 </v>
    <i name="Tr[quadrupol]">  -8085.81248544 </i>
    <i name="Echarged">      0.00000000 </i>
    <i name="Edipol_quadrupol">      0.00000000 </i>
    <i name="Eion">      0.00000000 </i>
   </dipole>
   <energy>
    <i name="e_fr_energy">   -482.39091198 </i>
    <i name="e_wo_entrp">   -482.30002306 </i>
    <i name="e_0_energy">   -482.34546752 </i>
   </energy>
  </scstep>
  <scstep>
   <time name="dav">    1.87    1.88</time>
   <time name="total">    1.95    1.96</time>
   <dipole>
    <v name="dipole">      0.00000000       0.00000000       0.04017864 </v>
    <i name="Tr[quadrupol]">  -8085.81061808 </i>
    <i name="Echarged">      0.00000000 </i>
    <i name="Edipol_quadrupol">      0.00000000 </i>
    <i name="Eion">      0.00000000 </i>
   </dipole>
   <energy>
    <i name="e_fr_energy">   -482.38923807 </i>
    <i name="e_wo_entrp">   -482.30628975 </i>
    <i name="e_0_energy">   -482.34776391 </i>
   </energy>
  </scstep>
  <scstep>
   <time name="dav">    1.83    1.83</time>
   <time name="total">    1.90    1.91</time>
   <dipole>
    <v name="dipole">      0.00000000       0.00000000       0.04077933 </v>
    <i name="Tr[quadrupol]">  -8085.81152406 </i>
    <i name="Echarged">      0.00000000 </i>
    <i name="Edipol_quadrupol">      0.00000000 </i>
    <i name="Eion">      0.00000000 </i>
   </dipole>
   <energy>
    <i name="e_fr_energy">   -482.38912825 </i>
    <i name="e_wo_entrp">   -482.30379958 </i>
    <i name="e_0_energy">   -482.34646392 </i>
   </energy>
  </scstep>
  <scstep>
   <time name="dav">    1.45    1.45</time>
   <time name="total">    1.52    1.53</time>
   <dipole>
    <v name="dipole">      0.00000000       0.00000000       0.04079304 </v>
    <i name="Tr[quadrupol]">  -8085.81262214 </i>
    <i name="Echarged">      0.00000000 </i>
    <i name="Edipol_quadrupol">      0.00000000 </i>
    <i name="Eion">      0.00000000 </i>
   </dipole>
   <energy>
    <i name="e_fr_energy">   -482.38905058 </i>
    <i name="e_wo_entrp">   -482.30423861 </i>
    <i name="e_0_energy">   -482.34664460 </i>
   </energy>
  </scstep>
  <scstep>
   <time name="dav">    1.30    1.30</time>
   <time name="total">    1.34    1.34</time>
   <dipole>
    <v name="dipole">      0.00000000       0.00000000       0.04100188 </v>
    <i name="Tr[quadrupol]">  -8085.81399192 </i>
    <i name="Echarged">      0.00000000 </i>
    <i name="Edipol_quadrupol">      0.00000000 </i>
    <i name="Eion">      0.00000000 </i>
   </dipole>
   <energy>
    <i name="alphaZ">    171.07854364 </i>
    <i name="ewald">  28830.08574005 </i>
    <i name="hartreedc"> -42386.38273503 </i>
    <i name="XCdc">   1047.51041839 </i>
    <i name="pawpsdc">  31118.23725168 </i>
    <i name="pawaedc"> -31337.20464768 </i>
    <i name="eentropy">     -0.08471808 </i>
    <i name="bandstr">  -3511.54152698 </i>
    <i name="atom">  15585.91262314 </i>
    <i name="e_fr_energy">   -482.38905087 </i>
    <i name="e_wo_entrp">   -482.30433278 </i>
    <i name="e_0_energy">   -482.34669183 </i>
   </energy>
  </scstep>
  <structure>
   <crystal>
    <varray name="basis" >
     <v>      13.74944469       0.00000000       0.00000000 </v>
     <v>       0.00000000      11.27406131       0.00000000 </v>
     <v>       0.00000000       0.00000000      15.00000000 </v>
    </varray>
    <i name="volume">   2325.18123687 </i>
    <varray name="rec_basis" >
     <v>       0.07273021       0.00000000       0.00000000 </v>
     <v>       0.00000000       0.08869918       0.00000000 </v>
     <v>       0.00000000       0.00000000       0.06666667 </v>
    </varray>
   </crystal>
   <varray name="positions" >
    <v>       0.07055057       0.38815552       0.22225830 </v>
    <v>       0.98153982       0.21842058       0.16787492 </v>
    <v>       0.22879501       0.39672237       0.18903868 </v>
    <v>       0.82483027       0.57574796       0.18412887 </v>
    <v>       0.14972890       0.24674312       0.12282083 </v>
    <v>       0.90759917       0.38440493       0.21812850 </v>
    <v>       0.56886419       0.39310179       0.23169458 </v>
    <v>       0.47779588       0.22410532       0.18021307 </v>
    <v>       0.73023997       0.39821074       0.19925299 </v>
    <v>       0.31090044       0.58138846       0.17973383 </v>
    <v>       0.64682848       0.25066374       0.13382984 </v>
    <v>       0.40285190       0.39361086       0.22109673 </v>
    <v>       0.81813028       0.88989045       0.05649548 </v>
    <v>       0.73331461       0.72571457       0.12441155 </v>
    <v>       0.97933953       0.89605283       0.07998773 </v>
    <v>       0.06868392       0.07710202       0.09423230 </v>
    <v>       0.90530367       0.74274201       0.14714470 </v>
    <v>       0.65476985       0.89340492       0.07692694 </v>
    <v>       0.31821801       0.89469609       0.05380311 </v>
    <v>       0.22724755       0.72142597       0.10082851 </v>
    <v>       0.47500662       0.90400760       0.09496502 </v>
    <v>       0.56595150       0.08095627       0.11021350 </v>
    <v>       0.38605699       0.76049274       0.16350272 </v>
    <v>       0.15502781       0.88953179       0.05271375 </v>
    <v>       0.98785932       0.43881930       0.24712509 </v>
    <v>       0.89989368       0.26973697       0.19550438 </v>
    <v>       0.15761848       0.43326076       0.24239775 </v>
    <v>       0.14784301       0.14345635       0.08015917 </v>
    <v>       0.98638172       0.10792278       0.13650912 </v>
    <v>       0.22914975       0.31525588       0.12522791 </v>
    <v>       0.06734404       0.28596585       0.16890031 </v>
    <v>       0.82275625       0.45545811       0.21018534 </v>
    <v>       0.48478133       0.44708429       0.25113963 </v>
    <v>       0.39647708       0.27658232       0.20631064 </v>
    <v>       0.65778900       0.43509253       0.25419009 </v>
    <v>       0.64480090       0.14621914       0.09372567 </v>
    <v>       0.48290207       0.11306851       0.15077076 </v>
    <v>       0.72597267       0.31856159       0.13440672 </v>
    <v>       0.56461722       0.29116938       0.18002031 </v>
    <v>       0.31879330       0.46078654       0.20323663 </v>
    <v>       0.73285115       0.94248492       0.03965234 </v>
    <v>       0.64891902       0.78319813       0.11253605 </v>
    <v>       0.90380945       0.93467346       0.03191574 </v>
    <v>       0.90694789       0.63788221       0.18756041 </v>
    <v>       0.73641753       0.61702375       0.15935853 </v>
    <v>       0.98318074       0.81201281       0.14197659 </v>
    <v>       0.81918638       0.78393506       0.10646988 </v>
    <v>       0.56801644       0.96061542       0.08516074 </v>
    <v>       0.23702706       0.94478151       0.02660530 </v>
    <v>       0.14816213       0.77173715       0.06839793 </v>
    <v>       0.40799372       0.93555088       0.03646541 </v>
    <v>       0.37977876       0.65843755       0.20890785 </v>
    <v>       0.23506863       0.60890692       0.12856789 </v>
    <v>       0.46525430       0.83033823       0.16576539 </v>
    <v>       0.31109477       0.79327635       0.10890773 </v>
    <v>       0.06989314       0.95742107       0.06512371 </v>
    <v>       0.57760633       0.77703975       0.24178698 </v>
    <v>       0.65643049       0.60769402       0.29796024 </v>
    <v>       0.48696820       0.61634727       0.29495296 </v>
   </varray>
  </structure>
  <varray name="forces" >
   <v>       0.01566431       0.00153203      -0.01497626 </v>
   <v>       0.00797324       0.03200810       0.01449028 </v>
   <v>       0.04251684       0.02302114      -0.02845262 </v>
   <v>       0.01161303      -0.01332090       0.11948708 </v>
   <v>       0.00733502       0.02359750       0.00914665 </v>
   <v>      -0.02768488       0.04334179       0.01700124 </v>
   <v>       0.04488534      -0.14315899      -0.10126438 </v>
   <v>       0.05918932       0.01296808       0.00396292 </v>
   <v>      -0.02345728       0.03604772       0.03350658 </v>
   <v>      -0.23489260      -0.04896793      -0.09525441 </v>
   <v>      -0.05401645       0.03600483      -0.04716055 </v>
   <v>      -0.07793562      -0.08085014      -0.03718466 </v>
   <v>      -0.01419755      -0.00390934       0.03451715 </v>
   <v>       0.07228133      -0.01910901      -0.07807035 </v>
   <v>       0.03059155       0.04397747       0.00617814 </v>
   <v>      -0.00618619       0.05138293      -0.03636097 </v>
   <v>      -0.02961249      -0.00613521       0.01040495 </v>
   <v>      -0.00240399       0.05076710       0.02432045 </v>
   <v>       0.00339877      -0.01719106       0.02571207 </v>
   <v>       0.04376266       0.05667835      -0.00222890 </v>
   <v>       0.02625403       0.07139774       0.04877036 </v>
   <v>      -0.00879253       0.08009256      -0.07905750 </v>
   <v>      -0.12517640       0.09447878      -0.18131264 </v>
   <v>      -0.07066958       0.03980899      -0.02026454 </v>
   <v>       0.02957385       0.03526770       0.01529567 </v>
   <v>      -0.05045481      -0.03831640       0.01750655 </v>
   <v>       0.03219361       0.01792006       0.01586771 </v>
   <v>       0.00308493      -0.01340499      -0.02714119 </v>
   <v>       0.00497891      -0.02427264      -0.00015047 </v>
   <v>       0.03560950      -0.03603816      -0.05588596 </v>
   <v>       0.00460023       0.00949905       0.02244821 </v>
   <v>       0.00442813      -0.05298824       0.08012626 </v>
   <v>      -0.02571351      -0.47823213      -0.27919152 </v>
   <v>      -0.04912457      -0.15125181       0.10033042 </v>
   <v>       0.13096509      -0.12695097       0.09568945 </v>
   <v>      -0.00575722      -0.02171748      -0.02291186 </v>
   <v>      -0.02479594      -0.05458285       0.00468659 </v>
   <v>      -0.02835947       0.03583745      -0.08856130 </v>
   <v>      -0.00708441      -0.09332531      -0.06744924 </v>
   <v>      -0.06185073      -0.04190258      -0.06274441 </v>
   <v>       0.01909223       0.03907896      -0.04019410 </v>
   <v>       0.00328505       0.00255218      -0.00997525 </v>
   <v>       0.01874020       0.01154395      -0.00130359 </v>
   <v>       0.03290626      -0.06978576      -0.00787566 </v>
   <v>      -0.05357532      -0.01708965       0.04635793 </v>
   <v>       0.02682512      -0.04522389      -0.01600414 </v>
   <v>      -0.00036187       0.00547335       0.06424529 </v>
   <v>      -0.00709894      -0.06456567      -0.07468147 </v>
   <v>      -0.00361357       0.04034488       0.01814117 </v>
   <v>      -0.04904661      -0.04287173      -0.05917987 </v>
   <v>       0.05542810      -0.02698730      -0.01228405 </v>
   <v>      -0.49254377       0.07108243      -0.39719560 </v>
   <v>      -0.09257537      -0.00519121      -0.03315429 </v>
   <v>      -0.03556891       0.06705897       0.04962885 </v>
   <v>      -0.04084339       0.04712012      -0.09300970 </v>
   <v>      -0.02199672      -0.06067952      -0.04248221 </v>
   <v>       0.31339220       0.55207191      -0.20120244 </v>
   <v>       0.77512672      -0.00247948       0.06996079 </v>
   <v>      -0.13030491       0.16854424       1.36638335 </v>
  </varray>
  <varray name="stress" >
   <v>      -1.02637091       5.19713764       1.01526307 </v>
   <v>       5.19713764      -3.32905439      -0.23231934 </v>
   <v>       1.01526308      -0.23231935     -11.36539803 </v>
  </varray>
  <energy>
   <i name="e_fr_energy">   -482.38905087 </i>
   <i name="e_wo_entrp">   -482.30433278 </i>
   <i name="e_0_energy">   -482.34669183 </i>
  </energy>
  <time name="totalsc">   17.73   17.76</time>
 </calculation>
 <calculation>
  <scstep>
   <time name="dav">    1.44    1.44</time>
   <time name="total">    1.51    1.51</time>
   <dipole>
    <v name="dipole">      0.00000000       0.00000000       0.04113547 </v>
    <i name="Tr[quadrupol]">  -8055.02354532 </i>
    <i name="Echarged">      0.00000000 </i>
    <i name="Edipol_quadrupol">      0.00000000 </i>
    <i name="Eion">      0.00000000 </i>
   </dipole>
   <energy>
    <i name="alphaZ">    171.64305592 </i>
    <i name="ewald">  28911.12875739 </i>
    <i name="hartreedc"> -42473.66662408 </i>
    <i name="XCdc">   1048.67340774 </i>
    <i name="pawpsdc">  31117.80732104 </i>
    <i name="pawaedc"> -31336.77408449 </i>
    <i name="eentropy">     -0.06845045 </i>
    <i name="bandstr">  -3507.06818711 </i>
    <i name="atom">  15585.91262314 </i>
    <i name="e_fr_energy">   -482.41218090 </i>
    <i name="e_wo_entrp">   -482.34373045 </i>
    <i name="e_0_energy">   -482.37795568 </i>
   </energy>
  </scstep>
  <scstep>
   <time name="dav">    1.98    1.99</time>
   <time name="total">    2.06    2.07</time>
   <dipole>
    <v name="dipole">      0.00000000       0.00000000       0.04892542 </v>
    <i name="Tr[quadrupol]">  -8055.02998203 </i>
    <i name="Echarged">      0.00000000 </i>
    <i name="Edipol_quadrupol">      0.00000000 </i>
    <i name="Eion">      0.00000000 </i>
   </dipole>
   <energy>
    <i name="e_fr_energy">   -482.44826916 </i>
    <i name="e_wo_entrp">   -482.37840661 </i>
    <i name="e_0_energy">   -482.41333788 </i>
   </energy>
  </scstep>
  <scstep>
   <time name="dav">    2.09    2.09</time>
   <time name="total">    2.17    2.17</time>
   <dipole>
    <v name="dipole">      0.00000000       0.00000000       0.05704166 </v>
    <i name="Tr[quadrupol]">  -8055.03078727 </i>
    <i name="Echarged">      0.00000000 </i>
    <i name="Edipol_quadrupol">      0.00000000 </i>
    <i name="Eion">      0.00000000 </i>
   </dipole>
   <energy>
    <i name="e_fr_energy">   -482.46233696 </i>
    <i name="e_wo_entrp">   -482.37423965 </i>
    <i name="e_0_energy">   -482.41828831 </i>
   </energy>
  </scstep>
  <scstep>
   <time name="dav">    1.98    1.98</time>
   <time name="total">    2.07    2.08</time>
   <dipole>
    <v name="dipole">      0.00000000       0.00000000       0.04574301 </v>
    <i name="Tr[quadrupol]">  -8055.02980909 </i>
    <i name="Echarged">      0.00000000 </i>
    <i name="Edipol_quadrupol">      0.00000000 </i>
    <i name="Eion">      0.00000000 </i>
   </dipole>
   <energy>
    <i name="e_fr_energy">   -482.44422680 </i>
    <i name="e_wo_entrp">   -482.38071476 </i>
    <i name="e_0_energy">   -482.41247078 </i>
   </energy>
  </scstep>
  <scstep>
   <time name="dav">    1.93    1.93</time>
   <time name="total">    2.02    2.02</time>
   <dipole>
    <v name="dipole">      0.00000000       0.00000000       0.04896899 </v>
    <i name="Tr[quadrupol]">  -8055.04140972 </i>
    <i name="Echarged">      0.00000000 </i>
    <i name="Edipol_quadrupol">      0.00000000 </i>
    <i name="Eion">      0.00000000 </i>
   </dipole>
   <energy>
    <i name="e_fr_energy">   -482.44132442 </i>
[...]
       <r>    1.8565    0.0000 </r>
       <r>    1.9056    0.0000 </r>
       <r>    2.0502    0.0000 </r>
       <r>    2.2780    0.0000 </r>
       <r>    2.5487    0.0000 </r>
       <r>    2.6100    0.0000 </r>
       <r>    2.6553    0.0000 </r>
       <r>    2.7390    0.0000 </r>
       <r>    2.8090    0.0000 </r>
      </set>
     </set>
    </set>
   </array>
  </eigenvalues>
  <separator name="orbital magnetization" >
   <v name="MAGDIPOLOUT">      0.00000000      0.00000000      0.00000000</v>
  </separator>
  <dos>
   <i name="efermi">     -1.95190361 </i>
   <total>
    <array>
     <dimension dim="1">gridpoints</dimension>
     <dimension dim="2">spin</dimension>
     <field>energy</field>
     <field>total</field>
     <field>integrated</field>
     <set>
      <set comment="spin 1">
       <r>   -27.6665     0.0000     0.0000 </r>
       <r>   -27.5597     0.0000     0.0000 </r>
       <r>   -27.4530     0.0000     0.0000 </r>
       <r>   -27.3462     0.0000     0.0000 </r>
       <r>   -27.2395     0.0000     0.0000 </r>
       <r>   -27.1327     0.0000     0.0000 </r>
       <r>   -27.0260     0.0000     0.0000 </r>
       <r>   -26.9192     0.0000     0.0000 </r>
       <r>   -26.8125     0.0000     0.0000 </r>
       <r>   -26.7058     0.0000     0.0000 </r>
       <r>   -26.5990     0.0000     0.0000 </r>
       <r>   -26.4923     0.0002     0.0000 </r>
       <r>   -26.3855     0.0520     0.0056 </r>
       <r>   -26.2788     1.7368     0.1910 </r>
       <r>   -26.1720    10.5220     1.3141 </r>
       <r>   -26.0653    19.8689     3.4350 </r>
       <r>   -25.9585    18.2716     5.3854 </r>
       <r>   -25.8518     9.4345     6.3925 </r>
       <r>   -25.7451    10.4506     7.5081 </r>
       <r>   -25.6383     4.3257     7.9698 </r>
       <r>   -25.5316     0.2804     7.9997 </r>
       <r>   -25.4248     0.0024     8.0000 </r>
       <r>   -25.3181     0.0002     8.0000 </r>
       <r>   -25.2113     0.0461     8.0049 </r>
       <r>   -25.1046     1.7432     8.1910 </r>
       <r>   -24.9978    10.7777     9.3415 </r>
       <r>   -24.8911    16.4058    11.0927 </r>
       <r>   -24.7844    12.7356    12.4522 </r>
       <r>   -24.6776     9.5555    13.4722 </r>
       <r>   -24.5709     8.7861    14.4100 </r>
       <r>   -24.4641     7.9441    15.2580 </r>
       <r>   -24.3574     2.1550    15.4881 </r>
       <r>   -24.2506     0.1127    15.5001 </r>
       <r>   -24.1439     0.1483    15.5159 </r>
       <r>   -24.0371     1.9750    15.7267 </r>
       <r>   -23.9304    10.1741    16.8128 </r>
       <r>   -23.8236    25.6347    19.5491 </r>
       <r>   -23.7169    25.9342    22.3175 </r>
       <r>   -23.6102    16.5060    24.0794 </r>
       <r>   -23.5034     3.7498    24.4797 </r>
       <r>   -23.3967     0.1945    24.5004 </r>
       <r>   -23.2899     0.4110    24.5443 </r>
       <r>   -23.1832     4.4204    25.0162 </r>
       <r>   -23.0764     9.4780    26.0279 </r>
       <r>   -22.9697     8.2209    26.9054 </r>
       <r>   -22.8629     9.2671    27.8947 </r>
       <r>   -22.7562    12.8979    29.2714 </r>
       <r>   -22.6495    13.4701    30.7093 </r>
       <r>   -22.5427     9.3887    31.7115 </r>
       <r>   -22.4360     2.5674    31.9856 </r>
       <r>   -22.3292     0.1344    31.9999 </r>
       <r>   -22.2225     0.0016    32.0001 </r>
       <r>   -22.1157     0.1038    32.0111 </r>
       <r>   -22.0090     2.8877    32.3194 </r>
       <r>   -21.9022    18.8184    34.3282 </r>
       <r>   -21.7955    39.3992    38.5338 </r>
       <r>   -21.6888    34.9878    42.2686 </r>
       <r>   -21.5820    26.5651    45.1043 </r>
       <r>   -21.4753    19.4241    47.1777 </r>
       <r>   -21.3685     6.9098    47.9153 </r>
       <r>   -21.2618     0.7930    47.9999 </r>
       <r>   -21.1550     0.6978    48.0744 </r>
       <r>   -21.0483     6.3445    48.7516 </r>
       <r>   -20.9415    18.2391    50.6986 </r>
       <r>   -20.8348    21.9627    53.0430 </r>
       <r>   -20.7280    18.0508    54.9698 </r>
       <r>   -20.6213     8.2922    55.8550 </r>
       <r>   -20.5146     3.7950    56.2601 </r>
       <r>   -20.4078    16.2094    57.9903 </r>
       <r>   -20.3011    25.5494    60.7176 </r>
       <r>   -20.1943    12.0153    62.0002 </r>
       <r>   -20.0876     8.7371    62.9328 </r>
       <r>   -19.9808     8.5194    63.8422 </r>
       <r>   -19.8741     1.4439    63.9963 </r>
       <r>   -19.7673     0.0341    64.0000 </r>
       <r>   -19.6606     0.0001    64.0000 </r>
       <r>   -19.5539     0.0000    64.0000 </r>
       <r>   -19.4471     0.0000    64.0000 </r>
       <r>   -19.3404     0.0000    64.0000 </r>
       <r>   -19.2336     0.0000    64.0000 </r>
       <r>   -19.1269     0.0000    64.0000 </r>
       <r>   -19.0201     0.0000    64.0000 </r>
       <r>   -18.9134     0.0000    64.0000 </r>
       <r>   -18.8066     0.0000    64.0000 </r>
       <r>   -18.6999     0.0000    64.0000 </r>
       <r>   -18.5931     0.0000    64.0000 </r>
       <r>   -18.4864     0.0000    64.0000 </r>
       <r>   -18.3797     0.0000    64.0000 </r>
       <r>   -18.2729     0.0000    64.0000 </r>
       <r>   -18.1662     0.0000    64.0000 </r>
       <r>   -18.0594     0.0000    64.0000 </r>
       <r>   -17.9527     0.0000    64.0000 </r>
       <r>   -17.8459     0.0000    64.0000 </r>
       <r>   -17.7392     0.0000    64.0000 </r>
       <r>   -17.6324     0.0020    64.0002 </r>
       <r>   -17.5257     0.2148    64.0231 </r>
       <r>   -17.4190     3.5719    64.4044 </r>
       <r>   -17.3122    13.1690    65.8101 </r>
       <r>   -17.2055    17.3533    67.6625 </r>
       <r>   -17.0987    15.7805    69.3470 </r>
       <r>   -16.9920    19.3493    71.4124 </r>
       <r>   -16.8852    21.1332    73.6683 </r>
       <r>   -16.7785    18.2266    75.6139 </r>
       <r>   -16.6717    13.0541    77.0074 </r>
       <r>   -16.5650    13.4649    78.4447 </r>
       <r>   -16.4583     8.1000    79.3093 </r>
       <r>   -16.3515     1.7151    79.4924 </r>
       <r>   -16.2448     0.6108    79.5576 </r>
       <r>   -16.1380     2.3742    79.8110 </r>
       <r>   -16.0313     1.6096    79.9828 </r>
       <r>   -15.9245     0.1589    79.9998 </r>
       <r>   -15.8178     0.0045    80.0003 </r>
       <r>   -15.7110     0.2628    80.0283 </r>
       <r>   -15.6043     4.4349    80.5017 </r>
       <r>   -15.4975    18.0443    82.4279 </r>
       <r>   -15.3908    27.0877    85.3193 </r>
       <r>   -15.2841    17.1265    87.1475 </r>
       <r>   -15.1773     5.7865    87.7652 </r>
       <r>   -15.0706     2.0540    87.9844 </r>
       <r>   -14.9638     1.3448    88.1280 </r>
       <r>   -14.8571     2.9003    88.4376 </r>
       <r>   -14.7503     2.9812    88.7558 </r>
       <r>   -14.6436     2.0162    88.9710 </r>
       <r>   -14.5368     0.7236    89.0483 </r>
       <r>   -14.4301     5.2257    89.6061 </r>
       <r>   -14.3234    12.9578    90.9893 </r>
       <r>   -14.2166    11.8416    92.2533 </r>
       <r>   -14.1099    14.5240    93.8037 </r>
       <r>   -14.0031    17.2980    95.6501 </r>
       <r>   -13.8964    17.9651    97.5678 </r>
       <r>   -13.7896    23.4925   100.0755 </r>
       <r>   -13.6829    26.2090   102.8732 </r>
       <r>   -13.5761    25.1518   105.5580 </r>
       <r>   -13.4694    22.8997   108.0024 </r>
       <r>   -13.3627    24.6271   110.6313 </r>
       <r>   -13.2559    19.6767   112.7316 </r>
       <r>   -13.1492    14.2864   114.2566 </r>
       <r>   -13.0424     7.3270   115.0388 </r>
       <r>   -12.9357     5.5270   115.6287 </r>
       <r>   -12.8289     8.6748   116.5547 </r>
       <r>   -12.7222    10.9416   117.7227 </r>
       <r>   -12.6154     6.2549   118.3904 </r>
       <r>   -12.5087     2.3593   118.6422 </r>
       <r>   -12.4019     6.7341   119.3610 </r>
       <r>   -12.2952     8.1531   120.2313 </r>
       <r>   -12.1885     7.5542   121.0377 </r>
       <r>   -12.0817     8.3318   121.9271 </r>
       <r>   -11.9750    14.8290   123.5100 </r>
       <r>   -11.8682    18.3018   125.4636 </r>
       <r>   -11.7615    18.4682   127.4350 </r>
       <r>   -11.6547    18.0216   129.3587 </r>
       <r>   -11.5480    17.0379   131.1774 </r>
       <r>   -11.4412    14.7491   132.7518 </r>
       <r>   -11.3345    18.9009   134.7694 </r>
       <r>   -11.2278    17.5279   136.6404 </r>
       <r>   -11.1210    15.2166   138.2647 </r>
       <r>   -11.0143    15.7332   139.9441 </r>
       <r>   -10.9075     9.0964   140.9151 </r>
       <r>   -10.8008     6.9493   141.6569 </r>
       <r>   -10.6940    15.0395   143.2623 </r>
       <r>   -10.5873    16.9172   145.0682 </r>
       <r>   -10.4805    14.2838   146.5929 </r>
       <r>   -10.3738    12.4679   147.9238 </r>
       <r>   -10.2671     8.4517   148.8259 </r>
       <r>   -10.1603    13.9335   150.3133 </r>
       <r>   -10.0536    12.9516   151.6958 </r>
       <r>    -9.9468     2.8321   151.9981 </r>
       <r>    -9.8401     1.6220   152.1712 </r>
       <r>    -9.7333     6.0463   152.8166 </r>
       <r>    -9.6266    12.1557   154.1142 </r>
       <r>    -9.5198    17.3052   155.9614 </r>
       <r>    -9.4131    19.2071   158.0117 </r>
       <r>    -9.3063    17.5261   159.8825 </r>
       <r>    -9.1996    18.7810   161.8873 </r>
       <r>    -9.0929    21.5006   164.1824 </r>
       <r>    -8.9861    22.2955   166.5623 </r>
       <r>    -8.8794    21.5728   168.8651 </r>
       <r>    -8.7726    22.0724   171.2212 </r>
       <r>    -8.6659    19.8200   173.3369 </r>
       <r>    -8.5591     5.8999   173.9667 </r>
       <r>    -8.4524     0.5888   174.0295 </r>
       <r>    -8.3456     2.0745   174.2510 </r>
       <r>    -8.2389     4.3495   174.7152 </r>
       <r>    -8.1322    10.3423   175.8192 </r>
       <r>    -8.0254    18.1217   177.7536 </r>
       <r>    -7.9187    23.9215   180.3071 </r>
       <r>    -7.8119    25.1597   182.9928 </r>
       <r>    -7.7052    17.3164   184.8412 </r>
       <r>    -7.5984    10.7484   185.9886 </r>
       <r>    -7.4917    10.8030   187.1417 </r>
       <r>    -7.3849    14.5116   188.6908 </r>
       <r>    -7.2782    25.6702   191.4309 </r>
       <r>    -7.1715    29.2782   194.5562 </r>
       <r>    -7.0647    29.9041   197.7483 </r>
       <r>    -6.9580    34.2663   201.4061 </r>
       <r>    -6.8512    29.4790   204.5528 </r>
       <r>    -6.7445    23.2586   207.0356 </r>
       <r>    -6.6377    13.6291   208.4904 </r>
       <r>    -6.5310    15.0001   210.0916 </r>
       <r>    -6.4242    19.0349   212.1234 </r>
       <r>    -6.3175    13.3876   213.5525 </r>
       <r>    -6.2107     7.7365   214.3783 </r>
       <r>    -6.1040    11.2533   215.5796 </r>
       <r>    -5.9973    13.1673   216.9851 </r>
       <r>    -5.8905    17.5502   218.8585 </r>
       <r>    -5.7838    13.1304   220.2601 </r>
       <r>    -5.6770    13.1624   221.6651 </r>
       <r>    -5.5703    22.3587   224.0518 </r>
       <r>    -5.4635    31.3342   227.3966 </r>
       <r>    -5.3568    27.2566   230.3061 </r>
       <r>    -5.2500    26.5115   233.1360 </r>
       <r>    -5.1433    37.5061   237.1396 </r>
       <r>    -5.0366    28.8614   240.2204 </r>
       <r>    -4.9298    19.6836   242.3216 </r>
       <r>    -4.8231    24.0619   244.8900 </r>
       <r>    -4.7163    25.7483   247.6385 </r>
       <r>    -4.6096    23.6236   250.1602 </r>
       <r>    -4.5028    26.1701   252.9538 </r>
       <r>    -4.3961    25.7948   255.7072 </r>
       <r>    -4.2893    16.0866   257.4244 </r>
       <r>    -4.1826    11.1915   258.6190 </r>
       <r>    -4.0759    25.4630   261.3371 </r>
       <r>    -3.9691    28.1157   264.3383 </r>
       <r>    -3.8624    13.6671   265.7972 </r>
       <r>    -3.7556     2.7804   266.0940 </r>
       <r>    -3.6489     9.1890   267.0748 </r>
       <r>    -3.5421    22.9524   269.5249 </r>
       <r>    -3.4354    30.5534   272.7863 </r>
       <r>    -3.3286    26.1917   275.5821 </r>
       <r>    -3.2219    18.2553   277.5308 </r>
       <r>    -3.1151    12.8692   278.9045 </r>
       <r>    -3.0084    15.0211   280.5079 </r>
       <r>    -2.9017    11.3920   281.7240 </r>
       <r>    -2.7949     2.5110   281.9920 </r>
       <r>    -2.6882     0.8506   282.0828 </r>
       <r>    -2.5814     6.9254   282.8221 </r>
       <r>    -2.4747     9.1880   283.8028 </r>
       <r>    -2.3679     2.7826   284.0999 </r>
       <r>    -2.2612     7.5796   284.9089 </r>
       <r>    -2.1544     9.0466   285.8746 </r>
       <r>    -2.0477     6.7003   286.5898 </r>
       <r>    -1.9410    14.9452   288.1852 </r>
       <r>    -1.8342    15.3713   289.8260 </r>
       <r>    -1.7275    11.6416   291.0687 </r>
       <r>    -1.6207    11.9677   292.3461 </r>
       <r>    -1.5140    13.9856   293.8390 </r>
       <r>    -1.4072     9.6685   294.8711 </r>
       <r>    -1.3005     7.7777   295.7013 </r>
       <r>    -1.1937    15.5214   297.3582 </r>
       <r>    -1.0870    23.8538   299.9044 </r>
       <r>    -0.9803    19.7115   302.0085 </r>
       <r>    -0.8735    16.7776   303.7994 </r>
       <r>    -0.7668    11.5404   305.0313 </r>
       <r>    -0.6600     9.5494   306.0507 </r>
       <r>    -0.5533    10.2452   307.1443 </r>
       <r>    -0.4465    14.4034   308.6818 </r>
       <r>    -0.3398    14.7447   310.2557 </r>
       <r>    -0.2330    12.1670   311.5545 </r>
       <r>    -0.1263     3.9161   311.9725 </r>
       <r>    -0.0195     0.2553   311.9997 </r>
       <r>     0.0872     0.0025   312.0000 </r>
       <r>     0.1939     0.0031   312.0003 </r>
       <r>     0.3007     0.3472   312.0374 </r>
       <r>     0.4074     4.9792   312.5689 </r>
       <r>     0.5142    11.1468   313.7588 </r>
       <r>     0.6209     8.1007   314.6235 </r>
       <r>     0.7277     7.5800   315.4326 </r>
       <r>     0.8344    10.3978   316.5425 </r>
       <r>     0.9412    12.3082   317.8563 </r>
       <r>     1.0479    14.8920   319.4460 </r>
       <r>     1.1546    12.0614   320.7335 </r>
       <r>     1.2614    15.9983   322.4412 </r>
       <r>     1.3681    22.0413   324.7940 </r>
       <r>     1.4749    19.0790   326.8306 </r>
       <r>     1.5816    14.4463   328.3727 </r>
       <r>     1.6884    17.0905   330.1970 </r>
       <r>     1.7951    22.9426   332.6460 </r>
       <r>     1.9019    25.3628   335.3533 </r>
       <r>     2.0086    17.9743   337.2720 </r>
       <r>     2.1153    15.5562   338.9326 </r>
       <r>     2.2221    15.9256   340.6325 </r>
       <r>     2.3288    16.1043   342.3516 </r>
       <r>     2.4356    12.1164   343.6450 </r>
       <r>     2.5423    16.1854   345.3727 </r>
       <r>     2.6491    21.5358   347.6715 </r>
       <r>     2.7558    19.9503   349.8011 </r>
       <r>     2.8626    13.6867   351.2621 </r>
       <r>     2.9693     5.9357   351.8957 </r>
       <r>     3.0761     0.9443   351.9965 </r>
       <r>     3.1828     0.0329   352.0000 </r>
       <r>     3.2895     0.0002   352.0000 </r>
       <r>     3.3963     0.0000   352.0000 </r>
       <r>     3.5030     0.0000   352.0000 </r>
       <r>     3.6098     0.0000   352.0000 </r>
       <r>     3.7165     0.0000   352.0000 </r>
       <r>     3.8233     0.0000   352.0000 </r>
       <r>     3.9300     0.0000   352.0000 </r>
       <r>     4.0368     0.0000   352.0000 </r>
       <r>     4.1435     0.0000   352.0000 </r>
       <r>     4.2502     0.0000   352.0000 </r>
       <r>     4.3570     0.0000   352.0000 </r>
      </set>
     </set>
    </array>
   </total>
  </dos>
 </calculation>
 <structure name="finalpos" >
  <crystal>
   <varray name="basis" >
    <v>      13.68845553       0.00000000       0.00000000 </v>
    <v>       0.00000000      10.78411677       0.00000000 </v>
    <v>       0.00000000       0.00000000      15.00000000 </v>
   </varray>
   <i name="volume">   2214.26854193 </i>
   <varray name="rec_basis" >
    <v>       0.07305426       0.00000000       0.00000000 </v>
    <v>       0.00000000       0.09272897       0.00000000 </v>
    <v>       0.00000000       0.00000000       0.06666667 </v>
   </varray>
  </crystal>
  <varray name="positions" >
   <v>       0.06954021       0.37365507       0.23246108 </v>
   <v>       0.97708702       0.20969976       0.16182115 </v>
   <v>       0.22686456       0.38911193       0.19500095 </v>
   <v>       0.83523043       0.58159182       0.21440369 </v>
   <v>       0.14582411       0.24534969       0.11747870 </v>
   <v>       0.90598888       0.37282797       0.23157574 </v>
   <v>       0.56614804       0.40375491       0.23675847 </v>
   <v>       0.47674405       0.22863420       0.18146010 </v>
   <v>       0.72957445       0.40444092       0.21138350 </v>
   <v>       0.30486730       0.58145358       0.17553652 </v>
   <v>       0.64523865       0.26448135       0.13257676 </v>
   <v>       0.40053191       0.39962265       0.23020234 </v>
   <v>       0.81884108       0.87149752       0.04684601 </v>
   <v>       0.74496951       0.74695488       0.16346898 </v>
   <v>       0.98206109       0.88199173       0.05695817 </v>
   <v>       0.06345977       0.07548099       0.07397376 </v>
   <v>       0.91689575       0.73190814       0.14221617 </v>
   <v>       0.65994729       0.89577361       0.08541263 </v>
   <v>       0.31994675       0.89723539       0.03704965 </v>
   <v>       0.22637493       0.71645244       0.08327426 </v>
   <v>       0.47634824       0.90663785       0.08384210 </v>
   <v>       0.56642039       0.08745361       0.10394974 </v>
   <v>       0.38236198       0.76102877       0.15119087 </v>
   <v>       0.15650022       0.88790155       0.02628460 </v>
   <v>       0.98819866       0.42092542       0.26564771 </v>
   <v>       0.89628787       0.25878402       0.19587379 </v>
   <v>       0.15773338       0.41883117       0.25308139 </v>
   <v>       0.14203989       0.14732277       0.06395710 </v>
   <v>       0.98113739       0.10040758       0.11918216 </v>
   <v>       0.22694297       0.31311367       0.12550440 </v>
   <v>       0.06444890       0.27784682       0.16901441 </v>
   <v>       0.82436243       0.45327696       0.23240740 </v>
   <v>       0.48238746       0.45978804       0.25873308 </v>
   <v>       0.39685212       0.27560032       0.21701804 </v>
   <v>       0.65566549       0.43899514       0.26566018 </v>
   <v>       0.64520581       0.15766381       0.08907463 </v>
   <v>       0.48359907       0.11560081       0.14718177 </v>
   <v>       0.72582102       0.33387740       0.13917659 </v>
   <v>       0.56181376       0.30358704       0.17854599 </v>
   <v>       0.31409919       0.46145001       0.20854252 </v>
   <v>       0.73108998       0.92068130       0.02814830 </v>
   <v>       0.66434190       0.81687199       0.15600940 </v>
   <v>       0.90140997       0.91375795       0.01164725 </v>
   <v>       0.92074965       0.62775425       0.18893289 </v>
   <v>       0.75185734       0.65180937       0.22022595 </v>
   <v>       0.99399596       0.79935661       0.12176737 </v>
   <v>       0.82451711       0.77526100       0.11092260 </v>
   <v>       0.57007260       0.96338616       0.07633201 </v>
   <v>       0.23923744       0.94895764       0.00614191 </v>
   <v>       0.15106865       0.76376531       0.03998603 </v>
   <v>       0.41125709       0.93861652       0.02259107 </v>
   <v>       0.37624859       0.65953116       0.19987470 </v>
   <v>       0.22948730       0.60356603       0.12081067 </v>
   <v>       0.46236545       0.83271593       0.15515373 </v>
   <v>       0.30966706       0.79309813       0.09294589 </v>
   <v>       0.06827669       0.95344854       0.03732699 </v>
   <v>       0.55903178       0.78272111       0.24643207 </v>
   <v>       0.65060039       0.62057846       0.31051700 </v>
   <v>       0.47752393       0.62120060       0.34368469 </v>
  </varray>
 </structure>
</modeling>
