slab_Cel1-OPT                           
           1
    13.759704    0.000000    0.000000
     0.000000   11.286700    0.000000
     0.000000    0.000000   15.000000
   C    N    Cu   Pd
    24    32     2     1
Direct configuration=     1
   0.07054120  0.38816457  0.22227495
   0.98151180  0.21832942  0.16785344
   0.22877304  0.39667288  0.18904348
   0.82472337  0.57572318  0.18403191
   0.14970601  0.24663792  0.12277753
   0.90758628  0.38434512  0.21811946
   0.56886571  0.39316130  0.23173729
   0.47768100  0.22391730  0.18017943
   0.73035049  0.39802658  0.19909345
   0.31101118  0.58132963  0.17977696
   0.64681854  0.25040749  0.13377315
   0.40275100  0.39355427  0.22106508
   0.81808056  0.88988957  0.05647519
   0.73319531  0.72568325  0.12448457
   0.97932824  0.89597624  0.07999408
   0.06867909  0.07698375  0.09423854
   0.90528082  0.74258583  0.14719628
   0.65472406  0.89333727  0.07691603
   0.31825350  0.89473226  0.05377466
   0.22716619  0.72126926  0.10084126
   0.47498917  0.90396535  0.09489577
   0.56592959  0.08075138  0.11024766
   0.38612516  0.76037560  0.16363174
   0.15509033  0.88950396  0.05271529
   0.98784551  0.43883046  0.24713656
   0.89991795  0.26975381  0.19549767
   0.15759857  0.43325808  0.24240148
   0.14788829  0.14353661  0.08017307
   0.98633649  0.10796021  0.13653167
   0.22915942  0.31533454  0.12527490
   0.06735802  0.28598388  0.16888911
   0.82274912  0.45552252  0.21014877
   0.48493735  0.44793349  0.25146232
   0.39648714  0.27665554  0.20625030
   0.65756919  0.43524210  0.25419888
   0.64488604  0.14640144  0.09374788
   0.48286722  0.11321356  0.15081376
   0.72606390  0.31870920  0.13454719
   0.56470606  0.29135323  0.18008364
   0.31888640  0.46086995  0.20329135
   0.73287748  0.94248397  0.03965616
   0.64891188  0.78317499  0.11254597
   0.90382696  0.93469024  0.03189926
   0.90701680  0.63807548  0.18754912
   0.73647441  0.61699787  0.15934394
   0.98321706  0.81212363  0.14197152
   0.81925020  0.78400528  0.10639513
   0.56804185  0.96074410  0.08520074
   0.23699719  0.94478449  0.02657725
   0.14820250  0.77173059  0.06843984
   0.40793432  0.93556381  0.03646331
   0.38047481  0.65838217  0.20939239
   0.23501053  0.60894863  0.12850628
   0.46527775  0.83024755  0.16578047
   0.31113112  0.79334051  0.10891910
   0.06990262  0.95754122  0.06514651
   0.57736557  0.77647674  0.24193941
   0.65582252  0.60772566  0.29790490
   0.48700699  0.61617049  0.29396059
slab_Cel1-OPT                           
           1
    13.749445    0.000000    0.000000
     0.000000   11.274061    0.000000
     0.000000    0.000000   15.000000
   C    N    Cu   Pd
    24    32     2     1
Direct configuration=     2
   0.07055057  0.38815552  0.22225830
   0.98153982  0.21842058  0.16787492
   0.22879501  0.39672237  0.18903868
   0.82483027  0.57574796  0.18412887
   0.14972890  0.24674312  0.12282083
   0.90759917  0.38440493  0.21812850
   0.56886419  0.39310179  0.23169458
   0.47779588  0.22410532  0.18021307
   0.73023997  0.39821074  0.19925299
   0.31090044  0.58138846  0.17973383
   0.64682848  0.25066374  0.13382984
   0.40285190  0.39361086  0.22109673
   0.81813028  0.88989045  0.05649548
   0.73331461  0.72571457  0.12441155
   0.97933953  0.89605283  0.07998773
   0.06868392  0.07710202  0.09423230
   0.90530367  0.74274201  0.14714470
   0.65476985  0.89340492  0.07692694
   0.31821801  0.89469609  0.05380311
   0.22724755  0.72142597  0.10082851
   0.47500662  0.90400760  0.09496502
   0.56595150  0.08095627  0.11021350
   0.38605699  0.76049274  0.16350272
   0.15502781  0.88953179  0.05271375
   0.98785932  0.43881930  0.24712509
   0.89989368  0.26973697  0.19550438
   0.15761848  0.43326076  0.24239775
   0.14784301  0.14345635  0.08015917
   0.98638172  0.10792278  0.13650912
   0.22914975  0.31525588  0.12522791
   0.06734404  0.28596585  0.16890031
   0.82275625  0.45545811  0.21018534
   0.48478133  0.44708429  0.25113963
   0.39647708  0.27658232  0.20631064
   0.65778900  0.43509253  0.25419009
   0.64480090  0.14621914  0.09372567
   0.48290207  0.11306851  0.15077076
   0.72597267  0.31856159  0.13440672
   0.56461722  0.29116938  0.18002031
   0.31879330  0.46078654  0.20323663
   0.73285115  0.94248492  0.03965234
   0.64891902  0.78319813  0.11253605
   0.90380945  0.93467346  0.03191574
   0.90694789  0.63788221  0.18756041
   0.73641753  0.61702375  0.15935853
   0.98318074  0.81201281  0.14197659
   0.81918638  0.78393506  0.10646988
   0.56801644  0.96061542  0.08516074
   0.23702706  0.94478151  0.02660530
   0.14816213  0.77173715  0.06839793
   0.40799372  0.93555088  0.03646541
   0.37977876  0.65843755  0.20890785
   0.23506863  0.60890692  0.12856789
   0.46525430  0.83033823  0.16576539
   0.31109477  0.79327635  0.10890773
   0.06989314  0.95742107  0.06512371
   0.57760633  0.77703975  0.24178698
   0.65643049  0.60769402  0.29796024
   0.48696820  0.61634727  0.29495296
slab_Cel1-OPT                           
           1
    13.731355    0.000000    0.000000
     0.000000   11.251776    0.000000
     0.000000    0.000000   15.000000
   C    N    Cu   Pd
    24    32     2     1
Direct configuration=     3
   0.07056711  0.38813954  0.22222894
   0.98158927  0.21858150  0.16791280
   0.22883379  0.39680973  0.18903022
   0.82501890  0.57579170  0.18429983
   0.14976930  0.24692884  0.12289720
   0.90762190  0.38451051  0.21814445
   0.56886150  0.39299674  0.23161927
   0.47799860  0.22443723  0.18027239
   0.73004494  0.39853583  0.19953429
   0.31070501  0.58149232  0.17965779
   0.64684603  0.25111610  0.13392981
   0.40302997  0.39371076  0.22115256
   0.81821800  0.88989201  0.05653124
   0.73352514  0.72576986  0.12428278
   0.97935945  0.89618804  0.07997655
   0.06869243  0.07731079  0.09422129
   0.90534399  0.74301773  0.14705374
   0.65485067  0.89352435  0.07694618
   0.31815538  0.89463223  0.05385329
   0.22739113  0.72170261  0.10080603
   0.47503743  0.90408218  0.09508712
   0.56599014  0.08131795  0.11015326
   0.38593670  0.76069954  0.16327522
   0.15491749  0.88958093  0.05271106
   0.98788368  0.43879959  0.24710486
   0.89985087  0.26970723  0.19551622
   0.15765361  0.43326549  0.24239118
   0.14776311  0.14331466  0.08013466
   0.98646154  0.10785671  0.13646936
   0.22913267  0.31511702  0.12514505
   0.06731938  0.28593401  0.16892006
   0.82276882  0.45534440  0.21024980
   0.48450602  0.44558522  0.25057063
   0.39645933  0.27645306  0.20641703
   0.65817689  0.43482850  0.25417458
   0.64465066  0.14589732  0.09368650
   0.48296356  0.11281245  0.15069493
   0.72581168  0.31830104  0.13415904
   0.56446045  0.29084482  0.17990866
   0.31862901  0.46063930  0.20314015
   0.73280467  0.94248662  0.03964560
   0.64893164  0.78323899  0.11251856
   0.90377855  0.93464384  0.03194480
   0.90682629  0.63754104  0.18758031
   0.73631715  0.61706943  0.15938426
   0.98311664  0.81181717  0.14198554
   0.81907376  0.78381109  0.10660169
   0.56797161  0.96038826  0.08509021
   0.23707977  0.94477625  0.02665476
   0.14809089  0.77174872  0.06832402
   0.40809853  0.93552806  0.03646910
   0.37855051  0.65853530  0.20805345
   0.23517115  0.60883327  0.12867654
   0.46521291  0.83049832  0.16573878
   0.31103061  0.79316308  0.10888769
   0.06987640  0.95720898  0.06508352
   0.57803118  0.77803362  0.24151820
   0.65750334  0.60763817  0.29805782
   0.48689975  0.61665934  0.29670280
slab_Cel1-OPT                           
           1
    13.734839    0.000000    0.000000
     0.000000   11.240013    0.000000
     0.000000    0.000000   15.000000
   C    N    Cu   Pd
    24    32     2     1
Direct configuration=     4
   0.07059101  0.38815305  0.22221869
   0.98157788  0.21856026  0.16791683
   0.22890349  0.39681342  0.18897830
   0.82490642  0.57572750  0.18442740
   0.14975770  0.24686628  0.12286486
   0.90754578  0.38455691  0.21816780
   0.56897106  0.39267773  0.23145951
   0.47798135  0.22423909  0.18023994
   0.73014292  0.39841546  0.19940553
   0.31030277  0.58126208  0.17951170
   0.64670326  0.25089278  0.13376784
   0.40269235  0.39339636  0.22102586
   0.81812351  0.88988541  0.05657682
   0.73353269  0.72567907  0.12421167
   0.97941019  0.89621417  0.07999466
   0.06867259  0.07730837  0.09415456
   0.90524598  0.74281839  0.14713598
   0.65478472  0.89357959  0.07698367
   0.31820684  0.89463029  0.05387310
   0.22738739  0.72165995  0.10081600
   0.47507374  0.90422666  0.09510023
   0.56593193  0.08127884  0.11003513
   0.38574091  0.76081172  0.16306261
   0.15483576  0.88965244  0.05267181
   0.98793100  0.43891250  0.24715122
   0.89976567  0.26962161  0.19554435
   0.15770130  0.43331307  0.24243023
   0.14782786  0.14337261  0.08009393
   0.98641655  0.10783239  0.13649655
   0.22922721  0.31511398  0.12508585
   0.06734708  0.28598194  0.16895310
   0.82277060  0.45527867  0.21037186
   0.48466986  0.44531501  0.25040611
   0.39635903  0.27613249  0.20654896
   0.65819091  0.43467489  0.25439225
   0.64475148  0.14605960  0.09366184
   0.48286629  0.11283583  0.15075606
   0.72586943  0.31857702  0.13414093
   0.56456158  0.29082827  0.17985184
   0.31860219  0.46062747  0.20308018
   0.73288349  0.94259446  0.03956616
   0.64892890  0.78321478  0.11251102
   0.90384577  0.93469738  0.03192157
   0.90699221  0.63757977  0.18755386
   0.73626456  0.61698575  0.15946397
   0.98322620  0.81182912  0.14194875
   0.81915815  0.78391244  0.10664232
   0.56798793  0.96036649  0.08498530
   0.23703450  0.94489441  0.02665629
   0.14802753  0.77162634  0.06825302
   0.40815163  0.93547302  0.03643958
   0.37829133  0.65870073  0.20782094
   0.23488461  0.60886799  0.12852555
   0.46516406  0.83056833  0.16586006
   0.31098558  0.79337237  0.10870948
   0.06983803  0.95718881  0.06502300
   0.57843909  0.77885656  0.24129357
   0.65849535  0.60766910  0.29813701
   0.48668167  0.61690836  0.29830042
slab_Cel1-OPT                           
           1
    13.740653    0.000000    0.000000
     0.000000   11.220386    0.000000
     0.000000    0.000000   15.000000
   C    N    Cu   Pd
    24    32     2     1
Direct configuration=     5
   0.07063087  0.38817562  0.22220159
   0.98155887  0.21852480  0.16792354
   0.22901975  0.39681959  0.18889168
   0.82471881  0.57562028  0.18464024
   0.14973836  0.24676181  0.12281090
   0.90741882  0.38463441  0.21820675
   0.56915382  0.39214490  0.23119296
   0.47795258  0.22390815  0.18018580
   0.73030636  0.39821442  0.19919069
   0.30963180  0.58087754  0.17926795
   0.64646513  0.25051980  0.13349761
   0.40212919  0.39287124  0.22081446
   0.81796590  0.88987439  0.05665286
   0.73354528  0.72552743  0.12409303
   0.97949481  0.89625780  0.08002488
   0.06863949  0.07730433  0.09404323
   0.90508249  0.74248545  0.14727320
   0.65467473  0.89367186  0.07704622
   0.31829269  0.89462704  0.05390616
   0.22738114  0.72158870  0.10083264
   0.47513432  0.90446797  0.09512210
   0.56583482  0.08121353  0.10983802
   0.38541431  0.76099908  0.16270788
   0.15469944  0.88977188  0.05260634
   0.98800993  0.43910108  0.24722858
   0.89962354  0.26947860  0.19559130
   0.15778085  0.43339254  0.24249537
   0.14793588  0.14346941  0.08002598
   0.98634151  0.10779176  0.13654193
   0.22938490  0.31510889  0.12498708
   0.06739327  0.28606198  0.16900823
   0.82277358  0.45516888  0.21057550
   0.48494315  0.44486370  0.25013163
   0.39619171  0.27559707  0.20676908
   0.65821428  0.43441833  0.25475542
   0.64491965  0.14633063  0.09362069
   0.48270404  0.11287487  0.15085804
   0.72596576  0.31903796  0.13411072
   0.56473026  0.29080062  0.17975705
   0.31855746  0.46060772  0.20298012
   0.73301497  0.94277458  0.03943360
   0.64892433  0.78317435  0.11249844
   0.90395790  0.93478682  0.03188281
   0.90726898  0.63764446  0.18750972
   0.73617685  0.61684598  0.15959697
   0.98340896  0.81184908  0.14188737
   0.81929891  0.78408171  0.10671011
   0.56801515  0.96033015  0.08481026
   0.23695900  0.94509175  0.02665886
   0.14792184  0.77142196  0.06813456
   0.40824019  0.93538109  0.03639032
   0.37785900  0.65897704  0.20743300
   0.23440664  0.60892598  0.12827363
   0.46508259  0.83068525  0.16606242
   0.31091048  0.79372194  0.10841215
   0.06977403  0.95715512  0.06492202
   0.57911952  0.78023105  0.24091878
   0.66015007  0.60772075  0.29826915
   0.48631791  0.61732428  0.30096602
slab_Cel1-OPT                           
           1
    13.740255    0.000000    0.000000
     0.000000   11.217446    0.000000
     0.000000    0.000000   15.000000
   C    N    Cu   Pd
    24    32     2     1
Direct configuration=     6
   0.07067568  0.38837692  0.22227694
   0.98145585  0.21853819  0.16797878
   0.22888111  0.39668675  0.18887643
   0.82470662  0.57565034  0.18479629
   0.14979892  0.24684368  0.12278026
   0.90751230  0.38461815  0.21833035
   0.56927567  0.39208599  0.23114789
   0.47765967  0.22381372  0.18028170
   0.73030947  0.39801037  0.19917100
   0.30939746  0.58101525  0.17910325
   0.64665005  0.25085410  0.13335830
   0.40219461  0.39263230  0.22075859
   0.81821440  0.89010182  0.05661766
   0.73350583  0.72550718  0.12402635
   0.97939179  0.89612982  0.07999121
   0.06856219  0.07721179  0.09393872
   0.90531889  0.74272391  0.14727920
   0.65483656  0.89373630  0.07689916
   0.31816934  0.89496024  0.05370316
   0.22703602  0.72172248  0.10062479
   0.47504686  0.90442320  0.09517472
   0.56572174  0.08104439  0.10967403
   0.38530332  0.76098042  0.16260905
   0.15474129  0.88970537  0.05249633
   0.98797598  0.43925066  0.24728365
   0.89957815  0.26931892  0.19563721
   0.15793362  0.43342895  0.24250771
   0.14794758  0.14340011  0.07989209
   0.98636414  0.10762259  0.13649774
   0.22947319  0.31512718  0.12490612
   0.06743705  0.28605216  0.16898746
   0.82275422  0.45520057  0.21078783
   0.48497724  0.44536775  0.25003838
   0.39598380  0.27475037  0.20691644
   0.65823853  0.43405075  0.25505374
   0.64493348  0.14606200  0.09338638
   0.48278953  0.11250190  0.15072831
   0.72585300  0.31917435  0.13391795
   0.56488190  0.29053694  0.17949753
   0.31841320  0.46049586  0.20286734
   0.73285355  0.94293134  0.03937679
   0.64892380  0.78303528  0.11250363
   0.90390808  0.93484587  0.03184513
   0.90723720  0.63726112  0.18760230
   0.73619697  0.61658022  0.15979321
   0.98341934  0.81170122  0.14191326
   0.81922886  0.78404657  0.10681555
   0.56800757  0.96061727  0.08464470
   0.23696093  0.94532471  0.02665609
   0.14789302  0.77128787  0.06801928
   0.40831189  0.93536577  0.03627959
   0.37806794  0.65873467  0.20758760
   0.23376678  0.60861830  0.12801562
   0.46496832  0.83094519  0.16617630
   0.31079823  0.79399221  0.10812317
   0.06974710  0.95741419  0.06479456
   0.57960930  0.78096748  0.24073769
   0.66125702  0.60794146  0.29833510
   0.48610471  0.61776492  0.30315803
slab_Cel1-OPT                           
           1
    13.739989    0.000000    0.000000
     0.000000   11.215476    0.000000
     0.000000    0.000000   15.000000
   C    N    Cu   Pd
    24    32     2     1
Direct configuration=     7
   0.07070570  0.38851182  0.22232743
   0.98138682  0.21854716  0.16801578
   0.22878821  0.39659772  0.18886620
   0.82469846  0.57567049  0.18490085
   0.14983951  0.24689855  0.12275974
   0.90757493  0.38460726  0.21841317
   0.56935731  0.39204651  0.23111769
   0.47746342  0.22375043  0.18034596
   0.73031155  0.39787361  0.19915780
   0.30924044  0.58110754  0.17899291
   0.64677394  0.25107815  0.13326496
   0.40223844  0.39247217  0.22072115
   0.81838091  0.89025424  0.05659408
   0.73347940  0.72549361  0.12398167
   0.97932277  0.89604405  0.07996865
   0.06851040  0.07714977  0.09386870
   0.90547730  0.74288372  0.14728322
   0.65494499  0.89377949  0.07680062
   0.31808669  0.89518355  0.05356715
   0.22680477  0.72181213  0.10048553
   0.47498825  0.90439320  0.09520998
   0.56564597  0.08093104  0.10956416
   0.38522895  0.76096791  0.16254283
   0.15476934  0.88966079  0.05242262
   0.98795322  0.43935092  0.24732056
   0.89954774  0.26921190  0.19566797
   0.15803598  0.43345334  0.24251598
   0.14795542  0.14335367  0.07980239
   0.98637930  0.10750921  0.13646814
   0.22953236  0.31513945  0.12485188
   0.06746638  0.28604557  0.16897355
   0.82274124  0.45522181  0.21093009
   0.48500008  0.44570555  0.24997591
   0.39584450  0.27418293  0.20701517
   0.65825479  0.43380441  0.25525361
   0.64494274  0.14588196  0.09322940
   0.48284681  0.11225193  0.15064139
   0.72577745  0.31926576  0.13378879
   0.56498351  0.29036023  0.17932366
   0.31831654  0.46042090  0.20279178
   0.73274540  0.94303640  0.03933872
   0.64892344  0.78294208  0.11250711
   0.90387469  0.93488544  0.03181988
   0.90721591  0.63700421  0.18766434
   0.73621045  0.61640212  0.15992468
   0.98342630  0.81160212  0.14193060
   0.81918192  0.78402301  0.10688619
   0.56800249  0.96080969  0.08453378
   0.23696223  0.94548084  0.02665423
   0.14787371  0.77119800  0.06794204
   0.40835993  0.93535550  0.03620540
   0.37820793  0.65857225  0.20769118
   0.23333806  0.60841210  0.12784275
   0.46489176  0.83111940  0.16625261
   0.31072301  0.79417334  0.10792954
   0.06972905  0.95758782  0.06470915
   0.57993747  0.78146102  0.24061635
   0.66199871  0.60808937  0.29837928
   0.48596186  0.61806022  0.30462670
slab_Cel1-OPT                           
           1
    13.730557    0.000000    0.000000
     0.000000   11.210046    0.000000
     0.000000    0.000000   15.000000
   C    N    Cu   Pd
    24    32     2     1
Direct configuration=     8
   0.07075070  0.38871498  0.22241812
   0.98143199  0.21833225  0.16798293
   0.22876257  0.39644881  0.18883237
   0.82480928  0.57568352  0.18505891
   0.14986444  0.24679854  0.12262515
   0.90760239  0.38454108  0.21858205
   0.56914186  0.39230894  0.23120760
   0.47747095  0.22307779  0.18023177
   0.73022855  0.39784509  0.19943279
   0.30922234  0.58139174  0.17886287
   0.64679471  0.25076683  0.13286194
   0.40258540  0.39252059  0.22078622
   0.81828277  0.89048952  0.05654320
   0.73354793  0.72525669  0.12409768
   0.97936797  0.89603207  0.07984373
   0.06852395  0.07724189  0.09376958
   0.90551650  0.74258235  0.14747223
   0.65499867  0.89380402  0.07658598
   0.31812803  0.89559915  0.05326898
   0.22661776  0.72161508  0.10029074
   0.47487916  0.90438678  0.09517408
   0.56575572  0.08106865  0.10939716
   0.38525692  0.76070865  0.16269275
   0.15480672  0.88972917  0.05221739
   0.98797944  0.43943582  0.24738132
   0.89952882  0.26921840  0.19580240
   0.15800071  0.43346106  0.24257614
   0.14787015  0.14336101  0.07967620
   0.98636623  0.10745350  0.13645825
   0.22950977  0.31512869  0.12476491
   0.06744766  0.28612787  0.16899536
   0.82274786  0.45501778  0.21120726
   0.48496608  0.44642439  0.24977817
   0.39551314  0.27374993  0.20735397
   0.65846747  0.43324973  0.25544887
   0.64493812  0.14585092  0.09298565
   0.48287569  0.11193744  0.15054017
   0.72583003  0.31948096  0.13345834
   0.56482773  0.29039996  0.17919650
   0.31827141  0.46021461  0.20262201
   0.73283769  0.94311003  0.03928350
   0.64883708  0.78293465  0.11244447
   0.90392128  0.93497850  0.03178810
   0.90717989  0.63697245  0.18767264
   0.73613101  0.61639486  0.16008428
   0.98355064  0.81162571  0.14189781
   0.81914599  0.78405983  0.10695127
   0.56796935  0.96062771  0.08429304
   0.23674501  0.94585325  0.02656096
   0.14750316  0.77152909  0.06759783
   0.40837469  0.93537708  0.03601205
   0.37860400  0.65822848  0.20786393
   0.23287972  0.60819707  0.12768755
   0.46465345  0.83138615  0.16637241
   0.31060605  0.79399501  0.10780731
   0.06967391  0.95746960  0.06450317
   0.58031978  0.78172006  0.24058078
   0.66277146  0.60850478  0.29836919
   0.48596914  0.61866885  0.30692556
slab_Cel1-OPT                           
           1
    13.724489    0.000000    0.000000
     0.000000   11.206551    0.000000
     0.000000    0.000000   15.000000
   C    N    Cu   Pd
    24    32     2     1
Direct configuration=     9
   0.07077968  0.38884576  0.22247648
   0.98146107  0.21819391  0.16796179
   0.22874606  0.39635295  0.18881059
   0.82488063  0.57569191  0.18516061
   0.14988050  0.24673417  0.12253856
   0.90762006  0.38449847  0.21869072
   0.56900314  0.39247789  0.23126546
   0.47747580  0.22264478  0.18015829
   0.73017511  0.39782673  0.19960972
   0.30921068  0.58157470  0.17877920
   0.64680808  0.25056643  0.13260263
   0.40280879  0.39255176  0.22082809
   0.81821957  0.89064097  0.05651046
   0.73359205  0.72510418  0.12417233
   0.97939707  0.89602435  0.07976336
   0.06853268  0.07730119  0.09370581
   0.90554174  0.74238834  0.14759384
   0.65503324  0.89381981  0.07644787
   0.31815465  0.89586669  0.05307713
   0.22649735  0.72148823  0.10016540
   0.47480892  0.90438266  0.09515099
   0.56582637  0.08115723  0.10928972
   0.38527493  0.76054175  0.16278922
   0.15483080  0.88977319  0.05208535
   0.98799632  0.43949048  0.24742042
   0.89951663  0.26922258  0.19588889
   0.15797800  0.43346603  0.24261485
   0.14781525  0.14336573  0.07959501
   0.98635781  0.10741763  0.13645190
   0.22949522  0.31512176  0.12470896
   0.06743560  0.28618085  0.16900939
   0.82275213  0.45488643  0.21138560
   0.48494419  0.44688713  0.24965095
   0.39529980  0.27347120  0.20757196
   0.65860441  0.43289266  0.25557451
   0.64493514  0.14583094  0.09282882
   0.48289428  0.11173499  0.15047504
   0.72586389  0.31961949  0.13324572
   0.56472743  0.29042554  0.17911469
   0.31824235  0.46008181  0.20251277
   0.73289712  0.94315743  0.03924797
   0.64878147  0.78292986  0.11240417
   0.90395128  0.93503840  0.03176765
   0.90715669  0.63695200  0.18767799
   0.73607986  0.61639018  0.16018697
   0.98363070  0.81164090  0.14187671
   0.81912285  0.78408353  0.10699315
   0.56794801  0.96051057  0.08413814
   0.23660515  0.94609298  0.02650095
   0.14726457  0.77174223  0.06737635
   0.40838420  0.93539097  0.03588764
   0.37885902  0.65800718  0.20797508
   0.23258461  0.60805864  0.12758769
   0.46450001  0.83155787  0.16644950
   0.31053075  0.79388021  0.10772866
   0.06963840  0.95739350  0.06437064
   0.58056594  0.78188682  0.24055789
   0.66326901  0.60877220  0.29836270
   0.48597382  0.61906064  0.30840471
slab_Cel1-OPT                           
           1
    13.708039    0.000000    0.000000
     0.000000   11.196703    0.000000
     0.000000    0.000000   15.000000
   C    N    Cu   Pd
    24    32     2     1
Direct configuration=    10
   0.07069479  0.38878542  0.22247483
   0.98151489  0.21824265  0.16803571
   0.22888247  0.39629549  0.18881220
   0.82479920  0.57533280  0.18537000
   0.14975342  0.24675969  0.12245344
   0.90759294  0.38434860  0.21891825
   0.56877161  0.39272755  0.23128373
   0.47723547  0.22248693  0.18025668
   0.73018205  0.39738111  0.19965166
   0.30929993  0.58127735  0.17877809
   0.64679789  0.25077155  0.13232898
   0.40277484  0.39255213  0.22085209
   0.81815104  0.89062863  0.05655116
   0.73357420  0.72522605  0.12428387
   0.97952756  0.89597205  0.07961670
   0.06848799  0.07718172  0.09354150
   0.90556571  0.74246787  0.14762821
   0.65485224  0.89356793  0.07624785
   0.31799932  0.89591831  0.05288367
   0.22616038  0.72135598  0.09976925
   0.47473055  0.90438569  0.09504949
   0.56596875  0.08088184  0.10897916
   0.38526610  0.76029291  0.16298394
   0.15460612  0.89008719  0.05176714
   0.98800808  0.43960613  0.24756124
   0.89961079  0.26913193  0.19607134
   0.15803517  0.43348833  0.24271244
   0.14774582  0.14342174  0.07937342
   0.98632227  0.10729604  0.13641784
   0.22939330  0.31501981  0.12454854
   0.06742888  0.28618140  0.16898906
   0.82277570  0.45478071  0.21174128
   0.48508342  0.44779458  0.24940875
   0.39548167  0.27341709  0.20807284
   0.65859828  0.43241497  0.25594175
   0.64501874  0.14577174  0.09237190
   0.48291495  0.11118345  0.15030034
   0.72589366  0.31996234  0.13296320
   0.56436247  0.29060785  0.17903287
   0.31847485  0.46020269  0.20225260
   0.73301781  0.94333476  0.03910250
   0.64873951  0.78294993  0.11228220
   0.90399507  0.93517232  0.03169112
   0.90730879  0.63694902  0.18778791
   0.73603299  0.61630292  0.16047055
   0.98369785  0.81159729  0.14185779
   0.81916993  0.78404123  0.10707304
   0.56793663  0.96024916  0.08383205
   0.23656873  0.94661569  0.02628517
   0.14701068  0.77191864  0.06693592
   0.40843294  0.93551092  0.03556441
   0.37925918  0.65767032  0.20799412
   0.23252302  0.60808231  0.12767188
   0.46424846  0.83185927  0.16660998
   0.31054466  0.79338730  0.10773521
   0.06958547  0.95735102  0.06409341
   0.58080465  0.78164663  0.24065415
   0.66371072  0.60935196  0.29826837
   0.48623624  0.61989046  0.31099086
slab_Cel1-OPT                           
           1
    13.696581    0.000000    0.000000
     0.000000   11.189844    0.000000
     0.000000    0.000000   15.000000
   C    N    Cu   Pd
    24    32     2     1
Direct configuration=    11
   0.07063559  0.38874336  0.22247368
   0.98155243  0.21827664  0.16808720
   0.22897760  0.39625544  0.18881331
   0.82474242  0.57508247  0.18551583
   0.14966480  0.24677749  0.12239416
   0.90757402  0.38424412  0.21907672
   0.56861017  0.39290159  0.23129646
   0.47706789  0.22237690  0.18032520
   0.73018688  0.39707047  0.19968088
   0.30936217  0.58107006  0.17877732
   0.64679079  0.25091455  0.13213838
   0.40275117  0.39255238  0.22086881
   0.81810325  0.89062002  0.05657951
   0.73356176  0.72531100  0.12436156
   0.97961856  0.89593559  0.07951455
   0.06845684  0.07709844  0.09342706
   0.90558243  0.74252331  0.14765215
   0.65472603  0.89339234  0.07610854
   0.31789101  0.89595429  0.05274893
   0.22592540  0.72126379  0.09949332
   0.47467590  0.90438781  0.09497879
   0.56606804  0.08068987  0.10876285
   0.38525995  0.76011944  0.16311957
   0.15444945  0.89030608  0.05154551
   0.98801628  0.43968675  0.24765933
   0.89967646  0.26906873  0.19619842
   0.15807503  0.43350388  0.24278040
   0.14769741  0.14346078  0.07921909
   0.98629748  0.10721128  0.13639412
   0.22932222  0.31494875  0.12443681
   0.06742420  0.28618179  0.16897490
   0.82279214  0.45470701  0.21198900
   0.48518051  0.44842717  0.24924007
   0.39560850  0.27337937  0.20842170
   0.65859401  0.43208198  0.25619753
   0.64507703  0.14573048  0.09205365
   0.48292936  0.11079897  0.15017865
   0.72591442  0.32020133  0.13276642
   0.56410798  0.29073493  0.17897587
   0.31863699  0.46028695  0.20207139
   0.73310198  0.94345838  0.03900119
   0.64871025  0.78296391  0.11219725
   0.90402560  0.93526566  0.03163782
   0.90741485  0.63694694  0.18786447
   0.73600030  0.61624209  0.16066806
   0.98374467  0.81156690  0.14184462
   0.81920276  0.78401175  0.10712869
   0.56792869  0.96006693  0.08361886
   0.23654333  0.94698008  0.02613489
   0.14683363  0.77204161  0.06662917
   0.40846693  0.93559454  0.03533927
   0.37953822  0.65743549  0.20800737
   0.23248008  0.60809881  0.12773052
   0.46407305  0.83206938  0.16672175
   0.31055436  0.79304370  0.10773977
   0.06954856  0.95732140  0.06390032
   0.58097111  0.78147919  0.24072120
   0.66401874  0.60975611  0.29820267
   0.48641923  0.62046893  0.31279209
slab_Cel1-OPT                           
           1
    13.692767    0.000000    0.000000
     0.000000   11.179458    0.000000
     0.000000    0.000000   15.000000
   C    N    Cu   Pd
    24    32     2     1
Direct configuration=    12
   0.07071376  0.38860883  0.22248369
   0.98161546  0.21815545  0.16813562
   0.22903310  0.39625104  0.18873563
   0.82488043  0.57509206  0.18570941
   0.14947545  0.24682095  0.12230090
   0.90754637  0.38428439  0.21937115
   0.56868849  0.39298689  0.23117435
   0.47701294  0.22220456  0.18037349
   0.73017480  0.39678335  0.19979981
   0.30966347  0.58100372  0.17882232
   0.64641356  0.25122348  0.13198014
   0.40277455  0.39313461  0.22101707
   0.81836514  0.89045691  0.05662663
   0.73352889  0.72534198  0.12454464
   0.97951535  0.89573068  0.07942605
   0.06831585  0.07701858  0.09325309
   0.90560152  0.74265694  0.14762979
   0.65472637  0.89335746  0.07576216
   0.31784226  0.89543330  0.05286109
   0.22592550  0.72108988  0.09927525
   0.47445601  0.90428883  0.09487665
   0.56601277  0.08030508  0.10845157
   0.38514338  0.76004047  0.16316546
   0.15436338  0.89051118  0.05112019
   0.98798134  0.43970076  0.24787076
   0.89962974  0.26882986  0.19643771
   0.15834203  0.43338970  0.24279407
   0.14764814  0.14351015  0.07892097
   0.98620561  0.10716084  0.13641335
   0.22942310  0.31513565  0.12440362
   0.06736871  0.28613438  0.16894926
   0.82268537  0.45439329  0.21230644
   0.48504758  0.44908582  0.24902636
   0.39579788  0.27358090  0.20903816
   0.65855802  0.43177886  0.25649630
   0.64528680  0.14619886  0.09165976
   0.48287142  0.11079871  0.15019484
   0.72585206  0.32038526  0.13252761
   0.56411046  0.29085579  0.17876478
   0.31881952  0.46008300  0.20182072
   0.73276337  0.94345233  0.03890714
   0.64862855  0.78268061  0.11214650
   0.90404895  0.93524293  0.03156816
   0.90746859  0.63672784  0.18805628
   0.73583345  0.61628009  0.16093059
   0.98391535  0.81170625  0.14179126
   0.81918791  0.78401185  0.10711748
   0.56795600  0.95985678  0.08329882
   0.23666799  0.94723197  0.02593242
   0.14677779  0.77194333  0.06613266
   0.40840413  0.93550505  0.03508582
   0.37979800  0.65704152  0.20792031
   0.23262679  0.60819973  0.12797214
   0.46412103  0.83243279  0.16685280
   0.31047035  0.79306846  0.10745878
   0.06943966  0.95763788  0.06362671
   0.58087221  0.78084572  0.24087300
   0.66401238  0.61020403  0.29804250
   0.48675182  0.62121776  0.31494342
slab_Cel1-OPT                           
           1
    13.691906    0.000000    0.000000
     0.000000   11.177113    0.000000
     0.000000    0.000000   15.000000
   C    N    Cu   Pd