  57  57   0   0
  0.4599006E+02  0.1420606E-08  0.1230194E-08  0.1500000E-08  0.1000000E-15
  1.000000000000000E-004
  CAR 
 slab_Cel1-OPT                           
      4.20424697    -27.96564757  301     -2.68809010      1.00000000
    -27.966  0.0000E+00  0.0000E+00
    -27.858  0.0000E+00  0.0000E+00
    -27.751  0.0000E+00  0.0000E+00
    -27.644  0.0000E+00  0.0000E+00
    -27.537  0.0000E+00  0.0000E+00
    -27.429  0.0000E+00  0.0000E+00
    -27.322  0.0000E+00  0.0000E+00
    -27.215  0.0000E+00  0.0000E+00
    -27.108  0.0000E+00  0.0000E+00
    -27.001  0.7323E-14  0.7853E-15
    -26.893  0.1384E-09  0.1484E-10
    -26.786  0.2901E-06  0.3112E-07
    -26.679  0.7162E-04  0.7711E-05
    -26.572  0.2356E-02  0.2604E-03
    -26.464  0.1307E-01  0.1662E-02
    -26.357  0.1642E-01  0.3423E-02
    -26.250  0.5085E-02  0.3968E-02
    -26.143  0.1024E-02  0.4078E-02
    -26.035  0.6614E-02  0.4787E-02
    -25.928  0.1139E-01  0.6009E-02
    -25.821  0.1143E-01  0.7234E-02
    -25.714  0.6470E-02  0.7928E-02
    -25.607  0.6613E-03  0.7999E-02
    -25.499  0.9111E-05  0.8000E-02
    -25.392  0.1332E-04  0.8001E-02
    -25.285  0.8092E-03  0.8088E-02
    -25.178  0.7484E-02  0.8891E-02
    -25.070  0.1547E-01  0.1055E-01
    -24.963  0.1426E-01  0.1208E-01
    -24.856  0.1064E-01  0.1322E-01
    -24.749  0.8935E-02  0.1418E-01
    -24.641  0.8908E-02  0.1513E-01
    -24.534  0.3234E-02  0.1548E-01
    -24.427  0.1901E-03  0.1550E-01
    -24.320  0.1642E-03  0.1552E-01
    -24.212  0.3272E-02  0.1587E-01
    -24.105  0.1306E-01  0.1727E-01
    -23.998  0.1826E-01  0.1923E-01
    -23.891  0.1687E-01  0.2104E-01
    -23.784  0.1662E-01  0.2282E-01
    -23.676  0.9639E-02  0.2385E-01
    -23.569  0.5145E-02  0.2440E-01
    -23.462  0.1174E-02  0.2453E-01
    -23.355  0.3648E-02  0.2492E-01
    -23.247  0.7845E-02  0.2576E-01
    -23.140  0.7640E-02  0.2658E-01
    -23.033  0.9102E-02  0.2756E-01
    -22.926  0.1207E-01  0.2885E-01
    -22.818  0.1284E-01  0.3023E-01
    -22.711  0.9912E-02  0.3129E-01
    -22.604  0.5534E-02  0.3188E-01
    -22.497  0.1038E-02  0.3200E-01
    -22.390  0.5241E-04  0.3200E-01
    -22.282  0.9782E-03  0.3211E-01
    -22.175  0.1004E-01  0.3318E-01
    -22.068  0.2309E-01  0.3566E-01
    -21.961  0.2532E-01  0.3837E-01
    -21.853  0.2738E-01  0.4131E-01
    -21.746  0.2163E-01  0.4363E-01
    -21.639  0.1629E-01  0.4538E-01
    -21.532  0.1379E-01  0.4686E-01
    -21.424  0.7443E-02  0.4765E-01
    -21.317  0.3271E-02  0.4800E-01
    -21.210  0.4212E-02  0.4846E-01
    -21.103  0.1550E-01  0.5012E-01
    -20.996  0.2085E-01  0.5235E-01
    -20.888  0.1508E-01  0.5397E-01
    -20.781  0.1426E-01  0.5550E-01
    -20.674  0.1179E-01  0.5677E-01
    -20.567  0.1727E-01  0.5862E-01
    -20.459  0.1125E-01  0.5982E-01
    -20.352  0.4555E-02  0.6031E-01
    -20.245  0.1151E-01  0.6155E-01
    -20.138  0.1476E-01  0.6313E-01
    -20.030  0.7317E-02  0.6391E-01
    -19.923  0.7933E-03  0.6400E-01
    -19.816  0.1281E-04  0.6400E-01
    -19.709  0.2616E-07  0.6400E-01
    -19.601  0.6202E-11  0.6400E-01
    -19.494  0.1625E-15  0.6400E-01
    -19.387  0.0000E+00  0.6400E-01
    -19.280  0.0000E+00  0.6400E-01
    -19.173  0.0000E+00  0.6400E-01
    -19.065  0.0000E+00  0.6400E-01
    -18.958  0.0000E+00  0.6400E-01
    -18.851  0.0000E+00  0.6400E-01
    -18.744  0.0000E+00  0.6400E-01
    -18.636  0.0000E+00  0.6400E-01
    -18.529  0.0000E+00  0.6400E-01
    -18.422  0.0000E+00  0.6400E-01
    -18.315  0.0000E+00  0.6400E-01
    -18.207  0.0000E+00  0.6400E-01
    -18.100  0.4545E-14  0.6400E-01
    -17.993  0.7957E-10  0.6400E-01
    -17.886  0.1523E-06  0.6400E-01
    -17.779  0.3449E-04  0.6400E-01
    -17.671  0.1105E-02  0.6412E-01
    -17.564  0.7218E-02  0.6490E-01
    -17.457  0.1560E-01  0.6657E-01
    -17.350  0.1897E-01  0.6860E-01
    -17.242  0.1843E-01  0.7058E-01
    -17.135  0.1570E-01  0.7226E-01
    -17.028  0.1343E-01  0.7370E-01
    -16.921  0.1546E-01  0.7536E-01
    -16.813  0.1364E-01  0.7682E-01
    -16.706  0.1020E-01  0.7792E-01
    -16.599  0.8885E-02  0.7887E-01
    -16.492  0.4703E-02  0.7938E-01
    -16.384  0.1895E-02  0.7958E-01
    -16.277  0.2589E-02  0.7986E-01
    -16.170  0.1255E-02  0.7999E-01
    -16.063  0.8785E-04  0.8000E-01
    -15.956  0.6443E-04  0.8001E-01
    -15.848  0.2202E-02  0.8024E-01
    -15.741  0.1347E-01  0.8169E-01
    -15.634  0.2069E-01  0.8391E-01
    -15.527  0.1710E-01  0.8574E-01
    -15.419  0.1278E-01  0.8711E-01
    -15.312  0.5507E-02  0.8770E-01
    -15.205  0.2679E-02  0.8799E-01
    -15.098  0.2369E-02  0.8824E-01
    -14.990  0.2600E-02  0.8852E-01
    -14.883  0.2694E-02  0.8881E-01
    -14.776  0.2243E-02  0.8905E-01
    -14.669  0.4835E-02  0.8957E-01
    -14.562  0.7308E-02  0.9035E-01
    -14.454  0.8267E-02  0.9124E-01
    -14.347  0.1447E-01  0.9279E-01
    -14.240  0.2058E-01  0.9500E-01
    -14.133  0.2279E-01  0.9744E-01
    -14.025  0.1957E-01  0.9954E-01
    -13.918  0.1907E-01  0.1016E+00
    -13.811  0.1872E-01  0.1036E+00
    -13.704  0.1790E-01  0.1055E+00
    -13.596  0.1653E-01  0.1073E+00
    -13.489  0.1588E-01  0.1090E+00
    -13.382  0.1952E-01  0.1111E+00
    -13.275  0.2244E-01  0.1135E+00
    -13.167  0.1167E-01  0.1147E+00
    -13.060  0.7060E-02  0.1155E+00
    -12.953  0.1023E-01  0.1166E+00
    -12.846  0.1134E-01  0.1178E+00
    -12.739  0.5775E-02  0.1184E+00
    -12.631  0.2103E-02  0.1187E+00
    -12.524  0.5378E-02  0.1192E+00
    -12.417  0.5629E-02  0.1198E+00
    -12.310  0.5379E-02  0.1204E+00
    -12.202  0.9732E-02  0.1215E+00
    -12.095  0.1678E-01  0.1233E+00
    -11.988  0.1698E-01  0.1251E+00
    -11.881  0.2360E-01  0.1276E+00
    -11.773  0.2280E-01  0.1301E+00
    -11.666  0.1286E-01  0.1314E+00
    -11.559  0.1513E-01  0.1331E+00
    -11.452  0.2172E-01  0.1354E+00
    -11.345  0.2113E-01  0.1376E+00
    -11.237  0.1185E-01  0.1389E+00
    -11.130  0.9944E-02  0.1400E+00
    -11.023  0.1210E-01  0.1413E+00
    -10.916  0.8417E-02  0.1422E+00
    -10.808  0.8174E-02  0.1431E+00
    -10.701  0.8519E-02  0.1440E+00
    -10.594  0.1344E-01  0.1454E+00
    -10.487  0.1819E-01  0.1474E+00
    -10.379  0.1453E-01  0.1489E+00
    -10.272  0.9850E-02  0.1500E+00
    -10.165  0.1129E-01  0.1512E+00
    -10.058  0.1367E-01  0.1527E+00
     -9.951  0.1057E-01  0.1538E+00
     -9.843  0.1370E-01  0.1553E+00
     -9.736  0.1656E-01  0.1570E+00
     -9.629  0.1685E-01  0.1588E+00
     -9.522  0.1005E-01  0.1599E+00
     -9.414  0.9682E-02  0.1610E+00
     -9.307  0.2189E-01  0.1633E+00
     -9.200  0.1845E-01  0.1653E+00
     -9.093  0.6053E-02  0.1659E+00
     -8.985  0.1482E-02  0.1661E+00
     -8.878  0.5193E-02  0.1666E+00
     -8.771  0.1020E-01  0.1677E+00
     -8.664  0.9651E-02  0.1688E+00
     -8.556  0.1028E-01  0.1699E+00
     -8.449  0.1374E-01  0.1714E+00
     -8.342  0.1525E-01  0.1730E+00
     -8.235  0.1326E-01  0.1744E+00
     -8.128  0.1833E-01  0.1764E+00
     -8.020  0.1659E-01  0.1782E+00
     -7.913  0.1590E-01  0.1799E+00
     -7.806  0.1522E-01  0.1815E+00
     -7.699  0.9225E-02  0.1825E+00
     -7.591  0.1922E-01  0.1845E+00
     -7.484  0.3265E-01  0.1880E+00
     -7.377  0.3138E-01  0.1914E+00
     -7.270  0.2847E-01  0.1945E+00
     -7.162  0.2992E-01  0.1977E+00
     -7.055  0.1784E-01  0.1996E+00
     -6.948  0.7708E-02  0.2004E+00
     -6.841  0.1791E-01  0.2023E+00
     -6.734  0.2821E-01  0.2054E+00
     -6.626  0.2555E-01  0.2081E+00
     -6.519  0.2369E-01  0.2106E+00
     -6.412  0.2190E-01  0.2130E+00
     -6.305  0.1396E-01  0.2145E+00
     -6.197  0.9214E-02  0.2155E+00
     -6.090  0.4822E-02  0.2160E+00
     -5.983  0.5205E-02  0.2165E+00
     -5.876  0.1201E-01  0.2178E+00
     -5.768  0.1895E-01  0.2199E+00
     -5.661  0.2364E-01  0.2224E+00
     -5.554  0.2067E-01  0.2246E+00
     -5.447  0.2345E-01  0.2271E+00
     -5.339  0.3063E-01  0.2304E+00
     -5.232  0.2963E-01  0.2336E+00
     -5.125  0.2537E-01  0.2363E+00
     -5.018  0.2753E-01  0.2393E+00
     -4.911  0.2928E-01  0.2424E+00
     -4.803  0.2632E-01  0.2452E+00
     -4.696  0.1708E-01  0.2471E+00
     -4.589  0.1234E-01  0.2484E+00
     -4.482  0.1668E-01  0.2502E+00
     -4.374  0.1645E-01  0.2519E+00
     -4.267  0.1516E-01  0.2536E+00
     -4.160  0.7009E-02  0.2543E+00
     -4.053  0.9256E-02  0.2553E+00
     -3.945  0.1218E-01  0.2566E+00
     -3.838  0.1381E-01  0.2581E+00
     -3.731  0.1534E-01  0.2597E+00
     -3.624  0.1489E-01  0.2613E+00
     -3.517  0.5779E-02  0.2620E+00
     -3.409  0.4377E-03  0.2620E+00
     -3.302  0.6450E-03  0.2621E+00
     -3.195  0.8756E-02  0.2630E+00
     -3.088  0.1964E-01  0.2651E+00
     -2.980  0.7752E-02  0.2659E+00
     -2.873  0.4992E-03  0.2660E+00
     -2.766  0.4476E-05  0.2660E+00
     -2.659  0.4963E-08  0.2660E+00
     -2.551  0.1749E-06  0.2660E+00
     -2.444  0.3432E-04  0.2660E+00
     -2.337  0.8706E-03  0.2661E+00
     -2.230  0.4053E-02  0.2665E+00
     -2.122  0.8026E-02  0.2674E+00
     -2.015  0.1148E-01  0.2686E+00
     -1.908  0.1003E-01  0.2697E+00
     -1.801  0.6978E-02  0.2704E+00
     -1.694  0.9128E-02  0.2714E+00
     -1.586  0.1128E-01  0.2726E+00
     -1.479  0.1153E-01  0.2739E+00
     -1.372  0.1536E-01  0.2755E+00
     -1.265  0.1577E-01  0.2772E+00
     -1.157  0.1144E-01  0.2784E+00
     -1.050  0.1036E-01  0.2795E+00
     -0.943  0.1256E-01  0.2809E+00
     -0.836  0.1501E-01  0.2825E+00
     -0.728  0.2018E-01  0.2847E+00
     -0.621  0.2003E-01  0.2868E+00
     -0.514  0.1175E-01  0.2881E+00
     -0.407  0.8473E-02  0.2890E+00
     -0.300  0.6888E-02  0.2897E+00
     -0.192  0.2434E-02  0.2900E+00
     -0.085  0.1552E-03  0.2900E+00
      0.022  0.1282E-05  0.2900E+00
      0.129  0.1223E-08  0.2900E+00
      0.237  0.2642E-10  0.2900E+00
      0.344  0.8367E-07  0.2900E+00
      0.451  0.2970E-04  0.2900E+00
      0.558  0.1290E-02  0.2901E+00
      0.666  0.8460E-02  0.2910E+00
      0.773  0.1414E-01  0.2926E+00
      0.880  0.1111E-01  0.2938E+00
      0.987  0.6101E-02  0.2944E+00
      1.094  0.1583E-01  0.2961E+00
      1.202  0.2352E-01  0.2986E+00
      1.309  0.2211E-01  0.3010E+00
      1.416  0.1511E-01  0.3026E+00
      1.523  0.1639E-01  0.3044E+00
      1.631  0.2189E-01  0.3067E+00
      1.738  0.2020E-01  0.3089E+00
      1.845  0.1891E-01  0.3109E+00
      1.952  0.1836E-01  0.3129E+00
      2.060  0.2202E-01  0.3153E+00
      2.167  0.2085E-01  0.3175E+00
      2.274  0.1489E-01  0.3191E+00
      2.381  0.1560E-01  0.3208E+00
      2.489  0.2014E-01  0.3229E+00
      2.596  0.1836E-01  0.3249E+00
      2.703  0.1768E-01  0.3268E+00
      2.810  0.9630E-02  0.3278E+00
      2.917  0.1689E-02  0.3280E+00
      3.025  0.5259E-04  0.3280E+00
      3.132  0.2164E-06  0.3280E+00
      3.239  0.1048E-09  0.3280E+00
      3.346  0.5642E-14  0.3280E+00
      3.454  0.0000E+00  0.3280E+00
      3.561  0.0000E+00  0.3280E+00
      3.668  0.0000E+00  0.3280E+00
      3.775  0.0000E+00  0.3280E+00
      3.883  0.0000E+00  0.3280E+00
      3.990  0.0000E+00  0.3280E+00
      4.097  0.0000E+00  0.3280E+00
      4.204  0.0000E+00  0.3280E+00
