       N       E                     dE             d eps       ncg     rms          rms(c)
DAV:   1     0.243382505697E+04    0.24338E+04   -0.93271E+04  1536   0.101E+03
DAV:   2     0.646666921386E+01   -0.24274E+04   -0.23127E+04  1920   0.280E+02
DAV:   3    -0.492748209936E+03   -0.49921E+03   -0.49403E+03  1608   0.137E+02
DAV:   4    -0.509968732268E+03   -0.17221E+02   -0.16729E+02  1520   0.300E+01
DAV:   5    -0.510611183245E+03   -0.64245E+00   -0.63537E+00  1792   0.483E+00    0.415E+01
DAV:   6    -0.481586058888E+03    0.29025E+02   -0.11914E+02  1528   0.234E+01    0.265E+01
DAV:   7    -0.486995169315E+03   -0.54091E+01   -0.11850E+02  1528   0.183E+01    0.328E+01
DAV:   8    -0.482128363964E+03    0.48668E+01   -0.73185E+00  1496   0.932E+00    0.193E+01
DAV:   9    -0.475453066490E+03    0.66753E+01   -0.77214E+00  1504   0.140E+01    0.767E+00
DAV:  10    -0.478722720243E+03   -0.32697E+01   -0.39224E+01  1576   0.910E+00    0.216E+01
DAV:  11    -0.474623138409E+03    0.40996E+01   -0.13314E+01  1436   0.499E+00    0.480E+00
DAV:  12    -0.474736846963E+03   -0.11371E+00   -0.35765E-01  1520   0.137E+00    0.494E+00
DAV:  13    -0.474329671511E+03    0.40718E+00   -0.24514E-01  1536   0.168E+00    0.160E+00
DAV:  14    -0.474336619944E+03   -0.69484E-02   -0.38398E-02  1512   0.429E-01    0.126E+00
DAV:  15    -0.474329131345E+03    0.74886E-02   -0.35306E-02  1536   0.338E-01    0.171E+00
DAV:  16    -0.474321549982E+03    0.75814E-02   -0.40909E-02  1532   0.282E-01    0.648E-01
DAV:  17    -0.474323479935E+03   -0.19300E-02   -0.20466E-02  1384   0.203E-01    0.446E-01
DAV:  18    -0.474331411615E+03   -0.79317E-02   -0.37323E-02  1600   0.178E-01    0.165E+00
DAV:  19    -0.474326393504E+03    0.50181E-02   -0.40216E-02  1432   0.183E-01    0.402E-01
DAV:  20    -0.474332059390E+03   -0.56659E-02   -0.28004E-02  1368   0.126E-01    0.504E-01
DAV:  21    -0.474333114017E+03   -0.10546E-02   -0.25016E-02  1504   0.811E-02    0.554E-01
DAV:  22    -0.474333962143E+03   -0.84813E-03   -0.24818E-02  1448   0.808E-02    0.501E-01
DAV:  23    -0.474335566002E+03   -0.16039E-02   -0.24675E-02  1444   0.948E-02    0.372E-01
DAV:  24    -0.474336078113E+03   -0.51211E-03   -0.24211E-02  1520   0.609E-02    0.386E-01
DAV:  25    -0.474337491316E+03   -0.14132E-02   -0.24850E-02  1260   0.572E-02    0.313E-01
DAV:  26    -0.474338683527E+03   -0.11922E-02   -0.24816E-02  1288   0.555E-02    0.304E-01
DAV:  27    -0.474339152189E+03   -0.46866E-03   -0.25529E-02  1168   0.510E-02    0.317E-01
DAV:  28    -0.474339639388E+03   -0.48720E-03   -0.26857E-02  1192   0.495E-02    0.314E-01
DAV:  29    -0.474339919394E+03   -0.28001E-03   -0.27828E-02  1144   0.494E-02    0.327E-01
DAV:  30    -0.474340145497E+03   -0.22610E-03   -0.28990E-02  1104   0.496E-02    0.322E-01
DAV:  31    -0.474340271447E+03   -0.12595E-03   -0.29647E-02  1144   0.509E-02    0.328E-01
DAV:  32    -0.474340360943E+03   -0.89496E-04   -0.30562E-02  1040   0.502E-02    0.331E-01
DAV:  33    -0.474340426665E+03   -0.65722E-04   -0.31211E-02  1080   0.516E-02    0.333E-01
DAV:  34    -0.474340473776E+03   -0.47111E-04   -0.31913E-02  1072   0.511E-02    0.338E-01
DAV:  35    -0.474340520633E+03   -0.46857E-04   -0.32581E-02  1108   0.524E-02    0.337E-01
DAV:  36    -0.474340554054E+03   -0.33421E-04   -0.33176E-02  1016   0.520E-02    0.344E-01
DAV:  37    -0.474340595412E+03   -0.41359E-04   -0.33839E-02  1076   0.533E-02    0.343E-01
DAV:  38    -0.474340623273E+03   -0.27861E-04   -0.34387E-02  1032   0.529E-02    0.350E-01
DAV:  39    -0.474340661924E+03   -0.38651E-04   -0.35040E-02  1068   0.542E-02    0.348E-01
DAV:  40    -0.474340686948E+03   -0.25024E-04   -0.35563E-02  1016   0.537E-02    0.355E-01
DAV:  41    -0.474340724362E+03   -0.37414E-04   -0.36208E-02  1080   0.550E-02    0.353E-01
DAV:  42    -0.474340747665E+03   -0.23303E-04   -0.36715E-02  1016   0.545E-02    0.360E-01
DAV:  43    -0.474340784475E+03   -0.36810E-04   -0.37354E-02  1016   0.558E-02    0.358E-01
DAV:  44    -0.474340806532E+03   -0.22057E-04   -0.37845E-02  1024   0.553E-02    0.365E-01
DAV:  45    -0.474340842931E+03   -0.36399E-04   -0.38479E-02  1024   0.566E-02    0.363E-01
DAV:  46    -0.474340863749E+03   -0.20817E-04   -0.38955E-02  1036   0.561E-02    0.369E-01
DAV:  47    -0.474340900038E+03   -0.36290E-04   -0.39586E-02  1032   0.573E-02    0.368E-01
DAV:  48    -0.474340919713E+03   -0.19675E-04   -0.40047E-02  1036   0.568E-02    0.374E-01
DAV:  49    -0.474340955950E+03   -0.36237E-04   -0.40674E-02  1032   0.581E-02    0.373E-01
DAV:  50    -0.474340974592E+03   -0.18642E-04   -0.41122E-02  1036   0.576E-02    0.378E-01
DAV:  51    -0.474341010982E+03   -0.36390E-04   -0.41748E-02  1044   0.588E-02    0.378E-01
DAV:  52    -0.474341028890E+03   -0.17908E-04   -0.42189E-02  1044   0.583E-02    0.382E-01
DAV:  53    -0.474341065410E+03   -0.36520E-04   -0.42813E-02  1044   0.595E-02    0.382E-01
DAV:  54    -0.474341082156E+03   -0.16746E-04   -0.43237E-02  1044   0.590E-02    0.386E-01
DAV:  55    -0.474341118707E+03   -0.36551E-04   -0.43858E-02  1044   0.602E-02    0.387E-01
DAV:  56    -0.474341135235E+03   -0.16528E-04   -0.44279E-02  1040   0.596E-02    0.391E-01
DAV:  57    -0.474341170337E+03   -0.35102E-04   -0.44873E-02  1048   0.609E-02    0.391E-01
DAV:  58    -0.474341187389E+03   -0.17052E-04   -0.45310E-02  1048   0.603E-02    0.395E-01
DAV:  59    -0.474341222695E+03   -0.35306E-04   -0.45901E-02  1048   0.615E-02    0.395E-01
DAV:  60    -0.474341238894E+03   -0.16199E-04   -0.46326E-02  1048   0.609E-02    0.399E-01
DAV:  61    -0.474341275565E+03   -0.36671E-04   -0.46935E-02  1084   0.621E-02    0.400E-01
DAV:  62    -0.474341292776E+03   -0.17211E-04   -0.47393E-02  1100   0.615E-02    0.403E-01
DAV:  63    -0.474341328768E+03   -0.35992E-04   -0.47986E-02  1100   0.628E-02    0.404E-01
DAV:  64    -0.474341345171E+03   -0.16403E-04   -0.48430E-02  1092   0.622E-02    0.407E-01
DAV:  65    -0.474341381199E+03   -0.36028E-04   -0.49022E-02  1084   0.634E-02    0.408E-01
DAV:  66    -0.474341398149E+03   -0.16950E-04   -0.49477E-02  1072   0.628E-02    0.411E-01
DAV:  67    -0.474341434735E+03   -0.36587E-04   -0.50082E-02  1068   0.640E-02    0.412E-01
DAV:  68    -0.474341450969E+03   -0.16234E-04   -0.50523E-02  1068   0.634E-02    0.415E-01
DAV:  69    -0.474341487469E+03   -0.36500E-04   -0.51125E-02  1068   0.646E-02    0.416E-01
DAV:  70    -0.474341502826E+03   -0.15356E-04   -0.51551E-02  1068   0.640E-02    0.419E-01
DAV:  71    -0.474341540120E+03   -0.37294E-04   -0.52164E-02  1068   0.652E-02    0.421E-01
DAV:  72    -0.474341555142E+03   -0.15022E-04   -0.52589E-02  1076   0.646E-02    0.423E-01
DAV:  73    -0.474341592315E+03   -0.37173E-04   -0.53199E-02  1072   0.658E-02    0.424E-01
DAV:  74    -0.474341606397E+03   -0.14083E-04   -0.53606E-02  1068   0.652E-02    0.427E-01
DAV:  75    -0.474341643433E+03   -0.37036E-04   -0.54214E-02  1068   0.664E-02    0.428E-01
DAV:  76    -0.474341656843E+03   -0.13409E-04   -0.54608E-02  1064   0.657E-02    0.431E-01
DAV:  77    -0.474341693835E+03   -0.36993E-04   -0.55217E-02  1064   0.669E-02    0.432E-01
DAV:  78    -0.474341705312E+03   -0.11477E-04   -0.55576E-02  1064   0.663E-02    0.434E-01
DAV:  79    -0.474341742976E+03   -0.37664E-04   -0.56204E-02  1064   0.675E-02    0.435E-01
DAV:  80    -0.474341749690E+03   -0.67146E-05   -0.56474E-02  1064   0.668E-02    0.438E-01
DAV:  81    -0.474341792278E+03   -0.42587E-04   -0.57202E-02  1064   0.680E-02    0.438E-01
DAV:  82    -0.474341795843E+03   -0.35650E-05   -0.57407E-02  1072   0.673E-02    0.441E-01
DAV:  83    -0.474341837205E+03   -0.41362E-04   -0.58111E-02  1072   0.684E-02    0.442E-01
DAV:  84    -0.474341845450E+03   -0.82448E-05   -0.58405E-02  1072   0.678E-02    0.444E-01
DAV:  85    -0.474341883494E+03   -0.38045E-04   -0.59041E-02  1088   0.690E-02    0.445E-01
DAV:  86    -0.474341894318E+03   -0.10824E-04   -0.59386E-02  1088   0.684E-02    0.448E-01
DAV:  87    -0.474341931467E+03   -0.37148E-04   -0.60002E-02  1096   0.695E-02    0.449E-01
DAV:  88    -0.474341942631E+03   -0.11165E-04   -0.60355E-02  1092   0.689E-02    0.451E-01
DAV:  89    -0.474341979221E+03   -0.36589E-04   -0.60959E-02  1096   0.701E-02    0.452E-01
DAV:  90    -0.474341989172E+03   -0.99510E-05   -0.61288E-02  1096   0.694E-02    0.455E-01
DAV:  91    -0.474342025939E+03   -0.36767E-04   -0.61895E-02  1104   0.706E-02    0.455E-01
DAV:  92    -0.474342034866E+03   -0.89268E-05   -0.62203E-02  1104   0.699E-02    0.458E-01
DAV:  93    -0.474342071173E+03   -0.36307E-04   -0.62803E-02  1104   0.711E-02    0.458E-01
DAV:  94    -0.474342078887E+03   -0.77135E-05   -0.63086E-02  1104   0.704E-02    0.461E-01
DAV:  95    -0.474342115011E+03   -0.36124E-04   -0.63683E-02  1104   0.715E-02    0.461E-01
DAV:  96    -0.474342121259E+03   -0.62484E-05   -0.63935E-02  1104   0.708E-02    0.464E-01
DAV:  97    -0.474342156891E+03   -0.35631E-04   -0.64524E-02  1104   0.720E-02    0.464E-01
DAV:  98    -0.474342162464E+03   -0.55739E-05   -0.64762E-02  1104   0.713E-02    0.467E-01
DAV:  99    -0.474342197588E+03   -0.35124E-04   -0.65341E-02  1104   0.724E-02    0.467E-01
DAV: 100    -0.474342202080E+03   -0.44921E-05   -0.65557E-02  1112   0.717E-02    0.469E-01
DAV: 101    -0.474342236706E+03   -0.34626E-04   -0.66128E-02  1120   0.728E-02    0.469E-01
DAV: 102    -0.474342239898E+03   -0.31917E-05   -0.66316E-02  1120   0.721E-02    0.472E-01
DAV: 103    -0.474342274174E+03   -0.34277E-04   -0.66882E-02  1120   0.732E-02    0.472E-01
DAV: 104    -0.474342276193E+03   -0.20185E-05   -0.67044E-02  1120   0.725E-02    0.474E-01
DAV: 105    -0.474342310153E+03   -0.33960E-04   -0.67606E-02  1120   0.736E-02    0.474E-01
DAV: 106    -0.474342310870E+03   -0.71682E-06   -0.67741E-02  1120   0.729E-02    0.476E-01
DAV: 107    -0.474342344492E+03   -0.33623E-04   -0.68297E-02  1120   0.739E-02    0.476E-01
DAV: 108    -0.474342343961E+03    0.53130E-06   -0.68407E-02  1120   0.732E-02    0.479E-01
DAV: 109    -0.474342377306E+03   -0.33345E-04   -0.68958E-02  1120   0.743E-02    0.478E-01
DAV: 110    -0.474342375660E+03    0.16460E-05   -0.69044E-02  1120   0.735E-02    0.481E-01
DAV: 111    -0.474342408549E+03   -0.32889E-04   -0.69588E-02  1120   0.746E-02    0.480E-01
DAV: 112    -0.474342405703E+03    0.28457E-05   -0.69649E-02  1120   0.738E-02    0.483E-01
DAV: 113    -0.474342438396E+03   -0.32692E-04   -0.70190E-02  1120   0.749E-02    0.482E-01
DAV: 114    -0.474342434441E+03    0.39541E-05   -0.70228E-02  1120   0.741E-02    0.484E-01
DAV: 115    -0.474342466800E+03   -0.32359E-04   -0.70764E-02  1120   0.751E-02    0.484E-01
DAV: 116    -0.474342461775E+03    0.50250E-05   -0.70780E-02  1120   0.744E-02    0.486E-01
DAV: 117    -0.474342493921E+03   -0.32146E-04   -0.71313E-02  1120   0.754E-02    0.486E-01
DAV: 118    -0.474342487187E+03    0.67335E-05   -0.71294E-02  1120   0.747E-02    0.488E-01
DAV: 119    -0.474342519375E+03   -0.32188E-04   -0.71829E-02  1120   0.757E-02    0.487E-01
DAV: 120    -0.474342511432E+03    0.79429E-05   -0.71784E-02  1120   0.749E-02    0.489E-01
DAV: 121    -0.474342543031E+03   -0.31599E-04   -0.72312E-02  1120   0.759E-02    0.489E-01
DAV: 122    -0.474342533815E+03    0.92155E-05   -0.72239E-02  1120   0.751E-02    0.491E-01
DAV: 123    -0.474342565408E+03   -0.31592E-04   -0.72768E-02  1120   0.761E-02    0.490E-01
DAV: 124    -0.474342555409E+03    0.99982E-05   -0.72679E-02  1120   0.753E-02    0.492E-01
DAV: 125    -0.474342586440E+03   -0.31031E-04   -0.73197E-02  1120   0.763E-02    0.491E-01
DAV: 126    -0.474342576690E+03    0.97505E-05   -0.73110E-02  1120   0.756E-02    0.493E-01
DAV: 127    -0.474342607290E+03   -0.30600E-04   -0.73597E-02  1120   0.765E-02    0.494E-01
DAV: 128    -0.474342616528E+03   -0.92382E-05   -0.73890E-02  1120   0.760E-02    0.496E-01
DAV: 129    -0.474342617297E+03   -0.76968E-06   -0.73871E-02  1120   0.770E-02    0.495E-01
DAV: 130    -0.474342621790E+03   -0.44930E-05   -0.74059E-02  1120   0.760E-02    0.496E-01
DAV: 131    -0.474342648217E+03   -0.26426E-04   -0.74473E-02  1120   0.770E-02    0.495E-01
DAV: 132    -0.474342637153E+03    0.11064E-04   -0.74362E-02  1120   0.762E-02    0.497E-01
DAV: 133    -0.474342666144E+03   -0.28991E-04   -0.74844E-02  1120   0.771E-02    0.496E-01
DAV: 134    -0.474342653504E+03    0.12640E-04   -0.74697E-02  1120   0.763E-02    0.498E-01
DAV: 135    -0.474342682006E+03   -0.28503E-04   -0.75172E-02  1120   0.772E-02    0.497E-01
DAV: 136    -0.474342669224E+03    0.12783E-04   -0.75021E-02  1120   0.765E-02    0.499E-01
DAV: 137    -0.474342697162E+03   -0.27939E-04   -0.75485E-02  1120   0.774E-02    0.498E-01
DAV: 138    -0.474342684086E+03    0.13077E-04   -0.75327E-02  1120   0.766E-02    0.500E-01
DAV: 139    -0.474342711513E+03   -0.27427E-04   -0.75781E-02  1120   0.775E-02    0.499E-01
DAV: 140    -0.474342698200E+03    0.13313E-04   -0.75617E-02  1120   0.767E-02    0.501E-01
DAV: 141    -0.474342725164E+03   -0.26965E-04   -0.76062E-02  1120   0.777E-02    0.500E-01
DAV: 142    -0.474342711520E+03    0.13645E-04   -0.75891E-02  1120   0.769E-02    0.502E-01
DAV: 143    -0.474342738122E+03   -0.26602E-04   -0.76329E-02  1120   0.778E-02    0.501E-01
DAV: 144    -0.474342724155E+03    0.13967E-04   -0.76150E-02  1120   0.770E-02    0.503E-01
DAV: 145    -0.474342750396E+03   -0.26242E-04   -0.76582E-02  1120   0.779E-02    0.502E-01
DAV: 146    -0.474342736102E+03    0.14294E-04   -0.76395E-02  1120   0.771E-02    0.503E-01
DAV: 147    -0.474342762031E+03   -0.25929E-04   -0.76821E-02  1120   0.780E-02    0.502E-01
DAV: 148    -0.474342747384E+03    0.14647E-04   -0.76627E-02  1120   0.772E-02    0.504E-01
DAV: 149    -0.474342773019E+03   -0.25634E-04   -0.77047E-02  1120   0.781E-02    0.503E-01
DAV: 150    -0.474342758047E+03    0.14971E-04   -0.76845E-02  1120   0.773E-02    0.505E-01
DAV: 151    -0.474342783409E+03   -0.25362E-04   -0.77261E-02  1120   0.782E-02    0.504E-01
DAV: 152    -0.474342768130E+03    0.15279E-04   -0.77052E-02  1120   0.774E-02    0.505E-01
DAV: 153    -0.474342793227E+03   -0.25096E-04   -0.77463E-02  1120   0.783E-02    0.504E-01
DAV: 154    -0.474342777643E+03    0.15583E-04   -0.77247E-02  1120   0.775E-02    0.506E-01
DAV: 155    -0.474342802503E+03   -0.24860E-04   -0.77654E-02  1120   0.784E-02    0.505E-01
DAV: 156    -0.474342786634E+03    0.15869E-04   -0.77431E-02  1120   0.776E-02    0.507E-01
DAV: 157    -0.474342811255E+03   -0.24621E-04   -0.77834E-02  1120   0.785E-02    0.505E-01
DAV: 158    -0.474342795134E+03    0.16121E-04   -0.77605E-02  1120   0.777E-02    0.507E-01
DAV: 159    -0.474342819541E+03   -0.24407E-04   -0.78004E-02  1120   0.786E-02    0.506E-01
DAV: 160    -0.474342803148E+03    0.16393E-04   -0.77770E-02  1120   0.778E-02    0.508E-01
DAV: 161    -0.474342827380E+03   -0.24232E-04   -0.78165E-02  1120   0.786E-02    0.506E-01
DAV: 162    -0.474342810837E+03    0.16542E-04   -0.77928E-02  1120   0.778E-02    0.508E-01
DAV: 163    -0.474342834771E+03   -0.23934E-04   -0.78318E-02  1120   0.787E-02    0.507E-01
DAV: 164    -0.474342818013E+03    0.16758E-04   -0.78075E-02  1120   0.779E-02    0.508E-01
DAV: 165    -0.474342841773E+03   -0.23759E-04   -0.78462E-02  1120   0.788E-02    0.507E-01
DAV: 166    -0.474342824794E+03    0.16979E-04   -0.78215E-02  1120   0.780E-02    0.509E-01
DAV: 167    -0.474342848149E+03   -0.23355E-04   -0.78595E-02  1120   0.788E-02    0.508E-01
DAV: 168    -0.474342831356E+03    0.16793E-04   -0.78352E-02  1120   0.780E-02    0.509E-01
DAV: 169    -0.474342854475E+03   -0.23119E-04   -0.78726E-02  1120   0.789E-02    0.508E-01
DAV: 170    -0.474342837478E+03    0.16997E-04   -0.78479E-02  1120   0.781E-02    0.510E-01
DAV: 171    -0.474342860819E+03   -0.23341E-04   -0.78854E-02  1120   0.789E-02    0.509E-01
DAV: 172    -0.474342851238E+03    0.95812E-05   -0.78695E-02  1120   0.782E-02    0.511E-01
DAV: 173    -0.474342850466E+03    0.77172E-06   -0.78619E-02  1128   0.793E-02    0.511E-01
DAV: 174    -0.474342861005E+03   -0.10539E-04   -0.78984E-02  1128   0.783E-02    0.511E-01
DAV: 175    -0.474342878824E+03   -0.17819E-04   -0.79200E-02  1136   0.792E-02    0.509E-01
DAV: 176    -0.474342862047E+03    0.16777E-04   -0.78960E-02  1136   0.784E-02    0.511E-01
DAV: 177    -0.474342884997E+03   -0.22950E-04   -0.79330E-02  1136   0.792E-02    0.510E-01
DAV: 178    -0.474342865697E+03    0.19300E-04   -0.79033E-02  1136   0.784E-02    0.511E-01
DAV: 179    -0.474342888913E+03   -0.23216E-04   -0.79412E-02  1136   0.792E-02    0.510E-01
DAV: 180    -0.474342869392E+03    0.19521E-04   -0.79111E-02  1136   0.784E-02    0.512E-01
DAV: 181    -0.474342892510E+03   -0.23118E-04   -0.79489E-02  1136   0.793E-02    0.510E-01
DAV: 182    -0.474342872882E+03    0.19628E-04   -0.79185E-02  1136   0.785E-02    0.512E-01
DAV: 183    -0.474342895894E+03   -0.23012E-04   -0.79562E-02  1136   0.793E-02    0.510E-01
DAV: 184    -0.474342876164E+03    0.19730E-04   -0.79256E-02  1136   0.785E-02    0.512E-01
DAV: 185    -0.474342899077E+03   -0.22914E-04   -0.79632E-02  1136   0.793E-02    0.510E-01
DAV: 186    -0.474342879257E+03    0.19820E-04   -0.79325E-02  1136   0.785E-02    0.512E-01
DAV: 187    -0.474342902051E+03   -0.22794E-04   -0.79699E-02  1136   0.794E-02    0.511E-01
DAV: 188    -0.474342882192E+03    0.19859E-04   -0.79392E-02  1136   0.786E-02    0.512E-01
DAV: 189    -0.474342904866E+03   -0.22674E-04   -0.79764E-02  1136   0.794E-02    0.511E-01
DAV: 190    -0.474342884974E+03    0.19892E-04   -0.79457E-02  1136   0.786E-02    0.513E-01
DAV: 191    -0.474342907530E+03   -0.22555E-04   -0.79828E-02  1136   0.794E-02    0.511E-01
DAV: 192    -0.474342887714E+03    0.19816E-04   -0.79524E-02  1136   0.786E-02    0.513E-01
DAV: 193    -0.474342910044E+03   -0.22330E-04   -0.79891E-02  1136   0.794E-02    0.511E-01
DAV: 194    -0.474342890300E+03    0.19744E-04   -0.79589E-02  1136   0.786E-02    0.513E-01
DAV: 195    -0.474342912488E+03   -0.22188E-04   -0.79953E-02  1136   0.795E-02    0.511E-01
DAV: 196    -0.474342892774E+03    0.19713E-04   -0.79651E-02  1136   0.787E-02    0.513E-01
DAV: 197    -0.474342914770E+03   -0.21995E-04   -0.80012E-02  1136   0.795E-02    0.511E-01
DAV: 198    -0.474342895189E+03    0.19580E-04   -0.79713E-02  1136   0.787E-02    0.513E-01
DAV: 199    -0.474342917078E+03   -0.21889E-04   -0.80071E-02  1136   0.795E-02    0.512E-01
DAV: 200    -0.474342897445E+03    0.19633E-04   -0.79769E-02  1136   0.787E-02
   1 F= -.47434290E+03 E0= -.47426351E+03  d E =-.474343E+03
       N       E                     dE             d eps       ncg     rms          rms(c)
DAV:   1    -0.474347732863E+03   -0.48158E-02   -0.40020E-01  1344   0.156E+00    0.546E-01
DAV:   2    -0.474468753279E+03   -0.12102E+00   -0.10420E+00  1500   0.632E-01    0.702E+00
DAV:   3    -0.474337688274E+03    0.13107E+00   -0.11543E+00  1476   0.552E-01    0.494E-01
DAV:   4    -0.474349485085E+03   -0.11797E-01   -0.10010E-01  1420   0.177E-01    0.913E-01
DAV:   5    -0.474349857462E+03   -0.37238E-03   -0.10937E-01  1456   0.153E-01    0.410E-01
DAV:   6    -0.474350470875E+03   -0.61341E-03   -0.11180E-01  1416   0.113E-01    0.845E-01
DAV:   7    -0.474350167810E+03    0.30307E-03   -0.11420E-01  1336   0.968E-02    0.429E-01
DAV:   8    -0.474350840159E+03   -0.67235E-03   -0.11923E-01  1272   0.979E-02    0.847E-01
DAV:   9    -0.474350437240E+03    0.40292E-03   -0.11989E-01  1212   0.944E-02    0.412E-01
DAV:  10    -0.474350812539E+03   -0.37530E-03   -0.11902E-01  1212   0.938E-02    0.821E-01
DAV:  11    -0.474350361784E+03    0.45075E-03   -0.11823E-01  1212   0.945E-02    0.421E-01
DAV:  12    -0.474350695530E+03   -0.33375E-03   -0.11713E-01  1216   0.935E-02    0.801E-01
DAV:  13    -0.474350248670E+03    0.44686E-03   -0.11576E-01  1208   0.932E-02    0.424E-01
DAV:  14    -0.474350545806E+03   -0.29714E-03   -0.11446E-01  1208   0.925E-02    0.783E-01
DAV:  15    -0.474350120629E+03    0.42518E-03   -0.11301E-01  1208   0.922E-02    0.424E-01
DAV:  16    -0.474350389119E+03   -0.26849E-03   -0.11161E-01  1208   0.915E-02    0.766E-01
DAV:  17    -0.474349983031E+03    0.40609E-03   -0.11008E-01  1208   0.912E-02    0.423E-01
DAV:  18    -0.474350226181E+03   -0.24315E-03   -0.10858E-01  1208   0.905E-02    0.749E-01
DAV:  19    -0.474349838601E+03    0.38758E-03   -0.10701E-01  1208   0.901E-02    0.421E-01
DAV:  20    -0.474350060614E+03   -0.22201E-03   -0.10547E-01  1208   0.894E-02    0.734E-01
DAV:  21    -0.474349692374E+03    0.36824E-03   -0.10392E-01  1208   0.889E-02    0.418E-01
DAV:  22    -0.474349897713E+03   -0.20534E-03   -0.10238E-01  1208   0.882E-02    0.719E-01
DAV:  23    -0.474349549226E+03    0.34849E-03   -0.10089E-01  1208   0.877E-02    0.416E-01
DAV:  24    -0.474349741239E+03   -0.19201E-03   -0.99406E-02  1208   0.871E-02    0.704E-01
DAV:  25    -0.474349412397E+03    0.32884E-03   -0.98001E-02  1216   0.865E-02    0.414E-01
DAV:  26    -0.474349593232E+03   -0.18084E-03   -0.96587E-02  1204   0.859E-02    0.691E-01
DAV:  27    -0.474349283480E+03    0.30975E-03   -0.95280E-02  1200   0.854E-02    0.412E-01
DAV:  28    -0.474349454547E+03   -0.17107E-03   -0.93945E-02  1200   0.848E-02    0.678E-01
DAV:  29    -0.474349163094E+03    0.29145E-03   -0.92737E-02  1200   0.843E-02    0.410E-01
DAV:  30    -0.474349325322E+03   -0.16223E-03   -0.91485E-02  1192   0.837E-02    0.665E-01
DAV:  31    -0.474349051251E+03    0.27407E-03   -0.90374E-02  1192   0.832E-02    0.409E-01
DAV:  32    -0.474349205308E+03   -0.15406E-03   -0.89204E-02  1184   0.827E-02    0.653E-01
DAV:  33    -0.474348947607E+03    0.25770E-03   -0.88184E-02  1184   0.822E-02    0.408E-01
DAV:  34    -0.474349094007E+03   -0.14640E-03   -0.87091E-02  1176   0.817E-02    0.642E-01
DAV:  35    -0.474348851748E+03    0.24226E-03   -0.86158E-02  1168   0.813E-02    0.407E-01
DAV:  36    -0.474348990910E+03   -0.13916E-03   -0.85137E-02  1168   0.808E-02    0.631E-01
DAV:  37    -0.474348763200E+03    0.22771E-03   -0.84283E-02  1168   0.804E-02    0.407E-01
DAV:  38    -0.474348895363E+03   -0.13216E-03   -0.83330E-02  1168   0.799E-02    0.621E-01
DAV:  39    -0.474348681431E+03    0.21393E-03   -0.82549E-02  1160   0.796E-02    0.407E-01
DAV:  40    -0.474348806787E+03   -0.12536E-03   -0.81658E-02  1160   0.791E-02    0.611E-01
DAV:  41    -0.474348605916E+03    0.20087E-03   -0.80945E-02  1152   0.789E-02    0.407E-01
DAV:  42    -0.474348724655E+03   -0.11874E-03   -0.80111E-02  1152   0.784E-02    0.602E-01
DAV:  43    -0.474348536123E+03    0.18853E-03   -0.79460E-02  1152   0.782E-02    0.407E-01
DAV:  44    -0.474348648423E+03   -0.11230E-03   -0.78678E-02  1152   0.777E-02    0.593E-01
DAV:  45    -0.474348471581E+03    0.17684E-03   -0.78083E-02  1144   0.775E-02    0.408E-01
DAV:  46    -0.474348577588E+03   -0.10601E-03   -0.77350E-02  1144   0.770E-02    0.584E-01
DAV:  47    -0.474348413325E+03    0.16426E-03   -0.76830E-02  1136   0.769E-02    0.409E-01
DAV:  48    -0.474348519655E+03   -0.10633E-03   -0.76253E-02  1136   0.764E-02    0.577E-01
DAV:  49    -0.474348363712E+03    0.15594E-03   -0.75763E-02  1136   0.763E-02    0.410E-01
DAV:  50    -0.474348467434E+03   -0.10372E-03   -0.75277E-02  1136   0.759E-02    0.571E-01
DAV:  51    -0.474348320299E+03    0.14714E-03   -0.74827E-02  1136   0.759E-02    0.411E-01
DAV:  52    -0.474348427324E+03   -0.10703E-03   -0.74499E-02  1136   0.753E-02    0.566E-01
DAV:  53    -0.474348294402E+03    0.13292E-03   -0.74215E-02  1128   0.755E-02    0.416E-01
DAV:  54    -0.474348438051E+03   -0.14365E-03   -0.74712E-02  1128   0.751E-02    0.568E-01
DAV:  55    -0.474348297093E+03    0.14096E-03   -0.74297E-02  1128   0.755E-02    0.414E-01
DAV:  56    -0.474348400229E+03   -0.10314E-03   -0.74054E-02  1128   0.751E-02    0.561E-01
DAV:  57    -0.474348266333E+03    0.13390E-03   -0.73646E-02  1128   0.754E-02    0.413E-01
DAV:  58    -0.474348359718E+03   -0.93385E-04   -0.73266E-02  1128   0.747E-02    0.556E-01
DAV:  59    -0.474348231508E+03    0.12821E-03   -0.72912E-02  1128   0.749E-02    0.412E-01
DAV:  60    -0.474348321833E+03   -0.90325E-04   -0.72524E-02  1128   0.744E-02    0.553E-01
DAV:  61    -0.474348198098E+03    0.12373E-03   -0.72207E-02  1128   0.746E-02    0.411E-01
DAV:  62    -0.474348293050E+03   -0.94951E-04   -0.71937E-02  1128   0.740E-02    0.551E-01
DAV:  63    -0.474348170725E+03    0.12232E-03   -0.71639E-02  1128   0.743E-02    0.409E-01
DAV:  64    -0.474348266888E+03   -0.96163E-04   -0.71395E-02  1128   0.737E-02    0.550E-01
DAV:  65    -0.474348145696E+03    0.12119E-03   -0.71123E-02  1128   0.741E-02    0.407E-01
DAV:  66    -0.474348243792E+03   -0.98096E-04   -0.70914E-02  1128   0.734E-02    0.549E-01
DAV:  67    -0.474348122659E+03    0.12113E-03   -0.70650E-02  1128   0.738E-02    0.405E-01
DAV:  68    -0.474348225507E+03   -0.10285E-03   -0.70512E-02  1120   0.732E-02    0.549E-01
DAV:  69    -0.474348103744E+03    0.12176E-03   -0.70268E-02  1120   0.736E-02    0.403E-01
DAV:  70    -0.474348209412E+03   -0.10567E-03   -0.70152E-02  1120   0.730E-02    0.549E-01
DAV:  71    -0.474348086446E+03    0.12297E-03   -0.69921E-02  1120   0.734E-02    0.401E-01
DAV:  72    -0.474348198249E+03   -0.11180E-03   -0.69873E-02  1120   0.728E-02    0.550E-01
DAV:  73    -0.474348072033E+03    0.12622E-03   -0.69640E-02  1120   0.733E-02    0.398E-01
DAV:  74    -0.474348188017E+03   -0.11598E-03   -0.69609E-02  1120   0.727E-02    0.552E-01
DAV:  75    -0.474348059017E+03    0.12900E-03   -0.69390E-02  1120   0.732E-02    0.395E-01
DAV:  76    -0.474348179366E+03   -0.12035E-03   -0.69377E-02  1120   0.726E-02    0.553E-01
DAV:  77    -0.474348047023E+03    0.13234E-03   -0.69162E-02  1120   0.731E-02    0.392E-01
DAV:  78    -0.474348172525E+03   -0.12550E-03   -0.69174E-02  1120   0.724E-02    0.555E-01
DAV:  79    -0.474348036935E+03    0.13559E-03   -0.68972E-02  1120   0.730E-02    0.389E-01
DAV:  80    -0.474348166923E+03   -0.12999E-03   -0.69000E-02  1120   0.724E-02    0.557E-01
DAV:  81    -0.474348028003E+03    0.13892E-03   -0.68806E-02  1120   0.729E-02    0.386E-01
DAV:  82    -0.474348163403E+03   -0.13540E-03   -0.68860E-02  1120   0.723E-02    0.560E-01
DAV:  83    -0.474348020566E+03    0.14284E-03   -0.68670E-02  1120   0.728E-02    0.383E-01
DAV:  84    -0.474348160150E+03   -0.13958E-03   -0.68732E-02  1120   0.722E-02    0.562E-01
DAV:  85    -0.474348014062E+03    0.14609E-03   -0.68552E-02  1120   0.728E-02    0.380E-01
DAV:  86    -0.474348157513E+03   -0.14345E-03   -0.68620E-02  1120   0.722E-02    0.564E-01
DAV:  87    -0.474348008470E+03    0.14904E-03   -0.68451E-02  1120   0.727E-02    0.378E-01
DAV:  88    -0.474348154055E+03   -0.14558E-03   -0.68501E-02  1120   0.721E-02    0.565E-01
DAV:  89    -0.474348002575E+03    0.15148E-03   -0.68339E-02  1120   0.726E-02    0.376E-01
DAV:  90    -0.474348151379E+03   -0.14880E-03   -0.68403E-02  1120   0.721E-02    0.567E-01
DAV:  91    -0.474347997732E+03    0.15365E-03   -0.68247E-02  1120   0.726E-02    0.374E-01
DAV:  92    -0.474348148251E+03   -0.15052E-03   -0.68302E-02  1120   0.721E-02    0.568E-01
DAV:  93    -0.474347992875E+03    0.15538E-03   -0.68151E-02  1120   0.725E-02    0.373E-01
DAV:  94    -0.474348145414E+03   -0.15254E-03   -0.68211E-02  1120   0.720E-02    0.569E-01
DAV:  95    -0.474347988616E+03    0.15680E-03   -0.68067E-02  1120   0.725E-02    0.371E-01
DAV:  96    -0.474348142767E+03   -0.15415E-03   -0.68127E-02  1120   0.720E-02    0.570E-01
DAV:  97    -0.474347985042E+03    0.15772E-03   -0.67988E-02  1120   0.725E-02    0.371E-01
DAV:  98    -0.474348153950E+03   -0.16891E-03   -0.68226E-02  1120   0.721E-02    0.571E-01
DAV:  99    -0.474347955623E+03    0.19833E-03   -0.67432E-02  1120   0.727E-02    0.369E-01
DAV: 100    -0.474348128314E+03   -0.17269E-03   -0.67798E-02  1120   0.718E-02    0.570E-01
DAV: 101    -0.474347967180E+03    0.16113E-03   -0.67641E-02  1120   0.723E-02    0.367E-01
DAV: 102    -0.474348125327E+03   -0.15815E-03   -0.67702E-02  1120   0.718E-02    0.571E-01
DAV: 103    -0.474347966011E+03    0.15932E-03   -0.67618E-02  1120   0.722E-02    0.366E-01
DAV: 104    -0.474348124423E+03   -0.15841E-03   -0.67657E-02  1120   0.718E-02    0.572E-01
DAV: 105    -0.474347963898E+03    0.16053E-03   -0.67574E-02  1120   0.722E-02    0.365E-01
DAV: 106    -0.474348123569E+03   -0.15967E-03   -0.67615E-02  1120   0.718E-02    0.572E-01
DAV: 107    -0.474347961840E+03    0.16173E-03   -0.67530E-02  1120   0.722E-02    0.364E-01
DAV: 108    -0.474348122016E+03   -0.16018E-03   -0.67565E-02  1120   0.717E-02    0.573E-01
DAV: 109    -0.474347959424E+03    0.16259E-03   -0.67478E-02  1120   0.722E-02    0.364E-01
DAV: 110    -0.474348120454E+03   -0.16103E-03   -0.67515E-02  1120   0.717E-02    0.573E-01
DAV: 111    -0.474347957097E+03    0.16336E-03   -0.67426E-02  1120   0.722E-02    0.363E-01
DAV: 112    -0.474348118072E+03   -0.16097E-03   -0.67454E-02  1120   0.717E-02    0.573E-01
DAV: 113    -0.474347954300E+03    0.16377E-03   -0.67364E-02  1120   0.721E-02    0.363E-01
DAV: 114    -0.474348115720E+03   -0.16142E-03   -0.67395E-02  1120   0.717E-02    0.573E-01
DAV: 115    -0.474347951641E+03    0.16408E-03   -0.67303E-02  1120   0.721E-02    0.363E-01
DAV: 116    -0.474348113365E+03   -0.16172E-03   -0.67337E-02  1120   0.717E-02    0.573E-01
DAV: 117    -0.474347949068E+03    0.16430E-03   -0.67245E-02  1120   0.721E-02    0.362E-01
DAV: 118    -0.474348110740E+03   -0.16167E-03   -0.67275E-02  1120   0.716E-02    0.573E-01
DAV: 119    -0.474347946225E+03    0.16451E-03   -0.67180E-02  1120   0.721E-02    0.362E-01
DAV: 120    -0.474348108082E+03   -0.16186E-03   -0.67213E-02  1120   0.716E-02    0.573E-01
DAV: 121    -0.474347943534E+03    0.16455E-03   -0.67118E-02  1120   0.720E-02    0.362E-01
DAV: 122    -0.474348104847E+03   -0.16131E-03   -0.67143E-02  1120   0.716E-02    0.573E-01
DAV: 123    -0.474347940373E+03    0.16447E-03   -0.67045E-02  1120   0.720E-02    0.362E-01
DAV: 124    -0.474348101639E+03   -0.16127E-03   -0.67073E-02  1120   0.716E-02    0.572E-01
DAV: 125    -0.474347937416E+03    0.16422E-03   -0.66976E-02  1120   0.720E-02    0.362E-01
DAV: 126    -0.474348098509E+03   -0.16109E-03   -0.67006E-02  1120   0.715E-02    0.572E-01
DAV: 127    -0.474347934568E+03    0.16394E-03   -0.66910E-02  1120   0.720E-02    0.361E-01
DAV: 128    -0.474348095483E+03   -0.16092E-03   -0.66940E-02  1120   0.715E-02    0.572E-01
DAV: 129    -0.474347931609E+03    0.16387E-03   -0.66840E-02  1120   0.719E-02    0.361E-01
DAV: 130    -0.474348092414E+03   -0.16081E-03   -0.66874E-02  1120   0.715E-02    0.571E-01
DAV: 131    -0.474347928841E+03    0.16357E-03   -0.66775E-02  1120   0.719E-02    0.361E-01
DAV: 132    -0.474348089209E+03   -0.16037E-03   -0.66805E-02  1120   0.714E-02    0.571E-01
DAV: 133    -0.474347925830E+03    0.16338E-03   -0.66704E-02  1120   0.719E-02    0.361E-01
DAV: 134    -0.474348086034E+03   -0.16020E-03   -0.66738E-02  1120   0.714E-02    0.571E-01
DAV: 135    -0.474347923051E+03    0.16298E-03   -0.66638E-02  1120   0.718E-02    0.361E-01
DAV: 136    -0.474348082986E+03   -0.15993E-03   -0.66673E-02  1120   0.714E-02    0.570E-01
DAV: 137    -0.474347920408E+03    0.16258E-03   -0.66575E-02  1120   0.718E-02    0.361E-01
DAV: 138    -0.474348080123E+03   -0.15972E-03   -0.66611E-02  1120   0.714E-02    0.570E-01
DAV: 139    -0.474347917710E+03    0.16241E-03   -0.66510E-02  1120   0.718E-02    0.361E-01
DAV: 140    -0.474348077247E+03   -0.15954E-03   -0.66549E-02  1120   0.713E-02    0.570E-01
DAV: 141    -0.474347915214E+03    0.16203E-03   -0.66450E-02  1120   0.718E-02    0.361E-01
DAV: 142    -0.474348074219E+03   -0.15900E-03   -0.66485E-02  1120   0.713E-02    0.570E-01
DAV: 143    -0.474347925655E+03    0.14856E-03   -0.66579E-02  1120   0.720E-02    0.361E-01
DAV: 144    -0.474348037701E+03   -0.11205E-03   -0.65797E-02  1120   0.714E-02    0.567E-01
DAV: 145    -0.474347888540E+03    0.14916E-03   -0.65899E-02  1120   0.713E-02    0.359E-01
DAV: 146    -0.474348045498E+03   -0.15696E-03   -0.65901E-02  1120   0.711E-02    0.567E-01
DAV: 147    -0.474347885766E+03    0.15973E-03   -0.65824E-02  1120   0.715E-02    0.360E-01
DAV: 148    -0.474348044981E+03   -0.15922E-03   -0.65887E-02  1120   0.710E-02    0.567E-01
DAV: 149    -0.474347884982E+03    0.16000E-03   -0.65798E-02  1120   0.715E-02    0.360E-01
DAV: 150    -0.474348043971E+03   -0.15899E-03   -0.65861E-02  1120   0.710E-02    0.567E-01
DAV: 151    -0.474347884359E+03    0.15961E-03   -0.65776E-02  1120   0.715E-02    0.360E-01
DAV: 152    -0.474348043083E+03   -0.15872E-03   -0.65838E-02  1120   0.710E-02    0.567E-01
DAV: 153    -0.474347883734E+03    0.15935E-03   -0.65754E-02  1120   0.714E-02    0.360E-01
DAV: 154    -0.474348042227E+03   -0.15849E-03   -0.65815E-02  1120   0.710E-02    0.566E-01
DAV: 155    -0.474347883182E+03    0.15904E-03   -0.65734E-02  1120   0.714E-02    0.360E-01
DAV: 156    -0.474348041434E+03   -0.15825E-03   -0.65794E-02  1120   0.710E-02    0.566E-01
DAV: 157    -0.474347882665E+03    0.15877E-03   -0.65715E-02  1120   0.714E-02    0.360E-01
DAV: 158    -0.474348040775E+03   -0.15811E-03   -0.65775E-02  1120   0.710E-02    0.566E-01
DAV: 159    -0.474347882209E+03    0.15857E-03   -0.65697E-02  1120   0.714E-02    0.360E-01
DAV: 160    -0.474348040146E+03   -0.15794E-03   -0.65757E-02  1120   0.710E-02    0.566E-01
DAV: 161    -0.474347881784E+03    0.15836E-03   -0.65681E-02  1120   0.714E-02    0.360E-01
DAV: 162    -0.474348039646E+03   -0.15786E-03   -0.65740E-02  1120   0.710E-02    0.566E-01
DAV: 163    -0.474347881460E+03    0.15819E-03   -0.65666E-02  1120   0.714E-02    0.360E-01
DAV: 164    -0.474348039195E+03   -0.15773E-03   -0.65724E-02  1120   0.710E-02    0.566E-01
DAV: 165    -0.474347881148E+03    0.15805E-03   -0.65651E-02  1120   0.714E-02    0.360E-01
DAV: 166    -0.474348038776E+03   -0.15763E-03   -0.65710E-02  1120   0.709E-02    0.566E-01
DAV: 167    -0.474347880854E+03    0.15792E-03   -0.65638E-02  1120   0.714E-02    0.360E-01
DAV: 168    -0.474348038421E+03   -0.15757E-03   -0.65696E-02  1120   0.709E-02    0.566E-01
DAV: 169    -0.474347880661E+03    0.15776E-03   -0.65626E-02  1120   0.714E-02    0.360E-01
DAV: 170    -0.474348038137E+03   -0.15748E-03   -0.65684E-02  1120   0.709E-02    0.566E-01
DAV: 171    -0.474347880459E+03    0.15768E-03   -0.65614E-02  1120   0.714E-02    0.360E-01
DAV: 172    -0.474348037938E+03   -0.15748E-03   -0.65672E-02  1120   0.709E-02    0.566E-01
DAV: 173    -0.474347880415E+03    0.15752E-03   -0.65605E-02  1120   0.714E-02    0.360E-01
DAV: 174    -0.474348037826E+03   -0.15741E-03   -0.65663E-02  1120   0.709E-02    0.566E-01
DAV: 175    -0.474347880331E+03    0.15750E-03   -0.65596E-02  1120   0.714E-02    0.360E-01
DAV: 176    -0.474348037715E+03   -0.15738E-03   -0.65653E-02  1120   0.709E-02    0.566E-01
DAV: 177    -0.474347880242E+03    0.15747E-03   -0.65587E-02  1120   0.714E-02    0.360E-01
DAV: 178    -0.474348037621E+03   -0.15738E-03   -0.65644E-02  1120   0.709E-02    0.566E-01
DAV: 179    -0.474347880322E+03    0.15730E-03   -0.65580E-02  1120   0.714E-02    0.360E-01
DAV: 180    -0.474348037646E+03   -0.15732E-03   -0.65637E-02  1120   0.709E-02    0.566E-01
DAV: 181    -0.474347880332E+03    0.15731E-03   -0.65573E-02  1120   0.714E-02    0.360E-01
DAV: 182    -0.474348037695E+03   -0.15736E-03   -0.65629E-02  1120   0.709E-02    0.566E-01
DAV: 183    -0.474347880596E+03    0.15710E-03   -0.65570E-02  1120   0.714E-02    0.360E-01
DAV: 184    -0.474348037892E+03   -0.15730E-03   -0.65625E-02  1120   0.709E-02    0.566E-01
DAV: 185    -0.474347880722E+03    0.15717E-03   -0.65565E-02  1120   0.714E-02    0.360E-01
DAV: 186    -0.474348038049E+03   -0.15733E-03   -0.65620E-02  1120   0.709E-02    0.566E-01
DAV: 187    -0.474347880686E+03    0.15736E-03   -0.65558E-02  1120   0.714E-02    0.360E-01
DAV: 188    -0.474348035182E+03   -0.15450E-03   -0.65484E-02  1120   0.712E-02    0.569E-01
DAV: 189    -0.474347908225E+03    0.12696E-03   -0.66191E-02  1120   0.718E-02    0.361E-01
DAV: 190    -0.474348053475E+03   -0.14525E-03   -0.65929E-02  1120   0.711E-02    0.567E-01
DAV: 191    -0.474347896216E+03    0.15726E-03   -0.65880E-02  1120   0.716E-02    0.361E-01
DAV: 192    -0.474348053772E+03   -0.15756E-03   -0.65928E-02  1120   0.711E-02    0.567E-01
DAV: 193    -0.474347894421E+03    0.15935E-03   -0.65834E-02  1120   0.716E-02    0.361E-01
DAV: 194    -0.474348052632E+03   -0.15821E-03   -0.65896E-02  1120   0.711E-02    0.567E-01
DAV: 195    -0.474347893372E+03    0.15926E-03   -0.65804E-02  1120   0.716E-02    0.361E-01
DAV: 196    -0.474348051555E+03   -0.15818E-03   -0.65866E-02  1120   0.711E-02    0.567E-01
DAV: 197    -0.474347892423E+03    0.15913E-03   -0.65776E-02  1120   0.716E-02    0.361E-01
DAV: 198    -0.474348050592E+03   -0.15817E-03   -0.65838E-02  1120   0.711E-02    0.567E-01
DAV: 199    -0.474347891546E+03    0.15905E-03   -0.65750E-02  1120   0.715E-02    0.361E-01
DAV: 200    -0.474348049712E+03   -0.15817E-03   -0.65812E-02  1120   0.711E-02
   2 F= -.47434805E+03 E0= -.47426903E+03  d E =-.515227E-02
       N       E                     dE             d eps       ncg     rms          rms(c)
DAV:   1    -0.474349006612E+03   -0.11151E-02   -0.71134E-01  1336   0.219E+00    0.632E-01
DAV:   2    -0.474593651335E+03   -0.24464E+00   -0.21296E+00  1500   0.874E-01    0.982E+00
DAV:   3    -0.474327038192E+03    0.26661E+00   -0.20087E+00  1484   0.713E-01    0.313E-01
DAV:   4    -0.474346245522E+03   -0.19207E-01   -0.33563E-02  1412   0.197E-01    0.643E-01
DAV:   5    -0.474348114268E+03   -0.18687E-02   -0.34781E-02  1492   0.912E-02    0.309E-01
DAV:   6    -0.474348728869E+03   -0.61460E-03   -0.37442E-02  1432   0.776E-02    0.627E-01
DAV:   7    -0.474348590279E+03    0.13859E-03   -0.40701E-02  1380   0.677E-02    0.219E-01
DAV:   8    -0.474348902812E+03   -0.31253E-03   -0.41691E-02  1176   0.624E-02    0.572E-01
DAV:   9    -0.474348724736E+03    0.17808E-03   -0.42694E-02  1096   0.600E-02    0.210E-01
DAV:  10    -0.474348964604E+03   -0.23987E-03   -0.42931E-02  1072   0.600E-02    0.557E-01
DAV:  11    -0.474348751534E+03    0.21307E-03   -0.43106E-02  1064   0.591E-02    0.222E-01
DAV:  12    -0.474348961642E+03   -0.21011E-03   -0.43215E-02  1056   0.593E-02    0.545E-01
DAV:  13    -0.474348760566E+03    0.20108E-03   -0.43332E-02  1056   0.590E-02    0.233E-01
DAV:  14    -0.474348959631E+03   -0.19907E-03   -0.43473E-02  1056   0.594E-02    0.535E-01
DAV:  15    -0.474348767669E+03    0.19196E-03   -0.43498E-02  1056   0.589E-02    0.241E-01
DAV:  16    -0.474348957157E+03   -0.18949E-03   -0.43647E-02  1056   0.594E-02    0.528E-01
DAV:  17    -0.474348772167E+03    0.18499E-03   -0.43606E-02  1048   0.589E-02    0.247E-01
DAV:  18    -0.474348952714E+03   -0.18055E-03   -0.43744E-02  1040   0.593E-02    0.522E-01
DAV:  19    -0.474348773178E+03    0.17954E-03   -0.43643E-02  1040   0.589E-02    0.252E-01
DAV:  20    -0.474348945253E+03   -0.17208E-03   -0.43761E-02  1036   0.593E-02    0.516E-01
DAV:  21    -0.474348770146E+03    0.17511E-03   -0.43600E-02  1032   0.588E-02    0.256E-01
DAV:  22    -0.474348934032E+03   -0.16389E-03   -0.43688E-02  1032   0.592E-02    0.510E-01
DAV:  23    -0.474348762887E+03    0.17114E-03   -0.43471E-02  1032   0.588E-02    0.259E-01
DAV:  24    -0.474348919142E+03   -0.15625E-03   -0.43529E-02  1032   0.591E-02    0.505E-01
DAV:  25    -0.474348751993E+03    0.16715E-03   -0.43268E-02  1032   0.586E-02    0.262E-01
DAV:  26    -0.474348901489E+03   -0.14950E-03   -0.43301E-02  1032   0.590E-02    0.500E-01
DAV:  27    -0.474348738512E+03    0.16298E-03   -0.43012E-02  1032   0.585E-02    0.264E-01
DAV:  28    -0.474348882091E+03   -0.14358E-03   -0.43028E-02  1032   0.588E-02    0.495E-01
DAV:  29    -0.474348723437E+03    0.15865E-03   -0.42723E-02  1032   0.583E-02    0.265E-01
DAV:  30    -0.474348861751E+03   -0.13831E-03   -0.42728E-02  1028   0.586E-02    0.491E-01
DAV:  31    -0.474348707454E+03    0.15430E-03   -0.42413E-02  1024   0.581E-02    0.267E-01
DAV:  32    -0.474348841013E+03   -0.13356E-03   -0.42412E-02  1024   0.584E-02    0.486E-01
DAV:  33    -0.474348691047E+03    0.14997E-03   -0.42094E-02  1024   0.579E-02    0.268E-01
DAV:  34    -0.474348820253E+03   -0.12921E-03   -0.42090E-02  1024   0.582E-02    0.481E-01
DAV:  35    -0.474348674569E+03    0.14568E-03   -0.41773E-02  1024   0.576E-02    0.270E-01
DAV:  36    -0.474348799716E+03   -0.12515E-03   -0.41767E-02  1024   0.579E-02    0.477E-01
DAV:  37    -0.474348658235E+03    0.14148E-03   -0.41453E-02  1024   0.574E-02    0.271E-01
DAV:  38    -0.474348779565E+03   -0.12133E-03   -0.41447E-02  1024   0.577E-02    0.473E-01
DAV:  39    -0.474348642180E+03    0.13739E-03   -0.41138E-02  1024   0.572E-02    0.272E-01
DAV:  40    -0.474348759904E+03   -0.11772E-03   -0.41133E-02  1024   0.575E-02    0.469E-01
DAV:  41    -0.474348626501E+03    0.13340E-03   -0.40829E-02  1024   0.570E-02    0.273E-01
DAV:  42    -0.474348740796E+03   -0.11429E-03   -0.40826E-02  1024   0.573E-02    0.465E-01
DAV:  43    -0.474348611272E+03    0.12952E-03   -0.40529E-02  1024   0.568E-02    0.274E-01
DAV:  44    -0.474348722280E+03   -0.11101E-03   -0.40528E-02  1024   0.571E-02    0.461E-01
DAV:  45    -0.474348596531E+03    0.12575E-03   -0.40238E-02  1024   0.566E-02    0.275E-01
DAV:  46    -0.474348704387E+03   -0.10786E-03   -0.40240E-02  1024   0.569E-02    0.457E-01
DAV:  47    -0.474348581320E+03    0.12307E-03   -0.39936E-02  1024   0.564E-02    0.276E-01
DAV:  48    -0.474348689088E+03   -0.10777E-03   -0.39971E-02  1024   0.566E-02    0.455E-01
DAV:  49    -0.474348568153E+03    0.12093E-03   -0.39672E-02  1024   0.562E-02    0.276E-01
DAV:  50    -0.474348674030E+03   -0.10588E-03   -0.39709E-02  1024   0.565E-02    0.452E-01
DAV:  51    -0.474348555330E+03    0.11870E-03   -0.39418E-02  1008   0.560E-02    0.276E-01
DAV:  52    -0.474348662084E+03   -0.10675E-03   -0.39485E-02  1008   0.562E-02    0.450E-01
DAV:  53    -0.474348549628E+03    0.11246E-03   -0.39240E-02  1008   0.559E-02    0.281E-01
DAV:  54    -0.474348675994E+03   -0.12637E-03   -0.39761E-02  1008   0.563E-02    0.452E-01
DAV:  55    -0.474348555893E+03    0.12010E-03   -0.39413E-02  1008   0.559E-02    0.277E-01
DAV:  56    -0.474348660802E+03   -0.10491E-03   -0.39489E-02  1008   0.563E-02    0.449E-01
DAV:  57    -0.474348545460E+03    0.11534E-03   -0.39222E-02  1008   0.558E-02    0.277E-01
DAV:  58    -0.474348649154E+03   -0.10369E-03   -0.39282E-02  1008   0.561E-02    0.448E-01
DAV:  59    -0.474348535515E+03    0.11364E-03   -0.39025E-02  1008   0.557E-02    0.277E-01
DAV:  60    -0.474348638108E+03   -0.10259E-03   -0.39086E-02  1008   0.559E-02    0.446E-01
DAV:  61    -0.474348526008E+03    0.11210E-03   -0.38838E-02  1008   0.555E-02    0.277E-01
DAV:  62    -0.474348629251E+03   -0.10324E-03   -0.38921E-02  1008   0.558E-02    0.445E-01
DAV:  63    -0.474348517836E+03    0.11141E-03   -0.38675E-02  1008   0.554E-02    0.277E-01
DAV:  64    -0.474348620724E+03   -0.10289E-03   -0.38760E-02  1008   0.557E-02    0.444E-01
DAV:  65    -0.474348510067E+03    0.11066E-03   -0.38522E-02  1008   0.553E-02    0.276E-01
DAV:  66    -0.474348612740E+03   -0.10267E-03   -0.38611E-02  1008   0.556E-02    0.443E-01
DAV:  67    -0.474348502479E+03    0.11026E-03   -0.38372E-02  1008   0.552E-02    0.276E-01
DAV:  68    -0.474348606119E+03   -0.10364E-03   -0.38477E-02  1008   0.555E-02    0.443E-01
DAV:  69    -0.474348496120E+03    0.11000E-03   -0.38247E-02  1008   0.551E-02    0.275E-01
DAV:  70    -0.474348599990E+03   -0.10387E-03   -0.38354E-02  1008   0.554E-02    0.443E-01
DAV:  71    -0.474348490031E+03    0.10996E-03   -0.38128E-02  1008   0.551E-02    0.274E-01
DAV:  72    -0.474348595738E+03   -0.10571E-03   -0.38257E-02  1008   0.553E-02    0.443E-01
DAV:  73    -0.474348484729E+03    0.11101E-03   -0.38024E-02  1008   0.550E-02    0.273E-01
DAV:  74    -0.474348591473E+03   -0.10674E-03   -0.38154E-02  1008   0.552E-02    0.444E-01
DAV:  75    -0.474348479707E+03    0.11177E-03   -0.37926E-02  1008   0.549E-02    0.272E-01
DAV:  76    -0.474348587641E+03   -0.10793E-03   -0.38059E-02  1008   0.552E-02    0.444E-01
DAV:  77    -0.474348474814E+03    0.11283E-03   -0.37830E-02  1008   0.549E-02    0.270E-01
DAV:  78    -0.474348584342E+03   -0.10953E-03   -0.37971E-02  1008   0.551E-02    0.445E-01
DAV:  79    -0.474348470563E+03    0.11378E-03   -0.37749E-02  1008   0.548E-02    0.269E-01
DAV:  80    -0.474348581374E+03   -0.11081E-03   -0.37892E-02  1008   0.551E-02    0.446E-01
DAV:  81    -0.474348466584E+03    0.11479E-03   -0.37674E-02  1008   0.548E-02    0.267E-01
DAV:  82    -0.474348579318E+03   -0.11273E-03   -0.37828E-02  1008   0.550E-02    0.447E-01
DAV:  83    -0.474348463151E+03    0.11617E-03   -0.37611E-02  1008   0.547E-02    0.266E-01
DAV:  84    -0.474348577194E+03   -0.11404E-03   -0.37763E-02  1008   0.550E-02    0.448E-01
DAV:  85    -0.474348460020E+03    0.11717E-03   -0.37554E-02  1008   0.547E-02    0.265E-01
DAV:  86    -0.474348575372E+03   -0.11535E-03   -0.37708E-02  1008   0.549E-02    0.449E-01
DAV:  87    -0.474348457273E+03    0.11810E-03   -0.37505E-02  1008   0.546E-02    0.263E-01
DAV:  88    -0.474348573398E+03   -0.11612E-03   -0.37655E-02  1008   0.549E-02    0.449E-01
DAV:  89    -0.474348454546E+03    0.11885E-03   -0.37457E-02  1008   0.546E-02    0.262E-01
DAV:  90    -0.474348571650E+03   -0.11710E-03   -0.37610E-02  1008   0.549E-02    0.450E-01
DAV:  91    -0.474348452160E+03    0.11949E-03   -0.37416E-02  1008   0.546E-02    0.261E-01
DAV:  92    -0.474348569782E+03   -0.11762E-03   -0.37566E-02  1008   0.548E-02    0.450E-01
DAV:  93    -0.474348449794E+03    0.11999E-03   -0.37376E-02  1008   0.545E-02    0.261E-01
DAV:  94    -0.474348568065E+03   -0.11827E-03   -0.37528E-02  1008   0.548E-02    0.450E-01
DAV:  95    -0.474348447699E+03    0.12037E-03   -0.37341E-02  1008   0.545E-02    0.260E-01
DAV:  96    -0.474348566515E+03   -0.11882E-03   -0.37493E-02  1008   0.548E-02    0.451E-01
DAV:  97    -0.474348445799E+03    0.12072E-03   -0.37306E-02  1008   0.545E-02    0.260E-01
DAV:  98    -0.474348569775E+03   -0.12398E-03   -0.37492E-02  1008   0.549E-02    0.451E-01
DAV:  99    -0.474348426506E+03    0.14327E-03   -0.36903E-02  1008   0.546E-02    0.258E-01
DAV: 100    -0.474348551490E+03   -0.12498E-03   -0.37176E-02   992   0.545E-02    0.450E-01
DAV: 101    -0.474348430229E+03    0.12126E-03   -0.36990E-02   992   0.543E-02    0.257E-01
DAV: 102    -0.474348549808E+03   -0.11958E-03   -0.37144E-02   992   0.546E-02    0.450E-01
DAV: 103    -0.474348429437E+03    0.12037E-03   -0.36984E-02   992   0.542E-02    0.257E-01
DAV: 104    -0.474348549079E+03   -0.11964E-03   -0.37129E-02   992   0.545E-02    0.451E-01
DAV: 105    -0.474348428435E+03    0.12064E-03   -0.36971E-02   992   0.542E-02    0.257E-01
DAV: 106    -0.474348548429E+03   -0.11999E-03   -0.37117E-02   992   0.545E-02    0.451E-01
DAV: 107    -0.474348427480E+03    0.12095E-03   -0.36957E-02   992   0.542E-02    0.256E-01
DAV: 108    -0.474348547635E+03   -0.12016E-03   -0.37103E-02   992   0.545E-02    0.451E-01
DAV: 109    -0.474348426474E+03    0.12116E-03   -0.36944E-02   992   0.542E-02    0.256E-01
DAV: 110    -0.474348546877E+03   -0.12040E-03   -0.37090E-02   992   0.545E-02    0.451E-01
DAV: 111    -0.474348425510E+03    0.12137E-03   -0.36930E-02   992   0.542E-02    0.256E-01
DAV: 112    -0.474348545933E+03   -0.12042E-03   -0.37075E-02   992   0.545E-02    0.451E-01
DAV: 113    -0.474348424437E+03    0.12150E-03   -0.36915E-02   992   0.541E-02    0.255E-01
DAV: 114    -0.474348545005E+03   -0.12057E-03   -0.37061E-02   992   0.545E-02    0.451E-01
DAV: 115    -0.474348423401E+03    0.12160E-03   -0.36900E-02   992   0.541E-02    0.255E-01
DAV: 116    -0.474348544083E+03   -0.12068E-03   -0.37046E-02   992   0.545E-02    0.451E-01
DAV: 117    -0.474348422388E+03    0.12169E-03   -0.36886E-02   992   0.541E-02    0.255E-01
DAV: 118    -0.474348543068E+03   -0.12068E-03   -0.37031E-02   992   0.544E-02    0.451E-01
DAV: 119    -0.474348421290E+03    0.12178E-03   -0.36870E-02   992   0.541E-02    0.255E-01
DAV: 120    -0.474348542041E+03   -0.12075E-03   -0.37015E-02   992   0.544E-02    0.451E-01
DAV: 121    -0.474348420227E+03    0.12181E-03   -0.36854E-02   992   0.541E-02    0.255E-01
DAV: 122    -0.474348540777E+03   -0.12055E-03   -0.36997E-02   992   0.544E-02    0.451E-01
DAV: 123    -0.474348418968E+03    0.12181E-03   -0.36835E-02   992   0.541E-02    0.255E-01
DAV: 124    -0.474348539503E+03   -0.12053E-03   -0.36979E-02   992   0.544E-02    0.451E-01
DAV: 125    -0.474348417757E+03    0.12175E-03   -0.36817E-02   992   0.540E-02    0.255E-01
DAV: 126    -0.474348538240E+03   -0.12048E-03   -0.36960E-02   992   0.544E-02    0.451E-01
DAV: 127    -0.474348416567E+03    0.12167E-03   -0.36798E-02   992   0.540E-02    0.254E-01
DAV: 128    -0.474348536957E+03   -0.12039E-03   -0.36942E-02   992   0.544E-02    0.451E-01
DAV: 129    -0.474348415291E+03    0.12167E-03   -0.36778E-02   992   0.540E-02    0.254E-01
DAV: 130    -0.474348535634E+03   -0.12034E-03   -0.36922E-02   992   0.543E-02    0.451E-01
DAV: 131    -0.474348414063E+03    0.12157E-03   -0.36759E-02   992   0.540E-02    0.254E-01
DAV: 132    -0.474348534217E+03   -0.12015E-03   -0.36903E-02   992   0.543E-02    0.450E-01
DAV: 133    -0.474348412703E+03    0.12151E-03   -0.36738E-02   992   0.540E-02    0.254E-01
DAV: 134    -0.474348532773E+03   -0.12007E-03   -0.36882E-02   992   0.543E-02    0.450E-01
DAV: 135    -0.474348411407E+03    0.12137E-03   -0.36718E-02   992   0.540E-02    0.254E-01
DAV: 136    -0.474348531369E+03   -0.11996E-03   -0.36862E-02   992   0.543E-02    0.450E-01
DAV: 137    -0.474348410149E+03    0.12122E-03   -0.36699E-02   992   0.539E-02    0.254E-01
DAV: 138    -0.474348529996E+03   -0.11985E-03   -0.36843E-02   992   0.543E-02    0.450E-01
DAV: 139    -0.474348408834E+03    0.12116E-03   -0.36678E-02   992   0.539E-02    0.254E-01
DAV: 140    -0.474348528595E+03   -0.11976E-03   -0.36822E-02   992   0.543E-02    0.450E-01
DAV: 141    -0.474348407583E+03    0.12101E-03   -0.36659E-02   992   0.539E-02    0.254E-01
DAV: 142    -0.474348527519E+03   -0.11994E-03   -0.36807E-02   992   0.543E-02    0.450E-01
DAV: 143    -0.474348414144E+03    0.11338E-03   -0.36752E-02   992   0.541E-02    0.256E-01
DAV: 144    -0.474348512355E+03   -0.98212E-04   -0.36573E-02   992   0.545E-02    0.449E-01
DAV: 145    -0.474348398150E+03    0.11421E-03   -0.36494E-02   992   0.537E-02    0.253E-01
DAV: 146    -0.474348516762E+03   -0.11861E-03   -0.36614E-02   984   0.542E-02    0.448E-01
DAV: 147    -0.474348396576E+03    0.12019E-03   -0.36457E-02   984   0.538E-02    0.253E-01
DAV: 148    -0.474348515935E+03   -0.11936E-03   -0.36606E-02   984   0.541E-02    0.448E-01
DAV: 149    -0.474348395648E+03    0.12029E-03   -0.36444E-02   984   0.537E-02    0.253E-01
DAV: 150    -0.474348514904E+03   -0.11926E-03   -0.36593E-02   984   0.541E-02    0.448E-01
DAV: 151    -0.474348394825E+03    0.12008E-03   -0.36434E-02   984   0.537E-02    0.253E-01
DAV: 152    -0.474348513935E+03   -0.11911E-03   -0.36582E-02   984   0.541E-02    0.448E-01
DAV: 153    -0.474348394019E+03    0.11992E-03   -0.36424E-02   984   0.537E-02    0.253E-01
DAV: 154    -0.474348513012E+03   -0.11899E-03   -0.36572E-02   984   0.540E-02    0.448E-01
DAV: 155    -0.474348393270E+03    0.11974E-03   -0.36415E-02   984   0.537E-02    0.253E-01
DAV: 156    -0.474348512150E+03   -0.11888E-03   -0.36562E-02   984   0.540E-02    0.448E-01
DAV: 157    -0.474348392561E+03    0.11959E-03   -0.36406E-02   984   0.537E-02    0.253E-01
DAV: 158    -0.474348511351E+03   -0.11879E-03   -0.36554E-02   984   0.540E-02    0.448E-01
DAV: 159    -0.474348391891E+03    0.11946E-03   -0.36398E-02   984   0.537E-02    0.253E-01
DAV: 160    -0.474348510591E+03   -0.11870E-03   -0.36545E-02   984   0.540E-02    0.447E-01
DAV: 161    -0.474348391257E+03    0.11933E-03   -0.36391E-02   984   0.536E-02    0.253E-01
DAV: 162    -0.474348509889E+03   -0.11863E-03   -0.36539E-02   984   0.540E-02    0.447E-01
DAV: 163    -0.474348390675E+03    0.11921E-03   -0.36385E-02   984   0.536E-02    0.253E-01
DAV: 164    -0.474348509233E+03   -0.11856E-03   -0.36532E-02   984   0.540E-02    0.447E-01
DAV: 165    -0.474348390117E+03    0.11912E-03   -0.36380E-02   984   0.536E-02    0.253E-01
DAV: 166    -0.474348508608E+03   -0.11849E-03   -0.36526E-02   984   0.540E-02    0.447E-01
DAV: 167    -0.474348389583E+03    0.11903E-03   -0.36374E-02   984   0.536E-02    0.253E-01
DAV: 168    -0.474348508024E+03   -0.11844E-03   -0.36521E-02   984   0.540E-02    0.447E-01
DAV: 169    -0.474348389109E+03    0.11891E-03   -0.36370E-02   984   0.536E-02    0.253E-01
DAV: 170    -0.474348507488E+03   -0.11838E-03   -0.36517E-02   984   0.540E-02    0.447E-01
DAV: 171    -0.474348388647E+03    0.11884E-03   -0.36366E-02   984   0.536E-02    0.253E-01
DAV: 172    -0.474348506991E+03   -0.11834E-03   -0.36513E-02   984   0.540E-02    0.447E-01
DAV: 173    -0.474348388263E+03    0.11873E-03   -0.36365E-02   984   0.536E-02    0.253E-01
DAV: 174    -0.474348506561E+03   -0.11830E-03   -0.36511E-02   984   0.540E-02    0.447E-01
DAV: 175    -0.474348387883E+03    0.11868E-03   -0.36362E-02   984   0.536E-02    0.253E-01
DAV: 176    -0.474348506144E+03   -0.11826E-03   -0.36509E-02   984   0.540E-02    0.447E-01
DAV: 177    -0.474348387511E+03    0.11863E-03   -0.36360E-02   984   0.536E-02    0.253E-01
DAV: 178    -0.474348505749E+03   -0.11824E-03   -0.36507E-02   984   0.539E-02    0.447E-01
DAV: 179    -0.474348387237E+03    0.11851E-03   -0.36361E-02   984   0.536E-02    0.253E-01
DAV: 180    -0.474348505425E+03   -0.11819E-03   -0.36507E-02   984   0.539E-02    0.447E-01
DAV: 181    -0.474348386947E+03    0.11848E-03   -0.36360E-02   984   0.536E-02    0.253E-01
DAV: 182    -0.474348505119E+03   -0.11817E-03   -0.36507E-02   984   0.539E-02    0.447E-01
DAV: 183    -0.474348386791E+03    0.11833E-03   -0.36364E-02   984   0.536E-02    0.253E-01
DAV: 184    -0.474348504920E+03   -0.11813E-03   -0.36510E-02   984   0.539E-02    0.447E-01
DAV: 185    -0.474348386599E+03    0.11832E-03   -0.36366E-02   984   0.536E-02    0.253E-01
DAV: 186    -0.474348504707E+03   -0.11811E-03   -0.36512E-02   984   0.539E-02    0.447E-01
DAV: 187    -0.474348386583E+03    0.11812E-03   -0.36370E-02   984   0.536E-02    0.253E-01
DAV: 188    -0.474348505766E+03   -0.11918E-03   -0.36477E-02   984   0.541E-02    0.450E-01
DAV: 189    -0.474348399762E+03    0.10600E-03   -0.36706E-02   984   0.539E-02    0.254E-01
DAV: 190    -0.474348514754E+03   -0.11499E-03   -0.36712E-02   984   0.541E-02    0.448E-01
DAV: 191    -0.474348396380E+03    0.11837E-03   -0.36570E-02   984   0.537E-02    0.254E-01
DAV: 192    -0.474348514630E+03   -0.11825E-03   -0.36714E-02   984   0.541E-02    0.448E-01
DAV: 193    -0.474348395282E+03    0.11935E-03   -0.36553E-02   984   0.537E-02    0.254E-01
DAV: 194    -0.474348513741E+03   -0.11846E-03   -0.36703E-02   984   0.541E-02    0.447E-01
DAV: 195    -0.474348394472E+03    0.11927E-03   -0.36542E-02   984   0.537E-02    0.254E-01
DAV: 196    -0.474348512884E+03   -0.11841E-03   -0.36692E-02   984   0.540E-02    0.447E-01
DAV: 197    -0.474348393718E+03    0.11917E-03   -0.36533E-02   984   0.537E-02    0.253E-01
DAV: 198    -0.474348512083E+03   -0.11836E-03   -0.36683E-02   984   0.540E-02    0.447E-01
DAV: 199    -0.474348393008E+03    0.11907E-03   -0.36526E-02   984   0.537E-02    0.253E-01
DAV: 200    -0.474348511341E+03   -0.11833E-03   -0.36675E-02   984   0.540E-02
   3 F= -.47434851E+03 E0= -.47426975E+03  d E =-.561390E-02
       N       E                     dE             d eps       ncg     rms          rms(c)
DAV:   1    -0.474351311884E+03   -0.29189E-02   -0.42912E-01  1312   0.166E+00    0.286E-01
DAV:   2    -0.474374374077E+03   -0.23062E-01   -0.14958E-01  1516   0.370E-01    0.300E+00
DAV:   3    -0.474349142247E+03    0.25232E-01   -0.17252E-01  1436   0.272E-01    0.277E-01
DAV:   4    -0.474353361724E+03   -0.42195E-02   -0.53960E-02  1388   0.110E-01    0.687E-01
DAV:   5    -0.474353126686E+03    0.23504E-03   -0.56832E-02  1412   0.102E-01    0.281E-01
DAV:   6    -0.474353456985E+03   -0.33030E-03   -0.58104E-02  1388   0.801E-02    0.652E-01
DAV:   7    -0.474353184117E+03    0.27287E-03   -0.58383E-02  1196   0.720E-02    0.270E-01
DAV:   8    -0.474353509845E+03   -0.32573E-03   -0.59378E-02  1144   0.707E-02    0.633E-01
DAV:   9    -0.474353217291E+03    0.29255E-03   -0.58911E-02  1100   0.686E-02    0.271E-01
DAV:  10    -0.474353460034E+03   -0.24274E-03   -0.58792E-02  1092   0.687E-02    0.615E-01
DAV:  11    -0.474353162998E+03    0.29704E-03   -0.57788E-02  1072   0.677E-02    0.275E-01
DAV:  12    -0.474353387604E+03   -0.22461E-03   -0.57638E-02  1072   0.680E-02    0.601E-01
DAV:  13    -0.474353103723E+03    0.28388E-03   -0.56574E-02  1072   0.669E-02    0.277E-01
DAV:  14    -0.474353314313E+03   -0.21059E-03   -0.56409E-02  1072   0.672E-02    0.589E-01
DAV:  15    -0.474353042466E+03    0.27185E-03   -0.55326E-02  1072   0.662E-02    0.278E-01
DAV:  16    -0.474353242147E+03   -0.19968E-03   -0.55163E-02  1068   0.665E-02    0.579E-01
DAV:  17    -0.474352980864E+03    0.26128E-03   -0.54078E-02  1056   0.654E-02    0.278E-01
DAV:  18    -0.474353170334E+03   -0.18947E-03   -0.53904E-02  1056   0.658E-02    0.569E-01
DAV:  19    -0.474352917864E+03    0.25247E-03   -0.52807E-02  1056   0.647E-02    0.277E-01
DAV:  20    -0.474353096824E+03   -0.17896E-03   -0.52605E-02  1056   0.651E-02    0.560E-01
DAV:  21    -0.474352852091E+03    0.24473E-03   -0.51485E-02  1056   0.640E-02    0.275E-01
DAV:  22    -0.474353020687E+03   -0.16860E-03   -0.51245E-02  1056   0.643E-02    0.550E-01
DAV:  23    -0.474352783760E+03    0.23693E-03   -0.50114E-02  1056   0.632E-02    0.272E-01
DAV:  24    -0.474352943345E+03   -0.15959E-03   -0.49847E-02  1056   0.636E-02    0.541E-01
DAV:  25    -0.474352714580E+03    0.22877E-03   -0.48729E-02  1056   0.624E-02    0.270E-01
DAV:  26    -0.474352866594E+03   -0.15201E-03   -0.48449E-02  1056   0.628E-02    0.532E-01
DAV:  27    -0.474352646152E+03    0.22044E-03   -0.47359E-02  1048   0.615E-02    0.267E-01
DAV:  28    -0.474352791659E+03   -0.14551E-03   -0.47078E-02  1048   0.619E-02    0.523E-01
DAV:  29    -0.474352579528E+03    0.21213E-03   -0.46026E-02  1048   0.607E-02    0.264E-01
DAV:  30    -0.474352719268E+03   -0.13974E-03   -0.45750E-02  1032   0.611E-02    0.515E-01
DAV:  31    -0.474352515275E+03    0.20399E-03   -0.44741E-02  1032   0.599E-02    0.262E-01
DAV:  32    -0.474352649773E+03   -0.13450E-03   -0.44474E-02  1032   0.603E-02    0.507E-01
DAV:  33    -0.474352453630E+03    0.19614E-03   -0.43510E-02  1032   0.591E-02    0.259E-01
DAV:  34    -0.474352583329E+03   -0.12970E-03   -0.43254E-02  1024   0.596E-02    0.499E-01
DAV:  35    -0.474352394689E+03    0.18864E-03   -0.42335E-02  1016   0.583E-02    0.257E-01
DAV:  36    -0.474352519951E+03   -0.12526E-03   -0.42090E-02  1016   0.588E-02    0.491E-01
DAV:  37    -0.474352338498E+03    0.18145E-03   -0.41215E-02  1016   0.576E-02    0.255E-01
DAV:  38    -0.474352459574E+03   -0.12108E-03   -0.40983E-02  1016   0.581E-02    0.484E-01
DAV:  39    -0.474352284979E+03    0.17460E-03   -0.40149E-02  1008   0.569E-02    0.253E-01
DAV:  40    -0.474352402093E+03   -0.11711E-03   -0.39929E-02  1008   0.574E-02    0.477E-01
DAV:  41    -0.474352234044E+03    0.16805E-03   -0.39136E-02  1008   0.562E-02    0.251E-01
DAV:  42    -0.474352347394E+03   -0.11335E-03   -0.38928E-02  1000   0.567E-02    0.470E-01
DAV:  43    -0.474352185594E+03    0.16180E-03   -0.38173E-02  1000   0.555E-02    0.249E-01
DAV:  44    -0.474352295332E+03   -0.10974E-03   -0.37976E-02  1000   0.560E-02    0.463E-01
DAV:  45    -0.474352139489E+03    0.15584E-03   -0.37257E-02  1000   0.549E-02    0.247E-01
DAV:  46    -0.474352245770E+03   -0.10628E-03   -0.37072E-02  1000   0.554E-02    0.456E-01
DAV:  47    -0.474352095367E+03    0.15040E-03   -0.36381E-02  1000   0.542E-02    0.246E-01
DAV:  48    -0.474352201065E+03   -0.10570E-03   -0.36235E-02   992   0.548E-02    0.451E-01
DAV:  49    -0.474352054663E+03    0.14640E-03   -0.35566E-02   992   0.537E-02    0.244E-01
DAV:  50    -0.474352158613E+03   -0.10395E-03   -0.35443E-02   992   0.542E-02    0.446E-01
DAV:  51    -0.474352016437E+03    0.14218E-03   -0.34806E-02   984   0.531E-02    0.242E-01
DAV:  52    -0.474352120714E+03   -0.10428E-03   -0.34717E-02   984   0.536E-02    0.442E-01
DAV:  53    -0.474351983850E+03    0.13686E-03   -0.34137E-02   984   0.526E-02    0.242E-01
DAV:  54    -0.474352101071E+03   -0.11722E-03   -0.34323E-02   984   0.532E-02    0.440E-01
DAV:  55    -0.474351962264E+03    0.13881E-03   -0.33706E-02   984   0.522E-02    0.238E-01
DAV:  56    -0.474352062702E+03   -0.10044E-03   -0.33630E-02   984   0.529E-02    0.435E-01
DAV:  57    -0.474351929422E+03    0.13328E-03   -0.33070E-02   984   0.518E-02    0.236E-01
DAV:  58    -0.474352027683E+03   -0.98261E-04   -0.32975E-02   984   0.524E-02    0.431E-01
DAV:  59    -0.474351897899E+03    0.12978E-03   -0.32445E-02   984   0.514E-02    0.234E-01
DAV:  60    -0.474351994640E+03   -0.96741E-04   -0.32354E-02   984   0.519E-02    0.427E-01
DAV:  61    -0.474351867861E+03    0.12678E-03   -0.31851E-02   976   0.509E-02    0.232E-01
DAV:  62    -0.474351965367E+03   -0.97506E-04   -0.31790E-02   976   0.515E-02    0.424E-01
DAV:  63    -0.474351840589E+03    0.12478E-03   -0.31307E-02   976   0.505E-02    0.230E-01
DAV:  64    -0.474351937467E+03   -0.96878E-04   -0.31253E-02   976   0.511E-02    0.421E-01
DAV:  65    -0.474351814587E+03    0.12288E-03   -0.30791E-02   976   0.501E-02    0.227E-01
DAV:  66    -0.474351911035E+03   -0.96448E-04   -0.30744E-02   976   0.507E-02    0.419E-01
DAV:  67    -0.474351789601E+03    0.12143E-03   -0.30294E-02   976   0.497E-02    0.225E-01
DAV:  68    -0.474351887053E+03   -0.97452E-04   -0.30269E-02   968   0.503E-02    0.417E-01
DAV:  69    -0.474351766729E+03    0.12032E-03   -0.29838E-02   968   0.494E-02    0.222E-01
DAV:  70    -0.474351864253E+03   -0.97524E-04   -0.29818E-02   968   0.500E-02    0.415E-01
DAV:  71    -0.474351744791E+03    0.11946E-03   -0.29401E-02   968   0.490E-02    0.220E-01
DAV:  72    -0.474351844115E+03   -0.99324E-04   -0.29404E-02   968   0.496E-02    0.414E-01
DAV:  73    -0.474351724283E+03    0.11983E-03   -0.28988E-02   968   0.487E-02    0.217E-01
DAV:  74    -0.474351824597E+03   -0.10031E-03   -0.28995E-02   968   0.493E-02    0.413E-01
DAV:  75    -0.474351704600E+03    0.12000E-03   -0.28593E-02   968   0.484E-02    0.213E-01
DAV:  76    -0.474351806123E+03   -0.10152E-03   -0.28606E-02   968   0.490E-02    0.413E-01
DAV:  77    -0.474351685409E+03    0.12071E-03   -0.28205E-02   968   0.481E-02    0.210E-01
DAV:  78    -0.474351789007E+03   -0.10360E-03   -0.28231E-02   968   0.487E-02    0.413E-01
DAV:  79    -0.474351667485E+03    0.12152E-03   -0.27843E-02   968   0.479E-02    0.206E-01
DAV:  80    -0.474351772728E+03   -0.10524E-03   -0.27873E-02   968   0.485E-02    0.413E-01
DAV:  81    -0.474351650224E+03    0.12250E-03   -0.27494E-02   968   0.476E-02    0.203E-01
DAV:  82    -0.474351758553E+03   -0.10833E-03   -0.27542E-02   968   0.482E-02    0.414E-01
DAV:  83    -0.474351633816E+03    0.12474E-03   -0.27157E-02   968   0.474E-02    0.198E-01
DAV:  84    -0.474351744128E+03   -0.11031E-03   -0.27205E-02   968   0.480E-02    0.415E-01
DAV:  85    -0.474351617969E+03    0.12616E-03   -0.26833E-02   968   0.471E-02    0.194E-01
DAV:  86    -0.474351730575E+03   -0.11261E-03   -0.26884E-02   968   0.477E-02    0.416E-01
DAV:  87    -0.474351602788E+03    0.12779E-03   -0.26521E-02   968   0.469E-02    0.190E-01
DAV:  88    -0.474351716983E+03   -0.11419E-03   -0.26567E-02   968   0.475E-02    0.417E-01
DAV:  89    -0.474351587753E+03    0.12923E-03   -0.26216E-02   968   0.466E-02    0.186E-01
DAV:  90    -0.474351704005E+03   -0.11625E-03   -0.26267E-02   968   0.473E-02    0.418E-01
DAV:  91    -0.474351573425E+03    0.13058E-03   -0.25925E-02   968   0.464E-02    0.182E-01
DAV:  92    -0.474351691191E+03   -0.11777E-03   -0.25975E-02   968   0.471E-02    0.419E-01
DAV:  93    -0.474351559307E+03    0.13188E-03   -0.25643E-02   968   0.462E-02    0.179E-01
DAV:  94    -0.474351678616E+03   -0.11931E-03   -0.25694E-02   968   0.469E-02    0.419E-01
DAV:  95    -0.474351545879E+03    0.13274E-03   -0.25372E-02   968   0.459E-02    0.176E-01
DAV:  96    -0.474351666563E+03   -0.12068E-03   -0.25423E-02   968   0.466E-02    0.420E-01
DAV:  97    -0.474351534488E+03    0.13208E-03   -0.25097E-02   968   0.458E-02    0.174E-01
DAV:  98    -0.474351659839E+03   -0.12535E-03   -0.25271E-02   968   0.467E-02    0.420E-01
DAV:  99    -0.474351522248E+03    0.13759E-03   -0.24876E-02   968   0.455E-02    0.170E-01
DAV: 100    -0.474351646625E+03   -0.12438E-03   -0.24964E-02   968   0.463E-02    0.421E-01
DAV: 101    -0.474351512123E+03    0.13450E-03   -0.24683E-02   968   0.454E-02    0.167E-01
DAV: 102    -0.474351636527E+03   -0.12440E-03   -0.24739E-02   968   0.461E-02    0.421E-01
DAV: 103    -0.474351501693E+03    0.13483E-03   -0.24477E-02   968   0.452E-02    0.165E-01
DAV: 104    -0.474351626992E+03   -0.12530E-03   -0.24530E-02   968   0.460E-02    0.422E-01
DAV: 105    -0.474351491389E+03    0.13560E-03   -0.24271E-02   968   0.450E-02    0.162E-01
DAV: 106    -0.474351617485E+03   -0.12610E-03   -0.24323E-02   960   0.458E-02    0.422E-01
DAV: 107    -0.474351481428E+03    0.13606E-03   -0.24071E-02   960   0.448E-02    0.160E-01
DAV: 108    -0.474351607698E+03   -0.12627E-03   -0.24120E-02   960   0.456E-02    0.422E-01
DAV: 109    -0.474351471380E+03    0.13632E-03   -0.23873E-02   960   0.447E-02    0.158E-01
DAV: 110    -0.474351598090E+03   -0.12671E-03   -0.23922E-02   952   0.455E-02    0.422E-01
DAV: 111    -0.474351461577E+03    0.13651E-03   -0.23679E-02   952   0.445E-02    0.156E-01
DAV: 112    -0.474351588144E+03   -0.12657E-03   -0.23724E-02   952   0.453E-02    0.421E-01
DAV: 113    -0.474351451805E+03    0.13634E-03   -0.23489E-02   952   0.443E-02    0.154E-01
DAV: 114    -0.474351578486E+03   -0.12668E-03   -0.23534E-02   952   0.451E-02    0.421E-01
DAV: 115    -0.474351442307E+03    0.13618E-03   -0.23303E-02   952   0.441E-02    0.153E-01
DAV: 116    -0.474351569024E+03   -0.12672E-03   -0.23349E-02   952   0.450E-02    0.420E-01
DAV: 117    -0.474351433092E+03    0.13593E-03   -0.23123E-02   952   0.440E-02    0.151E-01
DAV: 118    -0.474351559650E+03   -0.12656E-03   -0.23168E-02   952   0.448E-02    0.420E-01
DAV: 119    -0.474351423969E+03    0.13568E-03   -0.22946E-02   952   0.438E-02    0.150E-01
DAV: 120    -0.474351550457E+03   -0.12649E-03   -0.22991E-02   952   0.446E-02    0.419E-01
DAV: 121    -0.474351415100E+03    0.13536E-03   -0.22774E-02   952   0.437E-02    0.149E-01
DAV: 122    -0.474351541008E+03   -0.12591E-03   -0.22816E-02   952   0.445E-02    0.418E-01
DAV: 123    -0.474351406243E+03    0.13476E-03   -0.22605E-02   952   0.435E-02    0.147E-01
DAV: 124    -0.474351531826E+03   -0.12558E-03   -0.22647E-02   952   0.444E-02    0.417E-01
DAV: 125    -0.474351397643E+03    0.13418E-03   -0.22440E-02   952   0.433E-02    0.146E-01
DAV: 126    -0.474351522890E+03   -0.12525E-03   -0.22483E-02   952   0.442E-02    0.416E-01
DAV: 127    -0.474351389247E+03    0.13364E-03   -0.22279E-02   952   0.432E-02    0.145E-01
DAV: 128    -0.474351514278E+03   -0.12503E-03   -0.22323E-02   952   0.441E-02    0.415E-01
DAV: 129    -0.474351381064E+03    0.13321E-03   -0.22121E-02   952   0.431E-02    0.144E-01
DAV: 130    -0.474351505808E+03   -0.12474E-03   -0.22167E-02   952   0.439E-02    0.415E-01
DAV: 131    -0.474351373114E+03    0.13269E-03   -0.21969E-02   952   0.429E-02    0.143E-01
DAV: 132    -0.474351497161E+03   -0.12405E-03   -0.22011E-02   952   0.438E-02    0.414E-01
DAV: 133    -0.474351365148E+03    0.13201E-03   -0.21819E-02   952   0.428E-02    0.143E-01
DAV: 134    -0.474351488724E+03   -0.12358E-03   -0.21862E-02   952   0.436E-02    0.413E-01
DAV: 135    -0.474351357420E+03    0.13130E-03   -0.21673E-02   952   0.426E-02    0.142E-01
DAV: 136    -0.474351480546E+03   -0.12313E-03   -0.21716E-02   952   0.435E-02    0.412E-01
DAV: 137    -0.474351349896E+03    0.13065E-03   -0.21531E-02   952   0.425E-02    0.141E-01
DAV: 138    -0.474351472656E+03   -0.12276E-03   -0.21575E-02   952   0.434E-02    0.411E-01
DAV: 139    -0.474351342523E+03    0.13013E-03   -0.21390E-02   952   0.424E-02    0.140E-01
DAV: 140    -0.474351464904E+03   -0.12238E-03   -0.21436E-02   952   0.432E-02    0.410E-01
DAV: 141    -0.474351335375E+03    0.12953E-03   -0.21255E-02   952   0.422E-02    0.140E-01
DAV: 142    -0.474351459450E+03   -0.12407E-03   -0.21316E-02   952   0.432E-02    0.411E-01
DAV: 143    -0.474351335228E+03    0.12422E-03   -0.21307E-02   952   0.424E-02    0.140E-01
DAV: 144    -0.474351454414E+03   -0.11919E-03   -0.21269E-02   952   0.431E-02    0.408E-01
DAV: 145    -0.474351327047E+03    0.12737E-03   -0.21111E-02   952   0.421E-02    0.139E-01
DAV: 146    -0.474351448091E+03   -0.12104E-03   -0.21151E-02   952   0.430E-02    0.407E-01
DAV: 147    -0.474351320138E+03    0.12795E-03   -0.20978E-02   952   0.420E-02    0.138E-01
DAV: 148    -0.474351440989E+03   -0.12085E-03   -0.21026E-02   952   0.428E-02    0.406E-01
DAV: 149    -0.474351313565E+03    0.12742E-03   -0.20854E-02   952   0.418E-02    0.138E-01
DAV: 150    -0.474351434012E+03   -0.12045E-03   -0.20903E-02   952   0.427E-02    0.406E-01
DAV: 151    -0.474351307223E+03    0.12679E-03   -0.20736E-02   952   0.417E-02    0.137E-01
DAV: 152    -0.474351427186E+03   -0.11996E-03   -0.20784E-02   952   0.426E-02    0.405E-01
DAV: 153    -0.474351301031E+03    0.12615E-03   -0.20621E-02   952   0.416E-02    0.136E-01
DAV: 154    -0.474351420566E+03   -0.11953E-03   -0.20669E-02   952   0.425E-02    0.404E-01
DAV: 155    -0.474351295038E+03    0.12553E-03   -0.20510E-02   952   0.415E-02    0.136E-01
DAV: 156    -0.474351414167E+03   -0.11913E-03   -0.20558E-02   952   0.424E-02    0.403E-01
DAV: 157    -0.474351289212E+03    0.12495E-03   -0.20402E-02   952   0.414E-02    0.135E-01
DAV: 158    -0.474351408004E+03   -0.11879E-03   -0.20451E-02   952   0.423E-02    0.402E-01
DAV: 159    -0.474351283583E+03    0.12442E-03   -0.20297E-02   952   0.413E-02    0.135E-01
DAV: 160    -0.474351402017E+03   -0.11843E-03   -0.20346E-02   952   0.422E-02    0.401E-01
DAV: 161    -0.474351278112E+03    0.12391E-03   -0.20196E-02   952   0.412E-02    0.134E-01
DAV: 162    -0.474351396199E+03   -0.11809E-03   -0.20246E-02   952   0.421E-02    0.401E-01
DAV: 163    -0.474351272808E+03    0.12339E-03   -0.20098E-02   952   0.411E-02    0.134E-01
DAV: 164    -0.474351390560E+03   -0.11775E-03   -0.20148E-02   952   0.420E-02    0.400E-01
DAV: 165    -0.474351267647E+03    0.12291E-03   -0.20003E-02   952   0.410E-02    0.133E-01
DAV: 166    -0.474351385071E+03   -0.11742E-03   -0.20053E-02   952   0.419E-02    0.399E-01
DAV: 167    -0.474351262609E+03    0.12246E-03   -0.19909E-02   952   0.409E-02    0.133E-01
DAV: 168    -0.474351379752E+03   -0.11714E-03   -0.19960E-02   952   0.418E-02    0.398E-01
DAV: 169    -0.474351257757E+03    0.12199E-03   -0.19820E-02   952   0.408E-02    0.132E-01
DAV: 170    -0.474351374596E+03   -0.11684E-03   -0.19871E-02   952   0.417E-02    0.398E-01
DAV: 171    -0.474351253015E+03    0.12158E-03   -0.19733E-02   952   0.407E-02    0.132E-01
DAV: 172    -0.474351369606E+03   -0.11659E-03   -0.19785E-02   952   0.416E-02    0.397E-01
DAV: 173    -0.474351248454E+03    0.12115E-03   -0.19650E-02   952   0.406E-02    0.131E-01
DAV: 174    -0.474351364797E+03   -0.11634E-03   -0.19701E-02   952   0.415E-02    0.397E-01
DAV: 175    -0.474351244002E+03    0.12080E-03   -0.19568E-02   952   0.406E-02    0.131E-01
DAV: 176    -0.474351360085E+03   -0.11608E-03   -0.19620E-02   952   0.414E-02    0.396E-01
DAV: 177    -0.474351239635E+03    0.12045E-03   -0.19488E-02   952   0.405E-02    0.130E-01
DAV: 178    -0.474351355514E+03   -0.11588E-03   -0.19541E-02   952   0.414E-02    0.395E-01
DAV: 179    -0.474351235478E+03    0.12004E-03   -0.19413E-02   952   0.404E-02    0.130E-01
DAV: 180    -0.474351351109E+03   -0.11563E-03   -0.19465E-02   952   0.413E-02    0.395E-01
DAV: 181    -0.474351231392E+03    0.11972E-03   -0.19338E-02   952   0.403E-02    0.129E-01
DAV: 182    -0.474351346839E+03   -0.11545E-03   -0.19392E-02   952   0.412E-02    0.394E-01
DAV: 183    -0.474351227525E+03    0.11931E-03   -0.19269E-02   952   0.402E-02    0.129E-01
DAV: 184    -0.474351342802E+03   -0.11528E-03   -0.19322E-02   952   0.411E-02    0.394E-01
DAV: 185    -0.474351223732E+03    0.11907E-03   -0.19201E-02   952   0.402E-02    0.128E-01
DAV: 186    -0.474351338797E+03   -0.11506E-03   -0.19254E-02   952   0.411E-02    0.393E-01
DAV: 187    -0.474351221196E+03    0.11760E-03   -0.19145E-02   952   0.402E-02    0.129E-01
DAV: 188    -0.474351331229E+03   -0.11003E-03   -0.19128E-02   952   0.411E-02    0.393E-01
DAV: 189    -0.474351215863E+03    0.11537E-03   -0.19066E-02   952   0.400E-02    0.127E-01
DAV: 190    -0.474351329839E+03   -0.11398E-03   -0.19093E-02   952   0.409E-02    0.392E-01
DAV: 191    -0.474351211352E+03    0.11849E-03   -0.18966E-02   952   0.400E-02    0.127E-01
DAV: 192    -0.474351325536E+03   -0.11418E-03   -0.19019E-02   952   0.408E-02    0.392E-01
DAV: 193    -0.474351207098E+03    0.11844E-03   -0.18888E-02   952   0.399E-02    0.126E-01
DAV: 194    -0.474351321124E+03   -0.11403E-03   -0.18942E-02   952   0.408E-02    0.391E-01
DAV: 195    -0.474351203064E+03    0.11806E-03   -0.18815E-02   952   0.398E-02    0.126E-01
DAV: 196    -0.474351316905E+03   -0.11384E-03   -0.18869E-02   952   0.407E-02    0.391E-01
DAV: 197    -0.474351199194E+03    0.11771E-03   -0.18745E-02   952   0.397E-02    0.125E-01
DAV: 198    -0.474351312832E+03   -0.11364E-03   -0.18799E-02   952   0.406E-02    0.390E-01
DAV: 199    -0.474351195446E+03    0.11739E-03   -0.18677E-02   952   0.396E-02    0.125E-01
DAV: 200    -0.474351308910E+03   -0.11346E-03   -0.18732E-02   952   0.405E-02
   4 F= -.47435131E+03 E0= -.47427274E+03  d E =-.279757E-02
       N       E                     dE             d eps       ncg     rms          rms(c)
DAV:   1    -0.474351547691E+03   -0.35224E-03   -0.27321E-01  1312   0.134E+00    0.206E-01
DAV:   2    -0.474365132254E+03   -0.13585E-01   -0.77017E-02  1508   0.292E-01    0.229E+00
DAV:   3    -0.474349475106E+03    0.15657E-01   -0.79983E-02  1416   0.203E-01    0.164E-01
DAV:   4    -0.474352409295E+03   -0.29342E-02   -0.26638E-02  1376   0.837E-02    0.516E-01
DAV:   5    -0.474352498279E+03   -0.88984E-04   -0.28607E-02  1420   0.698E-02    0.190E-01
DAV:   6    -0.474352675313E+03   -0.17703E-03   -0.29253E-02  1396   0.599E-02    0.502E-01
DAV:   7    -0.474352513599E+03    0.16171E-03   -0.29678E-02  1068   0.533E-02    0.163E-01
DAV:   8    -0.474352712108E+03   -0.19851E-03   -0.29986E-02  1008   0.519E-02    0.486E-01
DAV:   9    -0.474352534749E+03    0.17736E-03   -0.29926E-02   988   0.496E-02    0.167E-01
DAV:  10    -0.474352688721E+03   -0.15397E-03   -0.29861E-02   984   0.506E-02    0.472E-01
DAV:  11    -0.474352514620E+03    0.17410E-03   -0.29564E-02   984   0.491E-02    0.173E-01
DAV:  12    -0.474352655687E+03   -0.14107E-03   -0.29466E-02   984   0.502E-02    0.461E-01
DAV:  13    -0.474352487298E+03    0.16839E-03   -0.29041E-02   984   0.487E-02    0.176E-01
DAV:  14    -0.474352615242E+03   -0.12794E-03   -0.28887E-02   984   0.497E-02    0.450E-01
DAV:  15    -0.474352453262E+03    0.16198E-03   -0.28388E-02   984   0.481E-02    0.177E-01
DAV:  16    -0.474352570979E+03   -0.11772E-03   -0.28200E-02   984   0.491E-02    0.440E-01
DAV:  17    -0.474352415811E+03    0.15517E-03   -0.27665E-02   976   0.475E-02    0.178E-01
DAV:  18    -0.474352525123E+03   -0.10931E-03   -0.27460E-02   976   0.485E-02    0.430E-01
DAV:  19    -0.474352376988E+03    0.14814E-03   -0.26917E-02   976   0.469E-02    0.179E-01
DAV:  20    -0.474352479198E+03   -0.10221E-03   -0.26704E-02   976   0.479E-02    0.421E-01
DAV:  21    -0.474352338071E+03    0.14113E-03   -0.26166E-02   976   0.463E-02    0.179E-01
DAV:  22    -0.474352434063E+03   -0.95991E-04   -0.25954E-02   968   0.473E-02    0.412E-01
DAV:  23    -0.474352299827E+03    0.13424E-03   -0.25429E-02   968   0.456E-02    0.179E-01
DAV:  24    -0.474352390192E+03   -0.90365E-04   -0.25219E-02   968   0.466E-02    0.403E-01
DAV:  25    -0.474352262619E+03    0.12757E-03   -0.24712E-02   952   0.450E-02    0.179E-01
DAV:  26    -0.474352347823E+03   -0.85204E-04   -0.24507E-02   952   0.460E-02    0.395E-01
DAV:  27    -0.474352226708E+03    0.12111E-03   -0.24020E-02   952   0.443E-02    0.180E-01
DAV:  28    -0.474352307098E+03   -0.80389E-04   -0.23821E-02   952   0.454E-02    0.386E-01
DAV:  29    -0.474352192176E+03    0.11492E-03   -0.23355E-02   952   0.437E-02    0.180E-01
DAV:  30    -0.474352268046E+03   -0.75870E-04   -0.23163E-02   952   0.448E-02    0.378E-01
DAV:  31    -0.474352159062E+03    0.10898E-03   -0.22717E-02   952   0.432E-02    0.180E-01
DAV:  32    -0.474352230660E+03   -0.71598E-04   -0.22532E-02   952   0.442E-02    0.370E-01
DAV:  33    -0.474352127379E+03    0.10328E-03   -0.22107E-02   952   0.426E-02    0.181E-01
DAV:  34    -0.474352194899E+03   -0.67521E-04   -0.21928E-02   952   0.436E-02    0.363E-01
DAV:  35    -0.474352097088E+03    0.97811E-04   -0.21523E-02   952   0.420E-02    0.181E-01
DAV:  36    -0.474352160713E+03   -0.63625E-04   -0.21352E-02   952   0.430E-02    0.355E-01
DAV:  37    -0.474352068156E+03    0.92556E-04   -0.20965E-02   952   0.415E-02    0.181E-01
DAV:  38    -0.474352128033E+03   -0.59876E-04   -0.20801E-02   952   0.425E-02    0.348E-01
DAV:  39    -0.474352040530E+03    0.87503E-04   -0.20433E-02   952   0.410E-02    0.182E-01
DAV:  40    -0.474352096798E+03   -0.56268E-04   -0.20274E-02   952   0.420E-02    0.341E-01
DAV:  41    -0.474352014139E+03    0.82659E-04   -0.19924E-02   952   0.405E-02    0.182E-01
DAV:  42    -0.474352066935E+03   -0.52797E-04   -0.19771E-02   952   0.415E-02    0.334E-01
DAV:  43    -0.474351988929E+03    0.78006E-04   -0.19437E-02   952   0.400E-02    0.183E-01
DAV:  44    -0.474352038379E+03   -0.49450E-04   -0.19291E-02   952   0.410E-02    0.327E-01
DAV:  45    -0.474351964832E+03    0.73547E-04   -0.18972E-02   952   0.395E-02    0.183E-01
DAV:  46    -0.474352011060E+03   -0.46229E-04   -0.18832E-02   952   0.405E-02    0.321E-01
DAV:  47    -0.474351941013E+03    0.70047E-04   -0.18509E-02   952   0.391E-02    0.184E-01
DAV:  48    -0.474351986523E+03   -0.45510E-04   -0.18396E-02   952   0.400E-02    0.315E-01
DAV:  49    -0.474351919725E+03    0.66798E-04   -0.18092E-02   952   0.386E-02    0.183E-01
DAV:  50    -0.474351963906E+03   -0.44181E-04   -0.17994E-02   952   0.395E-02    0.311E-01
DAV:  51    -0.474351899868E+03    0.64038E-04   -0.17707E-02   952   0.382E-02    0.183E-01
DAV:  52    -0.474351944727E+03   -0.44859E-04   -0.17641E-02   952   0.391E-02    0.307E-01
DAV:  53    -0.474351883238E+03    0.61489E-04   -0.17371E-02   952   0.379E-02    0.183E-01
[...]
DAV:   2    -0.479180811016E+03   -0.20312E-03   -0.26880E-03  1488   0.132E-01    0.431E-02
DAV:   3    -0.479180808379E+03    0.26362E-05   -0.94378E-05  1464   0.287E-02
 213 F= -.47918081E+03 E0= -.47918081E+03  d E =-.394208E-02
       N       E                     dE             d eps       ncg     rms          rms(c)
DAV:   1    -0.479177949260E+03    0.28618E-02   -0.44827E+00  1312   0.560E+00    0.387E-01
DAV:   2    -0.479183874508E+03   -0.59252E-02   -0.77747E-02  1428   0.710E-01    0.244E-01
DAV:   3    -0.479183650227E+03    0.22428E-03   -0.29208E-03  1568   0.160E-01    0.153E-01
DAV:   4    -0.479183749680E+03   -0.99453E-04   -0.96660E-04  1496   0.100E-01    0.860E-02
DAV:   5    -0.479183771546E+03   -0.21865E-04   -0.51707E-04  1464   0.694E-02    0.394E-02
DAV:   6    -0.479183776462E+03   -0.49167E-05   -0.94695E-05  1256   0.305E-02
 214 F= -.47918378E+03 E0= -.47918378E+03  d E =-.296808E-02
       N       E                     dE             d eps       ncg     rms          rms(c)
DAV:   1    -0.479183772833E+03   -0.12868E-05   -0.16385E-02  1360   0.339E-01    0.260E-02
DAV:   2    -0.479183797833E+03   -0.25000E-04   -0.29997E-04  1560   0.437E-02    0.150E-02
DAV:   3    -0.479183798426E+03   -0.59301E-06   -0.77429E-06   880   0.947E-03
 215 F= -.47918380E+03 E0= -.47918380E+03  d E =-.299005E-02
       N       E                     dE             d eps       ncg     rms          rms(c)
DAV:   1    -0.479182486948E+03    0.13109E-02   -0.30316E+00  1312   0.463E+00    0.323E-01
DAV:   2    -0.479186409134E+03   -0.39222E-02   -0.53415E-02  1448   0.595E-01    0.204E-01
DAV:   3    -0.479186274595E+03    0.13454E-03   -0.23497E-03  1504   0.148E-01    0.133E-01
DAV:   4    -0.479186335645E+03   -0.61050E-04   -0.92393E-04  1476   0.961E-02    0.916E-02
DAV:   5    -0.479186324036E+03    0.11608E-04   -0.40450E-04  1480   0.621E-02    0.307E-02
DAV:   6    -0.479186338360E+03   -0.14323E-04   -0.59844E-05  1240   0.237E-02    0.127E-02
DAV:   7    -0.479186340588E+03   -0.22284E-05   -0.10644E-05   936   0.100E-02
 216 F= -.47918634E+03 E0= -.47918634E+03  d E =-.254216E-02
       N       E                     dE             d eps       ncg     rms          rms(c)
DAV:   1    -0.479186200657E+03    0.13770E-03   -0.20579E-01  1312   0.121E+00    0.842E-02
DAV:   2    -0.479186471169E+03   -0.27051E-03   -0.36772E-03  1432   0.156E-01    0.529E-02
DAV:   3    -0.479186463962E+03    0.72067E-05   -0.16285E-04  1520   0.390E-02    0.352E-02
DAV:   4    -0.479186468699E+03   -0.47370E-05   -0.61189E-05  1132   0.250E-02
 217 F= -.47918647E+03 E0= -.47918647E+03  d E =-.267027E-02
       N       E                     dE             d eps       ncg     rms          rms(c)
DAV:   1    -0.479185224628E+03    0.12393E-02   -0.27239E+00  1344   0.441E+00    0.294E-01
DAV:   2    -0.479188631970E+03   -0.34073E-02   -0.46153E-02  1444   0.555E-01    0.190E-01
DAV:   3    -0.479188510260E+03    0.12171E-03   -0.19010E-03  1568   0.133E-01    0.120E-01
DAV:   4    -0.479188593765E+03   -0.83506E-04   -0.83456E-04  1496   0.924E-02    0.816E-02
DAV:   5    -0.479188575227E+03    0.18538E-04   -0.35796E-04  1456   0.588E-02    0.256E-02
DAV:   6    -0.479188586833E+03   -0.11606E-04   -0.42396E-05  1120   0.198E-02    0.114E-02
DAV:   7    -0.479188588745E+03   -0.19114E-05   -0.74513E-06   904   0.859E-03
 218 F= -.47918859E+03 E0= -.47918859E+03  d E =-.212005E-02
       N       E                     dE             d eps       ncg     rms          rms(c)
DAV:   1    -0.479188545234E+03    0.41599E-04   -0.91120E-02  1344   0.807E-01    0.532E-02
DAV:   2    -0.479188662232E+03   -0.11700E-03   -0.15652E-03  1504   0.102E-01    0.341E-02
DAV:   3    -0.479188659035E+03    0.31969E-05   -0.59616E-05  1328   0.237E-02
 219 F= -.47918866E+03 E0= -.47918866E+03  d E =-.219034E-02
       N       E                     dE             d eps       ncg     rms          rms(c)
DAV:   1    -0.479188605357E+03    0.56876E-04   -0.16794E+00  1352   0.349E+00    0.240E-01
DAV:   2    -0.479190638439E+03   -0.20331E-02   -0.28430E-02  1452   0.440E-01    0.156E-01
DAV:   3    -0.479190576604E+03    0.61835E-04   -0.12985E-03  1536   0.111E-01    0.998E-02
DAV:   4    -0.479190620282E+03   -0.43678E-04   -0.55957E-04  1484   0.757E-02    0.676E-02
DAV:   5    -0.479190612645E+03    0.76367E-05   -0.22466E-04  1432   0.470E-02    0.203E-02
DAV:   6    -0.479190621662E+03   -0.90167E-05   -0.26594E-05  1000   0.159E-02
 220 F= -.47919062E+03 E0= -.47919062E+03  d E =-.196263E-02
       N       E                     dE             d eps       ncg     rms          rms(c)
DAV:   1    -0.479190311896E+03    0.30075E-03   -0.49770E-01  1344   0.190E+00    0.131E-01
DAV:   2    -0.479190944930E+03   -0.63303E-03   -0.86700E-03  1444   0.243E-01    0.850E-02
DAV:   3    -0.479190927177E+03    0.17753E-04   -0.44453E-04  1528   0.650E-02    0.570E-02
DAV:   4    -0.479190934433E+03   -0.72559E-05   -0.16600E-04  1464   0.413E-02    0.370E-02
DAV:   5    -0.479190938147E+03   -0.37141E-05   -0.56796E-05  1096   0.242E-02
 221 F= -.47919094E+03 E0= -.47919094E+03  d E =-.227911E-02
       N       E                     dE             d eps       ncg     rms          rms(c)
DAV:   1    -0.479190844029E+03    0.90404E-04   -0.14890E+00  1360   0.331E+00    0.225E-01
DAV:   2    -0.479192707571E+03   -0.18635E-02   -0.25566E-02  1436   0.416E-01    0.143E-01
DAV:   3    -0.479192654402E+03    0.53169E-04   -0.10680E-03  1560   0.985E-02    0.903E-02
DAV:   4    -0.479192697216E+03   -0.42815E-04   -0.43668E-04  1512   0.677E-02    0.612E-02
DAV:   5    -0.479192687433E+03    0.97833E-05   -0.20332E-04  1432   0.445E-02    0.206E-02
DAV:   6    -0.479192694732E+03   -0.72986E-05   -0.23842E-05  1000   0.158E-02
 222 F= -.47919269E+03 E0= -.47919269E+03  d E =-.175658E-02
       N       E                     dE             d eps       ncg     rms          rms(c)
DAV:   1    -0.479192588426E+03    0.99008E-04   -0.29053E-01  1360   0.146E+00    0.100E-01
DAV:   2    -0.479192955845E+03   -0.36742E-03   -0.50350E-03  1472   0.184E-01    0.632E-02
DAV:   3    -0.479192946711E+03    0.91334E-05   -0.20941E-04  1576   0.437E-02    0.407E-02
DAV:   4    -0.479192958050E+03   -0.11339E-04   -0.85274E-05  1204   0.301E-02    0.275E-02
DAV:   5    -0.479192957451E+03    0.59936E-06   -0.40756E-05   964   0.207E-02
 223 F= -.47919296E+03 E0= -.47919296E+03  d E =-.201930E-02
       N       E                     dE             d eps       ncg     rms          rms(c)
DAV:   1    -0.479193413949E+03   -0.45590E-03   -0.65353E-01  1360   0.219E+00    0.155E-01
DAV:   2    -0.479194204913E+03   -0.79096E-03   -0.11398E-02  1432   0.280E-01    0.970E-02
DAV:   3    -0.479194168538E+03    0.36375E-04   -0.49335E-04  1568   0.684E-02    0.606E-02
DAV:   4    -0.479194188169E+03   -0.19631E-04   -0.23380E-04  1504   0.485E-02    0.416E-02
DAV:   5    -0.479194179716E+03    0.84528E-05   -0.88934E-05  1232   0.299E-02
 224 F= -.47919418E+03 E0= -.47919418E+03  d E =-.122227E-02
       N       E                     dE             d eps       ncg     rms          rms(c)
DAV:   1    -0.479194045739E+03    0.14243E-03   -0.32259E-01  1360   0.154E+00    0.110E-01
DAV:   2    -0.479194437466E+03   -0.39173E-03   -0.56398E-03  1464   0.197E-01    0.683E-02
DAV:   3    -0.479194420733E+03    0.16733E-04   -0.23737E-04  1560   0.477E-02    0.428E-02
DAV:   4    -0.479194433006E+03   -0.12274E-04   -0.11458E-04  1368   0.340E-02    0.294E-02
DAV:   5    -0.479194428960E+03    0.40465E-05   -0.44238E-05  1020   0.216E-02
 225 F= -.47919443E+03 E0= -.47919443E+03  d E =-.147151E-02
       N       E                     dE             d eps       ncg     rms          rms(c)
DAV:   1    -0.479194918320E+03   -0.48531E-03   -0.30191E-01  1336   0.148E+00    0.104E-01
DAV:   2    -0.479195282984E+03   -0.36466E-03   -0.52010E-03  1448   0.188E-01    0.676E-02
DAV:   3    -0.479195274210E+03    0.87736E-05   -0.29553E-04  1520   0.526E-02    0.453E-02
DAV:   4    -0.479195278312E+03   -0.41024E-05   -0.10757E-04  1188   0.330E-02    0.268E-02
DAV:   5    -0.479195281788E+03   -0.34754E-05   -0.30979E-05   980   0.184E-02
 226 F= -.47919528E+03 E0= -.47919528E+03  d E =-.852828E-03
       N       E                     dE             d eps       ncg     rms          rms(c)
DAV:   1    -0.479193302123E+03    0.19762E-02   -0.27190E+00  1344   0.443E+00    0.307E-01
DAV:   2    -0.479196581949E+03   -0.32798E-02   -0.46598E-02  1428   0.563E-01    0.204E-01
DAV:   3    -0.479196480116E+03    0.10183E-03   -0.26694E-03  1528   0.158E-01    0.136E-01
DAV:   4    -0.479196472135E+03    0.79810E-05   -0.98984E-04  1480   0.998E-02    0.799E-02
DAV:   5    -0.479196486957E+03   -0.14822E-04   -0.28230E-04  1440   0.528E-02    0.224E-02
DAV:   6    -0.479196498925E+03   -0.11967E-04   -0.35384E-05  1136   0.175E-02    0.115E-02
DAV:   7    -0.479196501646E+03   -0.27210E-05   -0.72822E-06   872   0.863E-03
 227 F= -.47919650E+03 E0= -.47919650E+03  d E =-.207269E-02
       N       E                     dE             d eps       ncg     rms          rms(c)
DAV:   1    -0.479197026190E+03   -0.52727E-03   -0.61001E-01  1360   0.210E+00    0.145E-01
DAV:   2    -0.479197804747E+03   -0.77856E-03   -0.10636E-02  1444   0.269E-01    0.930E-02
DAV:   3    -0.479197770580E+03    0.34167E-04   -0.44072E-04  1552   0.642E-02    0.581E-02
DAV:   4    -0.479197791292E+03   -0.20712E-04   -0.21441E-04  1480   0.467E-02    0.396E-02
DAV:   5    -0.479197784934E+03    0.63572E-05   -0.80723E-05  1240   0.285E-02
 228 F= -.47919778E+03 E0= -.47919778E+03  d E =-.128329E-02
       N       E                     dE             d eps       ncg     rms          rms(c)
DAV:   1    -0.479197264720E+03    0.52657E-03   -0.84117E-01  1360   0.247E+00    0.172E-01
DAV:   2    -0.479198343840E+03   -0.10791E-02   -0.14627E-02  1424   0.315E-01    0.109E-01
DAV:   3    -0.479198299812E+03    0.44029E-04   -0.60087E-04  1560   0.750E-02    0.680E-02
DAV:   4    -0.479198328840E+03   -0.29028E-04   -0.29141E-04  1480   0.545E-02    0.464E-02
DAV:   5    -0.479198320401E+03    0.84389E-05   -0.11142E-04  1284   0.334E-02    0.131E-02
DAV:   6    -0.479198324480E+03   -0.40784E-05   -0.11496E-05   960   0.105E-02
 229 F= -.47919832E+03 E0= -.47919832E+03  d E =-.182283E-02
       N       E                     dE             d eps       ncg     rms          rms(c)
DAV:   1    -0.479198744466E+03   -0.42406E-03   -0.65632E-01  1360   0.218E+00    0.149E-01
DAV:   2    -0.479199539314E+03   -0.79485E-03   -0.11161E-02  1464   0.274E-01    0.936E-02
DAV:   3    -0.479199511726E+03    0.27588E-04   -0.43078E-04  1616   0.620E-02    0.567E-02
DAV:   4    -0.479199535531E+03   -0.23805E-04   -0.14416E-04  1504   0.392E-02    0.321E-02
DAV:   5    -0.479199535785E+03   -0.25384E-06   -0.69908E-05  1208   0.265E-02
 230 F= -.47919954E+03 E0= -.47919954E+03  d E =-.121131E-02
       N       E                     dE             d eps       ncg     rms          rms(c)
DAV:   1    -0.479196846432E+03    0.26891E-02   -0.30854E+00  1360   0.472E+00    0.322E-01
DAV:   2    -0.479200567749E+03   -0.37213E-02   -0.52098E-02  1428   0.593E-01    0.203E-01
DAV:   3    -0.479200428253E+03    0.13950E-03   -0.20042E-03  1608   0.134E-01    0.121E-01
DAV:   4    -0.479200516821E+03   -0.88569E-04   -0.65453E-04  1500   0.837E-02    0.658E-02
DAV:   5    -0.479200520635E+03   -0.38135E-05   -0.31636E-04  1456   0.561E-02    0.323E-02
DAV:   6    -0.479200525501E+03   -0.48666E-05   -0.51659E-05  1116   0.234E-02
 231 F= -.47920053E+03 E0= -.47920053E+03  d E =-.220102E-02
       N       E                     dE             d eps       ncg     rms          rms(c)
DAV:   1    -0.479200651196E+03   -0.13056E-03   -0.99968E-01  1344   0.270E+00    0.196E-01
DAV:   2    -0.479201862433E+03   -0.12112E-02   -0.17736E-02  1444   0.346E-01    0.123E-01
DAV:   3    -0.479201804772E+03    0.57660E-04   -0.86706E-04  1524   0.918E-02    0.803E-02
DAV:   4    -0.479201818912E+03   -0.14140E-04   -0.39683E-04  1488   0.627E-02    0.515E-02
DAV:   5    -0.479201816365E+03    0.25473E-05   -0.11651E-04  1344   0.346E-02    0.143E-02
DAV:   6    -0.479201822575E+03   -0.62099E-05   -0.14157E-05   920   0.112E-02
 232 F= -.47920182E+03 E0= -.47920182E+03  d E =-.129707E-02
       N       E                     dE             d eps       ncg     rms          rms(c)
DAV:   1    -0.479201756824E+03    0.59541E-04   -0.37989E-01  1328   0.167E+00    0.121E-01
DAV:   2    -0.479202225256E+03   -0.46843E-03   -0.68217E-03  1440   0.213E-01    0.758E-02
DAV:   3    -0.479202202793E+03    0.22463E-04   -0.33417E-04  1536   0.568E-02    0.497E-02
DAV:   4    -0.479202209480E+03   -0.66865E-05   -0.14996E-04  1440   0.386E-02    0.318E-02
DAV:   5    -0.479202208499E+03    0.98009E-06   -0.43300E-05   988   0.216E-02
 233 F= -.47920221E+03 E0= -.47920221E+03  d E =-.168300E-02
       N       E                     dE             d eps       ncg     rms          rms(c)
DAV:   1    -0.479200270199E+03    0.19393E-02   -0.15174E+00  1328   0.333E+00    0.240E-01
DAV:   2    -0.479202126137E+03   -0.18559E-02   -0.27058E-02  1416   0.425E-01    0.151E-01
DAV:   3    -0.479202037208E+03    0.88929E-04   -0.13239E-03  1548   0.113E-01    0.983E-02
DAV:   4    -0.479202053327E+03   -0.16119E-04   -0.59828E-04  1476   0.771E-02    0.633E-02
DAV:   5    -0.479202045954E+03    0.73734E-05   -0.17919E-04  1456   0.428E-02    0.177E-02
DAV:   6    -0.479202053884E+03   -0.79301E-05   -0.21731E-05  1000   0.136E-02
 234 F= -.47920205E+03 E0= -.47920205E+03  d E =-.152838E-02
       N       E                     dE             d eps       ncg     rms          rms(c)
DAV:   1    -0.479201554914E+03    0.49104E-03   -0.64052E-01  1328   0.216E+00    0.158E-01
DAV:   2    -0.479202325856E+03   -0.77094E-03   -0.11457E-02  1440   0.277E-01    0.980E-02
DAV:   3    -0.479202289847E+03    0.36009E-04   -0.55653E-04  1552   0.735E-02    0.635E-02
DAV:   4    -0.479202299090E+03   -0.92429E-05   -0.25006E-04  1496   0.497E-02    0.415E-02
DAV:   5    -0.479202299163E+03   -0.72694E-07   -0.74522E-05  1220   0.279E-02
 235 F= -.47920230E+03 E0= -.47920230E+03  d E =-.177366E-02
       N       E                     dE             d eps       ncg     rms          rms(c)
DAV:   1    -0.479202851175E+03   -0.55208E-03   -0.41452E-01  1312   0.177E+00    0.139E-01
DAV:   2    -0.479203338658E+03   -0.48748E-03   -0.78556E-03  1448   0.234E-01    0.918E-02
DAV:   3    -0.479203287684E+03    0.50974E-04   -0.55543E-04  1516   0.745E-02    0.605E-02
DAV:   4    -0.479203271068E+03    0.16616E-04   -0.19699E-04  1476   0.448E-02    0.318E-02
DAV:   5    -0.479203271335E+03   -0.26743E-06   -0.42301E-05  1156   0.208E-02
 236 F= -.47920327E+03 E0= -.47920327E+03  d E =-.972172E-03
       N       E                     dE             d eps       ncg     rms          rms(c)
DAV:   1    -0.479203210564E+03    0.60503E-04   -0.34545E-01  1312   0.161E+00    0.128E-01
DAV:   2    -0.479203620728E+03   -0.41016E-03   -0.65125E-03  1444   0.212E-01    0.830E-02
DAV:   3    -0.479203585340E+03    0.35387E-04   -0.45338E-04  1516   0.671E-02    0.552E-02
DAV:   4    -0.479203575655E+03    0.96851E-05   -0.16350E-04  1452   0.407E-02    0.298E-02
DAV:   5    -0.479203576868E+03   -0.12130E-05   -0.34947E-05  1076   0.192E-02
 237 F= -.47920358E+03 E0= -.47920358E+03  d E =-.127771E-02
       N       E                     dE             d eps       ncg     rms          rms(c)
DAV:   1    -0.479204057881E+03   -0.48223E-03   -0.46638E-01  1312   0.187E+00    0.141E-01
DAV:   2    -0.479204626762E+03   -0.56888E-03   -0.86206E-03  1440   0.244E-01    0.898E-02
DAV:   3    -0.479204594428E+03    0.32335E-04   -0.53455E-04  1528   0.734E-02    0.603E-02
DAV:   4    -0.479204590718E+03    0.37096E-05   -0.19214E-04  1496   0.444E-02    0.365E-02
DAV:   5    -0.479204593118E+03   -0.23998E-05   -0.49517E-05  1136   0.227E-02
 238 F= -.47920459E+03 E0= -.47920459E+03  d E =-.101625E-02
       N       E                     dE             d eps       ncg     rms          rms(c)
DAV:   1    -0.479204123443E+03    0.46727E-03   -0.86087E-01  1312   0.254E+00    0.191E-01
DAV:   2    -0.479205168088E+03   -0.10446E-02   -0.15883E-02  1432   0.331E-01    0.122E-01
DAV:   3    -0.479205109692E+03    0.58396E-04   -0.99315E-04  1528   0.100E-01    0.819E-02
DAV:   4    -0.479205100598E+03    0.90936E-05   -0.35697E-04  1496   0.605E-02    0.493E-02
DAV:   5    -0.479205105395E+03   -0.47972E-05   -0.93200E-05  1376   0.308E-02
 239 F= -.47920511E+03 E0= -.47920511E+03  d E =-.152853E-02
       N       E                     dE             d eps       ncg     rms          rms(c)
DAV:   1    -0.479205435724E+03   -0.33513E-03   -0.56716E-01  1360   0.206E+00    0.146E-01
DAV:   2    -0.479206136695E+03   -0.70097E-03   -0.99249E-03  1464   0.261E-01    0.922E-02
DAV:   3    -0.479206103664E+03    0.33031E-04   -0.43320E-04  1556   0.649E-02    0.590E-02
DAV:   4    -0.479206123888E+03   -0.20224E-04   -0.20270E-04  1496   0.450E-02    0.410E-02
DAV:   5    -0.479206120660E+03    0.32283E-05   -0.77480E-05  1208   0.279E-02
 240 F= -.47920612E+03 E0= -.47920612E+03  d E =-.101526E-02
       N       E                     dE             d eps       ncg     rms          rms(c)
DAV:   1    -0.479205068044E+03    0.10558E-02   -0.13280E+00  1360   0.315E+00    0.223E-01
DAV:   2    -0.479206699038E+03   -0.16310E-02   -0.23219E-02  1444   0.399E-01    0.141E-01
DAV:   3    -0.479206616209E+03    0.82829E-04   -0.10444E-03  1552   0.101E-01    0.905E-02
DAV:   4    -0.479206651617E+03   -0.35407E-04   -0.48114E-04  1504   0.695E-02    0.624E-02
DAV:   5    -0.479206643329E+03    0.82876E-05   -0.17993E-04  1432   0.424E-02    0.187E-02
DAV:   6    -0.479206651401E+03   -0.80721E-05   -0.20538E-05   984   0.142E-02
 241 F= -.47920665E+03 E0= -.47920665E+03  d E =-.154601E-02
       N       E                     dE             d eps       ncg     rms          rms(c)
DAV:   1    -0.479206777467E+03   -0.13414E-03   -0.66692E-01  1312   0.223E+00    0.158E-01
DAV:   2    -0.479207633418E+03   -0.85595E-03   -0.12093E-02  1432   0.287E-01    0.103E-01
DAV:   3    -0.479207593771E+03    0.39647E-04   -0.69039E-04  1540   0.817E-02    0.690E-02
DAV:   4    -0.479207599284E+03   -0.55134E-05   -0.25104E-04  1480   0.506E-02    0.424E-02
DAV:   5    -0.479207604824E+03   -0.55393E-05   -0.75017E-05  1248   0.279E-02
 242 F= -.47920760E+03 E0= -.47920760E+03  d E =-.953422E-03
       N       E                     dE             d eps       ncg     rms          rms(c)
DAV:   1    -0.479206381603E+03    0.12177E-02   -0.14736E+00  1328   0.331E+00    0.234E-01
DAV:   2    -0.479208229074E+03   -0.18475E-02   -0.26287E-02  1420   0.424E-01    0.153E-01
DAV:   3    -0.479208144885E+03    0.84189E-04   -0.14851E-03  1528   0.120E-01    0.101E-01
DAV:   4    -0.479208155196E+03   -0.10311E-04   -0.56003E-04  1496   0.755E-02    0.628E-02
DAV:   5    -0.479208163706E+03   -0.85100E-05   -0.16946E-04  1480   0.416E-02    0.184E-02
DAV:   6    -0.479208172881E+03   -0.91746E-05   -0.21867E-05  1024   0.140E-02
 243 F= -.47920817E+03 E0= -.47920817E+03  d E =-.152148E-02
       N       E                     dE             d eps       ncg     rms          rms(c)
DAV:   1    -0.479208583817E+03   -0.42011E-03   -0.58278E-01  1312   0.209E+00    0.155E-01
DAV:   2    -0.479209310573E+03   -0.72676E-03   -0.10874E-02  1476   0.276E-01    0.105E-01
DAV:   3    -0.479209264056E+03    0.46517E-04   -0.78124E-04  1524   0.871E-02    0.703E-02
DAV:   4    -0.479209253225E+03    0.10831E-04   -0.24443E-04  1492   0.502E-02    0.364E-02
DAV:   5    -0.479209260668E+03   -0.74437E-05   -0.59796E-05  1244   0.244E-02
 244 F= -.47920926E+03 E0= -.47920926E+03  d E =-.108779E-02
