slab_Cel1-OPT                           
           1
    14.206064    0.000000    0.000000
     0.000000   12.301944    0.000000
     0.000000    0.000000   15.000000
   C    N    Pd
    24    32     1
Direct configuration=     1
   0.06552924  0.40428224  0.13332883
   0.98073506  0.23448653  0.13331251
   0.22596849  0.39800742  0.13332693
   0.81567713  0.57598150  0.13353271
   0.15032739  0.23448907  0.13330756
   0.90510567  0.39801215  0.13332888
   0.56563600  0.40060460  0.13329290
   0.48003275  0.23339915  0.13319118
   0.72699959  0.39816605  0.13349143
   0.31530345  0.57604443  0.13352705
   0.65113845  0.23332886  0.13318734
   0.40417946  0.39830929  0.13352891
   0.81593183  0.90524123  0.13322179
   0.73312683  0.73613388  0.13336762
   0.97653404  0.89849251  0.13330997
   0.90130094  0.73428418  0.13317397
   0.65436077  0.89869394  0.13351908
   0.31496386  0.90544683  0.13320054
   0.22958188  0.73436464  0.13316012
   0.47652118  0.89889576  0.13350049
   0.39765408  0.73641312  0.13329011
   0.15435104  0.89855068  0.13332563
   0.06547629  0.07689847  0.13331367
   0.56552517  0.07636274  0.13331407
   0.98386097  0.45673230  0.13331657
   0.90051323  0.29005212  0.13328011
   0.14721891  0.45673085  0.13330434
   0.14879978  0.12682943  0.13328696
   0.98217053  0.12681964  0.13329527
   0.23059373  0.29004466  0.13328360
   0.06553126  0.29123103  0.13334958
   0.81521451  0.45792350  0.13337048
   0.48537906  0.45596222  0.13372761
   0.40076577  0.29045513  0.13359709
   0.64589040  0.45583435  0.13368861
   0.64915874  0.12611856  0.13341956
   0.48192703  0.12618043  0.13340833
   0.73044688  0.29029081  0.13357859
   0.56559013  0.28963346  0.13259239
   0.31590167  0.45800614  0.13338786
   0.73355117  0.95613998  0.13361729
   0.65156945  0.78886389  0.13372214
   0.89721800  0.95709144  0.13344107
   0.89834841  0.62653391  0.13351279
   0.73194305  0.62829732  0.13384847
   0.98071775  0.78992791  0.13338564
   0.81644402  0.79170529  0.13265331
   0.56546383  0.95729815  0.13335126
   0.23365512  0.95719332  0.13346882
   0.15016184  0.78998079  0.13343866
   0.39733392  0.95635363  0.13363927
   0.39900206  0.62855329  0.13381154
   0.23263864  0.62660872  0.13355684
   0.47919533  0.78908611  0.13366660
   0.31441659  0.79189183  0.13253209
   0.06544380  0.95787743  0.13331123
   0.56413024  0.62436563  0.13731276
slab_Cel1-OPT                           
           1
    14.209129    0.000000    0.000000
     0.000000   12.302815    0.000000
     0.000000    0.000000   15.000000
   C    N    Pd
    24    32     1
Direct configuration=     2
   0.06553241  0.40429409  0.13332840
   0.98073903  0.23448990  0.13331129
   0.22598684  0.39802244  0.13332769
   0.81570911  0.57594284  0.13353771
   0.15032571  0.23448878  0.13330581
   0.90509126  0.39802832  0.13332925
   0.56559755  0.40051531  0.13329131
   0.48002020  0.23341741  0.13318713
   0.72710059  0.39818829  0.13349709
   0.31527775  0.57602357  0.13353167
   0.65113746  0.23333674  0.13318355
   0.40414415  0.39831426  0.13353308
   0.81594348  0.90524597  0.13321970
   0.73320090  0.73616267  0.13336730
   0.97653088  0.89850419  0.13330796
   0.90131226  0.73428443  0.13316900
   0.65433316  0.89874122  0.13352348
   0.31493474  0.90543703  0.13319794
   0.22957695  0.73436686  0.13315546
   0.47658172  0.89898603  0.13350599
   0.39754448  0.73641207  0.13328718
   0.15435111  0.89856161  0.13332411
   0.06547653  0.07688572  0.13331299
   0.56552751  0.07636672  0.13331315
   0.98386225  0.45673133  0.13331572
   0.90052489  0.29005931  0.13327769
   0.14721823  0.45672556  0.13330274
   0.14879354  0.12684184  0.13328356
   0.98217503  0.12683386  0.13329250
   0.23058007  0.29004729  0.13328113
   0.06553111  0.29123149  0.13335216
   0.81520512  0.45792346  0.13336654
   0.48518423  0.45570565  0.13369615
   0.40078490  0.29046266  0.13361969
   0.64597620  0.45575981  0.13365910
   0.64915503  0.12611790  0.13341863
   0.48192507  0.12618556  0.13340762
   0.73042871  0.29030882  0.13360115
   0.56558977  0.28966942  0.13258394
   0.31591940  0.45800921  0.13338394
   0.73352483  0.95611073  0.13364117
   0.65166765  0.78909177  0.13369065
   0.89719061  0.95708825  0.13344178
   0.89832307  0.62654104  0.13353243
   0.73218312  0.62825630  0.13382514
   0.98070960  0.78992772  0.13338475
   0.81638676  0.79167357  0.13264380
   0.56546392  0.95728166  0.13334785
   0.23367433  0.95718793  0.13347006
   0.15016928  0.78997282  0.13343932
   0.39736314  0.95631998  0.13366287
   0.39869558  0.62846804  0.13378581
   0.23266526  0.62661557  0.13357691
   0.47917754  0.78920007  0.13363533
   0.31445892  0.79186606  0.13252040
   0.06544328  0.95787283  0.13331451
   0.56423022  0.62439856  0.13740677
slab_Cel1-OPT                           
           1
    14.213430    0.000000    0.000000
     0.000000   12.304037    0.000000
     0.000000    0.000000   15.000000
   C    N    Pd
    24    32     1
Direct configuration=     3
   0.06553687  0.40431074  0.13332780
   0.98074460  0.23449462  0.13330958
   0.22601259  0.39804352  0.13332877
   0.81575399  0.57588858  0.13354473
   0.15032334  0.23448836  0.13330335
   0.90507104  0.39805100  0.13332975
   0.56554359  0.40038998  0.13328906
   0.48000259  0.23344305  0.13318145
   0.72724233  0.39821951  0.13350503
   0.31524168  0.57599430  0.13353816
   0.65113607  0.23334782  0.13317824
   0.40409459  0.39832125  0.13353892
   0.81595982  0.90525263  0.13321676
   0.73330485  0.73620308  0.13336687
   0.97652644  0.89852058  0.13330513
   0.90132815  0.73428478  0.13316202
   0.65429441  0.89880759  0.13352966
   0.31489388  0.90542328  0.13319427
   0.22957003  0.73436998  0.13314891
   0.47666668  0.89911273  0.13351370
   0.39739067  0.73641059  0.13328307
   0.15435122  0.89857694  0.13332197
   0.06547686  0.07686782  0.13331204
   0.56553078  0.07637232  0.13331186
   0.98386404  0.45672997  0.13331454
   0.90054125  0.29006940  0.13327429
   0.14721727  0.45671814  0.13330049
   0.14878479  0.12685926  0.13327878
   0.98218136  0.12685381  0.13328860
   0.23056090  0.29005099  0.13327766
   0.06553090  0.29123213  0.13335578
   0.81519196  0.45792341  0.13336102
   0.48491080  0.45534552  0.13365199
   0.40081173  0.29047322  0.13365142
   0.64609662  0.45565519  0.13361766
   0.64914981  0.12611698  0.13341733
   0.48192230  0.12619275  0.13340662
   0.73040322  0.29033410  0.13363280
   0.56558925  0.28971989  0.13257207
   0.31594426  0.45801350  0.13337844
   0.73348785  0.95606968  0.13367468
   0.65180548  0.78941163  0.13364643
   0.89715217  0.95708377  0.13344277
   0.89828751  0.62655105  0.13356000
   0.73252005  0.62819872  0.13379239
   0.98069817  0.78992745  0.13338350
   0.81630641  0.79162904  0.13263046
   0.56546404  0.95725853  0.13334305
   0.23370129  0.95718035  0.13347179
   0.15017972  0.78996163  0.13344025
   0.39740413  0.95627276  0.13369600
   0.39826546  0.62834837  0.13374970
   0.23270262  0.62662518  0.13360508
   0.47915258  0.78936004  0.13359143
   0.31451834  0.79182990  0.13250398
   0.06544256  0.95786637  0.13331911
   0.56437053  0.62444479  0.13753873
slab_Cel1-OPT                           
           1
    14.216512    0.000000    0.000000
     0.000000   12.304529    0.000000
     0.000000    0.000000   15.000000
   C    N    Pd
    24    32     1
Direct configuration=     4
   0.06553938  0.40431908  0.13332743
   0.98075803  0.23452174  0.13330736
   0.22601565  0.39805216  0.13332912
   0.81591068  0.57582698  0.13355234
   0.15031053  0.23451353  0.13330022
   0.90509218  0.39805680  0.13332962
   0.56553923  0.40039619  0.13327701
   0.47998209  0.23347754  0.13317681
   0.72732572  0.39820537  0.13351288
   0.31504126  0.57589906  0.13354516
   0.65115312  0.23339072  0.13317396
   0.40394238  0.39818874  0.13354500
   0.81587912  0.90525250  0.13321529
   0.73333562  0.73622224  0.13335762
   0.97650011  0.89852348  0.13330058
   0.90130442  0.73424854  0.13315547
   0.65432557  0.89895430  0.13353536
   0.31497471  0.90542154  0.13319186
   0.22958917  0.73432741  0.13314268
   0.47668775  0.89919167  0.13352168
   0.39739851  0.73639510  0.13327058
   0.15436343  0.89857289  0.13331858
   0.06547584  0.07689269  0.13331057
   0.56552734  0.07641510  0.13330818
   0.98385454  0.45672367  0.13331237
   0.90056280  0.29009274  0.13326908
   0.14723024  0.45670649  0.13329700
   0.14875256  0.12684829  0.13327184
   0.98221215  0.12684893  0.13328308
   0.23053811  0.29006749  0.13327245
   0.06553124  0.29123772  0.13336100
   0.81525007  0.45789559  0.13335419
   0.48487099  0.45508101  0.13359023
   0.40080039  0.29040165  0.13369932
   0.64603336  0.45553791  0.13355920
   0.64911915  0.12612216  0.13341442
   0.48195064  0.12619799  0.13340423
   0.73039109  0.29031958  0.13368084
   0.56558441  0.28965232  0.13255494
   0.31589296  0.45797521  0.13337104
   0.73352147  0.95608729  0.13372574
   0.65200345  0.78950422  0.13358525
   0.89714828  0.95707146  0.13344386
   0.89832778  0.62657589  0.13360187
   0.73270111  0.62830118  0.13374680
   0.98067702  0.78996051  0.13338092
   0.81637051  0.79166382  0.13261065
   0.56547032  0.95732710  0.13333717
   0.23369243  0.95716384  0.13347382
   0.15019691  0.78998800  0.13344088
   0.39737584  0.95624879  0.13374631
   0.39804785  0.62842373  0.13370109
   0.23264561  0.62666033  0.13364763
   0.47901283  0.78932579  0.13353049
   0.31444551  0.79185964  0.13248038
   0.06544173  0.95786377  0.13332499
   0.56453122  0.62450306  0.13773154
slab_Cel1-OPT                           
           1
    14.218985    0.000000    0.000000
     0.000000   12.304923    0.000000
     0.000000    0.000000   15.000000
   C    N    Pd
    24    32     1
Direct configuration=     5
   0.06554139  0.40432577  0.13332714
   0.98076880  0.23454350  0.13330558
   0.22601810  0.39805909  0.13332941
   0.81603640  0.57577755  0.13355844
   0.15030026  0.23453373  0.13329770
   0.90510914  0.39806146  0.13332952
   0.56553573  0.40040116  0.13326735
   0.47996564  0.23350523  0.13317308
   0.72739263  0.39819404  0.13351919
   0.31488046  0.57582264  0.13355077
   0.65116681  0.23342515  0.13317053
   0.40382025  0.39808241  0.13354988
   0.81581436  0.90525239  0.13321412
   0.73336032  0.73623762  0.13335021
   0.97647897  0.89852580  0.13329693
   0.90128538  0.73421947  0.13315021
   0.65435058  0.89907203  0.13353994
   0.31503957  0.90542014  0.13318993
   0.22960453  0.73429324  0.13313768
   0.47670466  0.89925501  0.13352809
   0.39740480  0.73638267  0.13326055
   0.15437323  0.89856965  0.13331586
   0.06547502  0.07691265  0.13330939
   0.56552458  0.07644944  0.13330522
   0.98384691  0.45671861  0.13331063
   0.90058009  0.29011148  0.13326491
   0.14724065  0.45669715  0.13329419
   0.14872671  0.12683948  0.13326627
   0.98223686  0.12684501  0.13327864
   0.23051982  0.29008074  0.13326827
   0.06553151  0.29124221  0.13336518
   0.81529670  0.45787327  0.13334871
   0.48483905  0.45486875  0.13354067
   0.40079129  0.29034421  0.13373776
   0.64598261  0.45544380  0.13351228
   0.64909454  0.12612632  0.13341208
   0.48197337  0.12620219  0.13340232
   0.73038137  0.29030793  0.13371940
   0.56558052  0.28959810  0.13254119
   0.31585180  0.45794448  0.13336511
   0.73354844  0.95610143  0.13376672
   0.65216230  0.78957852  0.13353616
   0.89714516  0.95706158  0.13344473
   0.89836009  0.62659582  0.13363547
   0.73284638  0.62838340  0.13371020
   0.98066005  0.78998704  0.13337885
   0.81642195  0.79169173  0.13259476
   0.56547537  0.95738213  0.13333245
   0.23368532  0.95715059  0.13347545
   0.15021071  0.79000916  0.13344139
   0.39735314  0.95622956  0.13378669
   0.39787325  0.62848421  0.13366207
   0.23259987  0.62668854  0.13368177
   0.47890070  0.78929830  0.13348159
   0.31438707  0.79188351  0.13246144
   0.06544107  0.95786169  0.13332971
   0.56466014  0.62454982  0.13788627
slab_Cel1-OPT                           
           1
    14.219810    0.000000    0.000000
     0.000000   12.305655    0.000000
     0.000000    0.000000   15.000000
   C    N    Pd
    24    32     1
Direct configuration=     6
   0.06554676  0.40434287  0.13332734
   0.98079060  0.23454396  0.13330254
   0.22597496  0.39803753  0.13332787
   0.81618510  0.57577380  0.13356696
   0.15027669  0.23453306  0.13329375
   0.90516864  0.39803945  0.13332774
   0.56552186  0.40030388  0.13323012
   0.47999668  0.23346064  0.13317272
   0.72732402  0.39815435  0.13352478
   0.31468544  0.57577533  0.13355782
   0.65114361  0.23341264  0.13316979
   0.40371786  0.39791265  0.13355468
   0.81585242  0.90524538  0.13321633
   0.73350415  0.73631500  0.13331763
   0.97642560  0.89852730  0.13328884
   0.90129887  0.73429677  0.13314502
   0.65443330  0.89917381  0.13354367
   0.31501390  0.90540138  0.13319084
   0.22958684  0.73437143  0.13313341
   0.47663616  0.89918454  0.13353370
   0.39731067  0.73640847  0.13322369
   0.15442005  0.89855729  0.13330946
   0.06547473  0.07691824  0.13330654
   0.56551828  0.07655677  0.13329546
   0.98386762  0.45671617  0.13330636
   0.90061810  0.29012198  0.13325612
   0.14723554  0.45668605  0.13328828
   0.14870096  0.12687526  0.13325532
   0.98226062  0.12688584  0.13327022
   0.23048622  0.29008929  0.13325971
   0.06553162  0.29126889  0.13337357
   0.81540268  0.45783723  0.13333996
   0.48483093  0.45475975  0.13344710
   0.40068087  0.29015398  0.13381835
   0.64597781  0.45534865  0.13342267
   0.64907464  0.12617017  0.13340615
   0.48199495  0.12622841  0.13339728
   0.73042433  0.29028335  0.13380028
   0.56558053  0.28951950  0.13251496
   0.31569603  0.45784658  0.13335510
   0.73359547  0.95624916  0.13385327
   0.65226202  0.78964706  0.13344371
   0.89710100  0.95704600  0.13344615
   0.89851217  0.62657669  0.13370572
   0.73291989  0.62841548  0.13364359
   0.98061342  0.78998940  0.13337415
   0.81652951  0.79175667  0.13256343
   0.56548576  0.95746698  0.13332438
   0.23371898  0.95712846  0.13347810
   0.15024016  0.79000976  0.13344183
   0.39737065  0.95627693  0.13387295
   0.39781347  0.62848902  0.13359147
   0.23240041  0.62665625  0.13375355
   0.47882662  0.78934527  0.13338871
   0.31431878  0.79191838  0.13242481
   0.06543218  0.95788174  0.13333728
   0.56484525  0.62461171  0.13819471
slab_Cel1-OPT                           
           1
    14.221160    0.000000    0.000000
     0.000000   12.306851    0.000000
     0.000000    0.000000   15.000000
   C    N    Pd
    24    32     1
Direct configuration=     7
   0.06555553  0.40437085  0.13332766
   0.98082627  0.23454470  0.13329758
   0.22590439  0.39800224  0.13332535
   0.81642839  0.57576768  0.13358089
   0.15023812  0.23453195  0.13328729
   0.90526599  0.39800342  0.13332483
   0.56549916  0.40014473  0.13316921
   0.48004746  0.23338769  0.13317214
   0.72721177  0.39808942  0.13353393
   0.31436641  0.57569794  0.13356936
   0.65110567  0.23339218  0.13316858
   0.40355037  0.39763494  0.13356253
   0.81591469  0.90523391  0.13321995
   0.73373945  0.73644158  0.13326434
   0.97633828  0.89852976  0.13327560
   0.90132095  0.73442325  0.13313655
   0.65456864  0.89934032  0.13354977
   0.31497192  0.90537068  0.13319234
   0.22955790  0.73449933  0.13312643
   0.47652409  0.89906926  0.13354289
   0.39715668  0.73645067  0.13316338
   0.15449664  0.89853707  0.13329899
   0.06547425  0.07692738  0.13330190
   0.56550797  0.07673236  0.13327948
   0.98390151  0.45671218  0.13329937
   0.90068030  0.29013917  0.13324175
   0.14722718  0.45666790  0.13327861
   0.14865885  0.12693379  0.13323740
   0.98229950  0.12695263  0.13325643
   0.23043125  0.29010328  0.13324571
   0.06553179  0.29131253  0.13338729
   0.81557607  0.45777827  0.13332566
   0.48481764  0.45458143  0.13329402
   0.40050021  0.28984275  0.13395021
   0.64596996  0.45519299  0.13327607
   0.64904208  0.12624191  0.13339646
   0.48203026  0.12627130  0.13338905
   0.73049461  0.29024315  0.13393262
   0.56558055  0.28939092  0.13247205
   0.31544119  0.45768641  0.13333873
   0.73367240  0.95649085  0.13399488
   0.65242517  0.78975918  0.13329247
   0.89702875  0.95702051  0.13344846
   0.89876096  0.62654539  0.13382067
   0.73304016  0.62846797  0.13353461
   0.98053713  0.78999327  0.13336648
   0.81670548  0.79186292  0.13251217
   0.56550277  0.95760578  0.13331120
   0.23377406  0.95709227  0.13348244
   0.15028835  0.79001074  0.13344255
   0.39739929  0.95635443  0.13401409
   0.39771568  0.62849690  0.13347597
   0.23207410  0.62660344  0.13387099
   0.47870543  0.78942210  0.13323676
   0.31420706  0.79197542  0.13236489
   0.06541764  0.95791455  0.13334968
   0.56514809  0.62471295  0.13869933
slab_Cel1-OPT                           
           1
    14.219729    0.000000    0.000000
     0.000000   12.307443    0.000000
     0.000000    0.000000   15.000000
   C    N    Pd
    24    32     1
Direct configuration=     8
   0.06556535  0.40437663  0.13332790
   0.98085330  0.23457789  0.13329419
   0.22581972  0.39794469  0.13332028
   0.81650012  0.57580773  0.13358773
   0.15021472  0.23456607  0.13328241
   0.90531094  0.39797617  0.13332050
   0.56546527  0.40003525  0.13309600
   0.48000933  0.23334827  0.13318146
   0.72717682  0.39803157  0.13353549
   0.31429329  0.57574259  0.13357348
   0.65114723  0.23339583  0.13317735
   0.40352843  0.39751980  0.13356390
   0.81592915  0.90531178  0.13323162
   0.73385464  0.73646919  0.13319805
   0.97633516  0.89856054  0.13326288
   0.90137661  0.73439175  0.13313918
   0.65460271  0.89941348  0.13355072
   0.31499051  0.90542489  0.13320244
   0.22950574  0.73445253  0.13312954
   0.47647937  0.89905939  0.13354436
   0.39706425  0.73641073  0.13309245
   0.15448962  0.89855882  0.13328806
   0.06546916  0.07692601  0.13329743
   0.56550489  0.07672146  0.13326233
   0.98395725  0.45672072  0.13329171
   0.90072817  0.29010757  0.13322790
   0.14717674  0.45666773  0.13326916
   0.14865437  0.12693951  0.13322257
   0.98230308  0.12695849  0.13324521
   0.23037612  0.29005858  0.13323242
   0.06553298  0.29132749  0.13339954
   0.81560402  0.45777873  0.13331606
   0.48473907  0.45457640  0.13316867
   0.40041341  0.28963699  0.13406679
   0.64601417  0.45510784  0.13315403
   0.64905656  0.12628030  0.13338734
   0.48202779  0.12625378  0.13338057
   0.73049170  0.29017541  0.13404864
   0.56557325  0.28936320  0.13243572
   0.31532999  0.45760456  0.13332742
   0.73378548  0.95663180  0.13411789
   0.65246234  0.78979671  0.13316718
   0.89708015  0.95706674  0.13345142
   0.89892953  0.62661295  0.13392050
   0.73314808  0.62845705  0.13344711
   0.98058807  0.79007946  0.13336114
   0.81675618  0.79190185  0.13246810
   0.56551555  0.95761611  0.13329945
   0.23376820  0.95711469  0.13348689
   0.15023693  0.79008720  0.13344383
   0.39733285  0.95638031  0.13413945
   0.39763451  0.62842627  0.13338223
   0.23186812  0.62664260  0.13397451
   0.47864462  0.78946412  0.13310919
   0.31419609  0.79197314  0.13231349
   0.06541167  0.95791415  0.13335552
   0.56533306  0.62475706  0.13913862
slab_Cel1-OPT                           
           1
    14.216478    0.000000    0.000000
     0.000000   12.308786    0.000000
     0.000000    0.000000   15.000000
   C    N    Pd
    24    32     1
Direct configuration=     9
   0.06558763  0.40438974  0.13332845
   0.98091466  0.23465321  0.13328647
   0.22562751  0.39781405  0.13330877
   0.81666298  0.57589865  0.13360327
   0.15016158  0.23464351  0.13327132
   0.90541300  0.39791429  0.13331068
   0.56538832  0.39978672  0.13292980
   0.47992275  0.23325879  0.13320263
   0.72709746  0.39790026  0.13353902
   0.31412729  0.57584393  0.13358284
   0.65124157  0.23340411  0.13319725
   0.40347862  0.39725843  0.13356699
   0.81596198  0.90548857  0.13325811
   0.73411616  0.73653187  0.13304757
   0.97632809  0.89863041  0.13323400
   0.90150297  0.73432026  0.13314516
   0.65468005  0.89957954  0.13355287
   0.31503270  0.90554793  0.13322537
   0.22938733  0.73434629  0.13313660
   0.47637785  0.89903699  0.13354771
   0.39685440  0.73632007  0.13293142
   0.15447369  0.89860820  0.13326326
   0.06545760  0.07692290  0.13328728
   0.56549791  0.07669673  0.13322340
   0.98408380  0.45674011  0.13327433
   0.90083686  0.29003585  0.13319648
   0.14706221  0.45666735  0.13324771
   0.14864421  0.12695250  0.13318892
   0.98231123  0.12697181  0.13321973
   0.23025097  0.28995712  0.13320224
   0.06553566  0.29136146  0.13342736
   0.81566750  0.45777978  0.13329426
   0.48456068  0.45456498  0.13288412
   0.40021635  0.28916993  0.13433144
   0.64611455  0.45491455  0.13287697
   0.64908943  0.12636743  0.13336665
   0.48202220  0.12621400  0.13336133
   0.73048510  0.29002162  0.13431202
   0.56555667  0.28930027  0.13235326
   0.31507753  0.45741876  0.13330174
   0.73404223  0.95695176  0.13439714
   0.65254673  0.78988192  0.13288277
   0.89719684  0.95717169  0.13345813
   0.89931224  0.62676633  0.13414713
   0.73339310  0.62843226  0.13324848
   0.98070371  0.79027512  0.13334901
   0.81687129  0.79199022  0.13236807
   0.56554457  0.95763956  0.13327277
   0.23375491  0.95716561  0.13349699
   0.15012019  0.79026077  0.13344674
   0.39718200  0.95643905  0.13442401
   0.39745023  0.62826595  0.13316944
   0.23140049  0.62673148  0.13420949
   0.47850657  0.78955952  0.13281959
   0.31417118  0.79196797  0.13219682
   0.06539811  0.95791323  0.13336877
   0.56575300  0.62485720  0.14013585
slab_Cel1-OPT                           
           1
    14.215673    0.000000    0.000000
     0.000000   12.308775    0.000000
     0.000000    0.000000   15.000000
   C    N    Pd
    24    32     1
Direct configuration=    10
   0.06558534  0.40437743  0.13332834
   0.98093978  0.23464656  0.13328428
   0.22558939  0.39778817  0.13330494
   0.81671518  0.57591512  0.13360718
   0.15013422  0.23463170  0.13326841
   0.90542978  0.39790932  0.13330737
   0.56536367  0.39977623  0.13287592
   0.47989922  0.23322286  0.13321134
   0.72711666  0.39786457  0.13353987
   0.31407298  0.57585468  0.13358518
   0.65125192  0.23339295  0.13320564
   0.40345456  0.39719857  0.13356702
   0.81599316  0.90553831  0.13326839
   0.73414135  0.73654350  0.13299845
   0.97634721  0.89865306  0.13322513
   0.90156217  0.73433862  0.13314937
   0.65470511  0.89960916  0.13355258
   0.31501749  0.90556641  0.13323447
   0.22933317  0.73435173  0.13314113
   0.47635981  0.89905474  0.13354762
   0.39683619  0.73629077  0.13287969
   0.15446130  0.89863106  0.13325552
   0.06545670  0.07692029  0.13328394
   0.56550626  0.07668097  0.13321087
   0.98409030  0.45674391  0.13326846
   0.90084686  0.29003483  0.13318640
   0.14704671  0.45666928  0.13324055
   0.14864600  0.12695737  0.13317911
   0.98230651  0.12698056  0.13321235
   0.23023025  0.28994142  0.13319244
   0.06553646  0.29136838  0.13343609
   0.81567355  0.45778354  0.13328783
   0.48452705  0.45454453  0.13279933
   0.40017598  0.28910724  0.13441081
   0.64610402  0.45487394  0.13279375
   0.64909431  0.12635922  0.13336066
   0.48201985  0.12617755  0.13335555
   0.73049751  0.29000003  0.13439096
   0.56554134  0.28928946  0.13232781
   0.31504233  0.45739239  0.13329427
   0.73407067  0.95700999  0.13448152
   0.65257771  0.78990269  0.13279760
   0.89723465  0.95721376  0.13346125
   0.89938022  0.62677844  0.13421533
   0.73345837  0.62844106  0.13318878
   0.98073969  0.79031923  0.13334663
   0.81689536  0.79200583  0.13233680
   0.56555086  0.95762748  0.13326361
   0.23374056  0.95718953  0.13350079
   0.15009070  0.79030001  0.13344833
   0.39716588  0.95645748  0.13451028
   0.39739822  0.62823409  0.13310637
   0.23132696  0.62673097  0.13428003
   0.47847152  0.78955174  0.13273370
   0.31415376  0.79195398  0.13216075
   0.06539994  0.95792747  0.13337033
   0.56584973  0.62487839  0.14043885
slab_Cel1-OPT                           
           1
    14.213257    0.000000    0.000000
     0.000000   12.308742    0.000000
     0.000000    0.000000   15.000000
   C    N    Pd
    24    32     1
Direct configuration=    11
   0.06557849  0.40434049  0.13332800
   0.98101515  0.23462659  0.13327770
   0.22547502  0.39771052  0.13329345
   0.81687180  0.57596452  0.13361892
   0.15005214  0.23459626  0.13325971
   0.90548013  0.39789441  0.13329745
   0.56528973  0.39974477  0.13271428
   0.47982861  0.23311505  0.13323749
   0.72717426  0.39775751  0.13354243
   0.31391003  0.57588693  0.13359221
   0.65128298  0.23335947  0.13323082
   0.40338239  0.39701898  0.13356711
   0.81608672  0.90568756  0.13329922
   0.73421694  0.73657837  0.13285107
   0.97640455  0.89872099  0.13319854
   0.90173977  0.73439368  0.13316201
   0.65478032  0.89969801  0.13355171
   0.31497186  0.90562188  0.13326178
   0.22917066  0.73436806  0.13315474
   0.47630568  0.89910801  0.13354737
   0.39678154  0.73620290  0.13272449
   0.15442412  0.89869964  0.13323230
   0.06545398  0.07691247  0.13327391
   0.56553130  0.07663368  0.13317328
   0.98410980  0.45675533  0.13325086
   0.90087685  0.29003177  0.13315618
   0.14700023  0.45667509  0.13321906
   0.14865136  0.12697199  0.13314968
   0.98229237  0.12700682  0.13319022
   0.23016807  0.28989433  0.13316306
   0.06553887  0.29138915  0.13346231
   0.81569170  0.45779483  0.13326856
   0.48442614  0.45448318  0.13254497
   0.40005486  0.28891918  0.13464890
   0.64607242  0.45475212  0.13254408
   0.64910893  0.12633457  0.13334269
   0.48201283  0.12606822  0.13333824
   0.73053474  0.28993524  0.13462780
   0.56549537  0.28925702  0.13225146
   0.31493670  0.45731327  0.13327185
   0.73415601  0.95718468  0.13473465
   0.65267065  0.78996502  0.13254207
   0.89734808  0.95733998  0.13347063
   0.89958415  0.62681480  0.13441991
   0.73365420  0.62846746  0.13300965
   0.98084765  0.79045158  0.13333949
   0.81696757  0.79205266  0.13224299
   0.56556970  0.95759123  0.13323613
   0.23369750  0.95726132  0.13351218
   0.15000222  0.79041770  0.13345310
   0.39711750  0.95651276  0.13476907
   0.39724218  0.62813849  0.13291715
   0.23110637  0.62672946  0.13449164
   0.47836638  0.78952839  0.13247604
   0.31410150  0.79191200  0.13205254
   0.06540544  0.95797022  0.13337502
   0.56613993  0.62494198  0.14134785
slab_Cel1-OPT                           
           1
    14.208426    0.000000    0.000000
     0.000000   12.308676    0.000000
     0.000000    0.000000   15.000000
   C    N    Pd
    24    32     1
Direct configuration=    12
   0.06556477  0.40426662  0.13332733
   0.98116592  0.23458665  0.13326453
   0.22524624  0.39755523  0.13327047
   0.81718508  0.57606332  0.13364239
   0.14988794  0.23452538  0.13324229
   0.90558085  0.39786459  0.13327760
   0.56514182  0.39968185  0.13239099
   0.47968736  0.23289944  0.13328978
   0.72728947  0.39754337  0.13354755
   0.31358409  0.57595143  0.13360626
   0.65134511  0.23329252  0.13328116
   0.40323801  0.39665980  0.13356729
   0.81627386  0.90598605  0.13336089
   0.73436813  0.73664812  0.13255633
   0.97651926  0.89885685  0.13314536
   0.90209504  0.73450382  0.13318729
   0.65493075  0.89987573  0.13354996
   0.31488058  0.90573280  0.13331641
   0.22884560  0.73440072  0.13318194
   0.47619740  0.89921455  0.13354686
   0.39667223  0.73602715  0.13241410
   0.15434974  0.89883681  0.13318586
   0.06544854  0.07689683  0.13325386
   0.56558139  0.07653910  0.13309812
   0.98414881  0.45677817  0.13321567
   0.90093685  0.29002564  0.13309573
   0.14690725  0.45668671  0.13317608
   0.14866208  0.12700121  0.13309081
   0.98226406  0.12705932  0.13314595
   0.23004371  0.28980015  0.13310430
   0.06554367  0.29143068  0.13351473
   0.81572800  0.45781742  0.13323002
   0.48422429  0.45436048  0.13203625
   0.39981259  0.28854307  0.13512509
   0.64600921  0.45450847  0.13204474
   0.64913819  0.12628528  0.13330676
   0.48199878  0.12584956  0.13330361
   0.73060921  0.28980566  0.13510148
   0.56540340  0.28919215  0.13209876
   0.31472542  0.45715504  0.13322701
   0.73432672  0.95753407  0.13524091
   0.65285658  0.79008969  0.13203102
   0.89757496  0.95759241  0.13348938
   0.89999208  0.62688750  0.13482908
   0.73404593  0.62852025  0.13265141
   0.98106360  0.79071629  0.13332519
   0.81711202  0.79214632  0.13205536
   0.56560740  0.95751873  0.13318116
   0.23361138  0.95740488  0.13353496
   0.14982524  0.79065311  0.13346264
   0.39702072  0.95662332  0.13528664
   0.39693005  0.62794730  0.13253871
   0.23066512  0.62672642  0.13491485
   0.47815606  0.78948169  0.13196072
   0.31399696  0.79182805  0.13183611
   0.06541645  0.95805570  0.13338438
   0.56672043  0.62506916  0.14316584
slab_Cel1-OPT                           
           1
    14.198763    0.000000    0.000000
     0.000000   12.308544    0.000000
     0.000000    0.000000   15.000000
   C    N    Pd
    24    32     1
Direct configuration=    13
   0.06553733  0.40411887  0.13332599
   0.98146756  0.23450678  0.13323819
   0.22478852  0.39724464  0.13322452
   0.81781187  0.57626093  0.13368933
   0.14955944  0.23438361  0.13320747
   0.90578235  0.39780494  0.13323789
   0.56484589  0.39955601  0.13174442
   0.47940476  0.23246820  0.13339436
   0.72751998  0.39711510  0.13355777
   0.31293197  0.57608044  0.13363437
   0.65146942  0.23315861  0.13338185
   0.40294915  0.39594144  0.13356764
   0.81664827  0.90658302  0.13348423
   0.73467062  0.73678762  0.13196684
   0.97674876  0.89912857  0.13303899
   0.90280581  0.73472409  0.13323786
   0.65523172  0.90023117  0.13354648
   0.31469797  0.90595466  0.13342566
   0.22819526  0.73446603  0.13323634
   0.47598078  0.89942763  0.13354583
   0.39645354  0.73567564  0.13179331
   0.15420093  0.89911114  0.13309297
   0.06543766  0.07686553  0.13321375
   0.56568160  0.07634994  0.13294778
   0.98422684  0.45682386  0.13314527
   0.90105690  0.29001337  0.13297484