  59  59   0   0
  0.4481788E+02  0.1426590E-08  0.1235700E-08  0.1500000E-08  0.1000000E-15
  1.000000000000000E-004
  CAR 
 slab_Cel1-OPT                           
      4.17125605    -27.65940235  301     -2.06352962      1.00000000
    -27.659  0.0000E+00  0.0000E+00
    -27.553  0.0000E+00  0.0000E+00
    -27.447  0.0000E+00  0.0000E+00
    -27.341  0.0000E+00  0.0000E+00
    -27.235  0.0000E+00  0.0000E+00
    -27.129  0.0000E+00  0.0000E+00
    -27.023  0.0000E+00  0.0000E+00
    -26.917  0.0000E+00  0.0000E+00
    -26.811  0.0000E+00  0.0000E+00
    -26.704  0.1009E-13  0.1070E-14
    -26.598  0.1573E-09  0.1669E-10
    -26.492  0.2891E-06  0.3069E-07
    -26.386  0.6596E-04  0.7029E-05
    -26.280  0.2021E-02  0.2215E-03
    -26.174  0.9535E-02  0.1233E-02
    -26.068  0.1216E-01  0.2523E-02
    -25.962  0.1950E-01  0.4593E-02
    -25.856  0.2217E-01  0.6945E-02
    -25.750  0.9016E-02  0.7902E-02
    -25.643  0.9075E-03  0.7998E-02
    -25.537  0.1637E-04  0.8000E-02
    -25.431  0.4173E-07  0.8000E-02
    -25.325  0.3230E-06  0.8000E-02
    -25.219  0.6946E-04  0.8007E-02
    -25.113  0.2038E-02  0.8224E-02
    -25.007  0.1012E-01  0.9297E-02
    -24.901  0.1434E-01  0.1082E-01
    -24.795  0.1291E-01  0.1219E-01
    -24.689  0.1041E-01  0.1329E-01
    -24.582  0.9323E-02  0.1428E-01
    -24.476  0.8097E-02  0.1514E-01
    -24.370  0.3102E-02  0.1547E-01
    -24.264  0.2740E-03  0.1550E-01
    -24.158  0.1191E-03  0.1551E-01
    -24.052  0.1575E-02  0.1568E-01
    -23.946  0.7207E-02  0.1644E-01
    -23.840  0.2152E-01  0.1873E-01
    -23.734  0.2622E-01  0.2151E-01
    -23.628  0.2038E-01  0.2367E-01
    -23.521  0.7211E-02  0.2444E-01
    -23.415  0.5929E-03  0.2450E-01
    -23.309  0.2545E-03  0.2453E-01
    -23.203  0.3587E-02  0.2491E-01
    -23.097  0.9392E-02  0.2590E-01
    -22.991  0.7911E-02  0.2674E-01
    -22.885  0.9010E-02  0.2770E-01
    -22.779  0.1302E-01  0.2908E-01
    -22.673  0.1344E-01  0.3051E-01
    -22.566  0.1006E-01  0.3157E-01
    -22.460  0.3559E-02  0.3195E-01
    -22.354  0.4456E-03  0.3200E-01
    -22.248  0.1084E-04  0.3200E-01
    -22.142  0.7580E-04  0.3201E-01
    -22.036  0.2655E-02  0.3229E-01
    -21.930  0.1616E-01  0.3400E-01
    -21.824  0.2914E-01  0.3710E-01
    -21.718  0.3330E-01  0.4063E-01
    -21.612  0.3298E-01  0.4413E-01
    -21.505  0.2687E-01  0.4698E-01
    -21.399  0.8951E-02  0.4793E-01
    -21.293  0.6758E-03  0.4800E-01
    -21.187  0.6027E-03  0.4806E-01
    -21.081  0.5395E-02  0.4864E-01
    -20.975  0.1481E-01  0.5021E-01
    -20.869  0.2050E-01  0.5238E-01
    -20.763  0.1980E-01  0.5448E-01
    -20.657  0.1180E-01  0.5574E-01
    -20.551  0.6553E-02  0.5643E-01
    -20.444  0.1071E-01  0.5757E-01
    -20.338  0.9463E-02  0.5857E-01
    -20.232  0.2005E-01  0.6070E-01
    -20.126  0.2116E-01  0.6294E-01
    -20.020  0.8790E-02  0.6388E-01
    -19.914  0.1145E-02  0.6400E-01
    -19.808  0.2884E-04  0.6400E-01
    -19.702  0.1022E-06  0.6400E-01
    -19.596  0.4420E-10  0.6400E-01
    -19.490  0.2191E-14  0.6400E-01
    -19.383  0.0000E+00  0.6400E-01
    -19.277  0.0000E+00  0.6400E-01
    -19.171  0.0000E+00  0.6400E-01
    -19.065  0.0000E+00  0.6400E-01
    -18.959  0.0000E+00  0.6400E-01
    -18.853  0.0000E+00  0.6400E-01
    -18.747  0.0000E+00  0.6400E-01
    -18.641  0.0000E+00  0.6400E-01
    -18.535  0.0000E+00  0.6400E-01
    -18.429  0.0000E+00  0.6400E-01
    -18.322  0.0000E+00  0.6400E-01
    -18.216  0.0000E+00  0.6400E-01
    -18.110  0.0000E+00  0.6400E-01
    -18.004  0.4076E-15  0.6400E-01
    -17.898  0.1144E-10  0.6400E-01
    -17.792  0.3637E-07  0.6400E-01
    -17.686  0.1361E-04  0.6400E-01
    -17.580  0.6526E-03  0.6407E-01
    -17.474  0.5008E-02  0.6460E-01
    -17.367  0.1111E-01  0.6578E-01
    -17.261  0.1387E-01  0.6725E-01
    -17.155  0.1281E-01  0.6861E-01
    -17.049  0.1824E-01  0.7055E-01
    -16.943  0.2045E-01  0.7272E-01
    -16.837  0.1603E-01  0.7442E-01
    -16.731  0.1666E-01  0.7619E-01
    -16.625  0.1488E-01  0.7776E-01
    -16.519  0.9397E-02  0.7876E-01
    -16.413  0.4624E-02  0.7925E-01
    -16.306  0.2604E-02  0.7953E-01
    -16.200  0.2623E-02  0.7981E-01
    -16.094  0.1649E-02  0.7998E-01
    -15.988  0.1703E-03  0.8000E-01
    -15.882  0.3180E-05  0.8000E-01
    -15.776  0.1310E-03  0.8001E-01
    -15.670  0.2975E-02  0.8033E-01
    -15.564  0.1396E-01  0.8181E-01
    -15.458  0.2550E-01  0.8452E-01
    -15.352  0.2117E-01  0.8676E-01
    -15.245  0.7293E-02  0.8754E-01
    -15.139  0.3123E-02  0.8787E-01
    -15.033  0.1375E-02  0.8801E-01
    -14.927  0.2639E-02  0.8829E-01
    -14.821  0.4992E-02  0.8882E-01
    -14.715  0.1806E-02  0.8902E-01
    -14.609  0.2043E-02  0.8923E-01
    -14.503  0.3953E-02  0.8965E-01
    -14.397  0.4690E-02  0.9015E-01
    -14.291  0.9905E-02  0.9120E-01
    -14.184  0.1690E-01  0.9299E-01
    -14.078  0.2158E-01  0.9528E-01
    -13.972  0.1414E-01  0.9678E-01
    -13.866  0.1291E-01  0.9815E-01
    -13.760  0.2215E-01  0.1005E+00
    -13.654  0.2788E-01  0.1035E+00
    -13.548  0.2671E-01  0.1063E+00
    -13.442  0.3134E-01  0.1096E+00
    -13.336  0.2473E-01  0.1122E+00
    -13.230  0.1148E-01  0.1135E+00
    -13.123  0.5514E-02  0.1140E+00
    -13.017  0.6190E-02  0.1147E+00
    -12.911  0.8477E-02  0.1156E+00
    -12.805  0.1174E-01  0.1168E+00
    -12.699  0.1052E-01  0.1180E+00
    -12.593  0.4470E-02  0.1184E+00
    -12.487  0.6204E-03  0.1185E+00
    -12.381  0.1018E-02  0.1186E+00
    -12.275  0.3900E-02  0.1190E+00
    -12.168  0.7833E-02  0.1199E+00
    -12.062  0.1551E-01  0.1215E+00
    -11.956  0.2343E-01  0.1240E+00
    -11.850  0.2430E-01  0.1266E+00
    -11.744  0.1377E-01  0.1280E+00
    -11.638  0.1065E-01  0.1292E+00
    -11.532  0.1527E-01  0.1308E+00
    -11.426  0.1869E-01  0.1328E+00
    -11.320  0.2063E-01  0.1349E+00
    -11.214  0.2063E-01  0.1371E+00
    -11.107  0.1440E-01  0.1387E+00
    -11.001  0.1057E-01  0.1398E+00
    -10.895  0.9676E-02  0.1408E+00
    -10.789  0.1009E-01  0.1419E+00
    -10.683  0.1109E-01  0.1431E+00
    -10.577  0.9825E-02  0.1441E+00
    -10.471  0.1192E-01  0.1454E+00
    -10.365  0.1052E-01  0.1465E+00
    -10.259  0.8292E-02  0.1474E+00
    -10.153  0.1462E-01  0.1489E+00
    -10.046  0.1681E-01  0.1507E+00
     -9.940  0.1322E-01  0.1521E+00
     -9.834  0.1195E-01  0.1534E+00
     -9.728  0.1303E-01  0.1548E+00
     -9.622  0.1722E-01  0.1566E+00
     -9.516  0.1805E-01  0.1585E+00
     -9.410  0.1494E-01  0.1601E+00
     -9.304  0.1539E-01  0.1617E+00
     -9.198  0.1526E-01  0.1633E+00
     -9.092  0.2028E-01  0.1655E+00
     -8.985  0.2728E-01  0.1684E+00
     -8.879  0.2244E-01  0.1708E+00
     -8.773  0.1018E-01  0.1718E+00
     -8.667  0.1495E-02  0.1720E+00
     -8.561  0.2886E-03  0.1720E+00
     -8.455  0.2214E-02  0.1723E+00
     -8.349  0.5758E-02  0.1729E+00
     -8.243  0.8928E-02  0.1738E+00
     -8.137  0.1218E-01  0.1751E+00
     -8.030  0.1851E-01  0.1771E+00
     -7.924  0.2272E-01  0.1795E+00
     -7.818  0.1636E-01  0.1812E+00
     -7.712  0.6472E-02  0.1819E+00
     -7.606  0.1986E-02  0.1821E+00
     -7.500  0.1034E-01  0.1832E+00
     -7.394  0.2597E-01  0.1860E+00
     -7.288  0.3436E-01  0.1896E+00
     -7.182  0.3702E-01  0.1935E+00
     -7.076  0.3082E-01  0.1968E+00
     -6.969  0.3091E-01  0.2001E+00
     -6.863  0.2747E-01  0.2030E+00
     -6.757  0.1716E-01  0.2048E+00
     -6.651  0.1200E-01  0.2061E+00
     -6.545  0.1988E-01  0.2082E+00
     -6.439  0.3274E-01  0.2117E+00
     -6.333  0.2462E-01  0.2143E+00
     -6.227  0.1380E-01  0.2158E+00
     -6.121  0.1297E-01  0.2171E+00
     -6.015  0.1763E-01  0.2190E+00
     -5.908  0.1948E-01  0.2211E+00
     -5.802  0.1312E-01  0.2225E+00
     -5.696  0.1886E-01  0.2245E+00
     -5.590  0.2266E-01  0.2269E+00
     -5.484  0.2646E-01  0.2297E+00
     -5.378  0.3018E-01  0.2329E+00
     -5.272  0.3164E-01  0.2362E+00
     -5.166  0.3899E-01  0.2404E+00
     -5.060  0.4474E-01  0.2451E+00
     -4.954  0.4128E-01  0.2495E+00
     -4.847  0.3645E-01  0.2534E+00
     -4.741  0.2276E-01  0.2558E+00
     -4.635  0.1820E-01  0.2577E+00
     -4.529  0.3052E-01  0.2610E+00
     -4.423  0.3229E-01  0.2644E+00
     -4.317  0.2467E-01  0.2670E+00
     -4.211  0.2779E-01  0.2700E+00
     -4.105  0.3375E-01  0.2735E+00
     -3.999  0.2859E-01  0.2766E+00
     -3.893  0.2101E-01  0.2788E+00
     -3.786  0.2867E-01  0.2818E+00
     -3.680  0.1794E-01  0.2837E+00
     -3.574  0.2491E-02  0.2840E+00
     -3.468  0.2536E-02  0.2843E+00
     -3.362  0.9798E-02  0.2853E+00
     -3.256  0.5942E-02  0.2859E+00
     -3.150  0.5352E-03  0.2860E+00
     -3.044  0.1723E-03  0.2860E+00
     -2.938  0.3449E-02  0.2864E+00
     -2.831  0.1025E-01  0.2875E+00
     -2.725  0.4676E-02  0.2880E+00
     -2.619  0.3105E-03  0.2880E+00
     -2.513  0.2675E-05  0.2880E+00
     -2.407  0.1186E-05  0.2880E+00
     -2.301  0.1417E-03  0.2880E+00
     -2.195  0.2241E-02  0.2883E+00
     -2.089  0.5728E-02  0.2889E+00
     -1.983  0.5846E-02  0.2895E+00
     -1.877  0.1037E-01  0.2906E+00
     -1.770  0.1564E-01  0.2922E+00
     -1.664  0.1425E-01  0.2938E+00
     -1.558  0.6741E-02  0.2945E+00
     -1.452  0.5629E-02  0.2951E+00
     -1.346  0.1467E-01  0.2966E+00
     -1.240  0.1333E-01  0.2980E+00
     -1.134  0.1273E-01  0.2994E+00
     -1.028  0.2002E-01  0.3015E+00
     -0.922  0.1587E-01  0.3032E+00
     -0.816  0.7782E-02  0.3040E+00
     -0.709  0.9470E-02  0.3050E+00
     -0.603  0.1612E-01  0.3067E+00
     -0.497  0.2643E-01  0.3095E+00
     -0.391  0.2510E-01  0.3122E+00
     -0.285  0.2118E-01  0.3144E+00
     -0.179  0.1279E-01  0.3158E+00
     -0.073  0.1781E-02  0.3160E+00
      0.033  0.3901E-04  0.3160E+00
      0.139  0.6268E-05  0.3160E+00
      0.245  0.5242E-03  0.3161E+00
      0.352  0.5898E-02  0.3167E+00
      0.458  0.9821E-02  0.3177E+00
      0.564  0.2509E-02  0.3180E+00
      0.670  0.9029E-04  0.3180E+00
      0.776  0.2723E-05  0.3180E+00
      0.882  0.1825E-03  0.3180E+00
      0.988  0.2358E-02  0.3183E+00
      1.094  0.8020E-02  0.3191E+00
      1.200  0.1259E-01  0.3205E+00
      1.306  0.1400E-01  0.3219E+00
      1.413  0.1458E-01  0.3235E+00
      1.519  0.2021E-01  0.3256E+00
      1.625  0.2450E-01  0.3282E+00
      1.731  0.2154E-01  0.3305E+00
      1.837  0.1767E-01  0.3324E+00
      1.943  0.1983E-01  0.3345E+00
      2.049  0.2412E-01  0.3371E+00
      2.155  0.2371E-01  0.3396E+00
      2.261  0.2114E-01  0.3418E+00
      2.368  0.1946E-01  0.3439E+00
      2.474  0.1835E-01  0.3458E+00
      2.580  0.2346E-01  0.3483E+00
      2.686  0.2131E-01  0.3506E+00
      2.792  0.1138E-01  0.3518E+00
      2.898  0.1971E-02  0.3520E+00
      3.004  0.6147E-04  0.3520E+00
      3.110  0.2686E-06  0.3520E+00
      3.216  0.1476E-09  0.3520E+00
      3.322  0.9591E-14  0.3520E+00
      3.429  0.0000E+00  0.3520E+00
      3.535  0.0000E+00  0.3520E+00
      3.641  0.0000E+00  0.3520E+00
      3.747  0.0000E+00  0.3520E+00
      3.853  0.0000E+00  0.3520E+00
      3.959  0.0000E+00  0.3520E+00
      4.065  0.0000E+00  0.3520E+00
      4.171  0.0000E+00  0.3520E+00
