  59  59   0   0
  0.3948347E+02  0.1375970E-08  0.1128670E-08  0.1500000E-08  0.1000000E-15
  1.000000000000000E-004
  CAR 
 slab_Cel1-OPT                           
      4.32348627    -27.79282227  301     -2.06285446      1.00000000
    -27.793  0.0000E+00  0.0000E+00
    -27.686  0.0000E+00  0.0000E+00
    -27.579  0.0000E+00  0.0000E+00
    -27.472  0.0000E+00  0.0000E+00
    -27.365  0.0000E+00  0.0000E+00
    -27.258  0.0000E+00  0.0000E+00
    -27.150  0.0000E+00  0.0000E+00
    -27.043  0.0000E+00  0.0000E+00
    -26.936  0.0000E+00  0.0000E+00
    -26.829  0.6009E-14  0.6433E-15
    -26.722  0.1075E-09  0.1151E-10
    -26.615  0.2174E-06  0.2329E-07
    -26.508  0.5324E-04  0.5723E-05
    -26.401  0.1766E-02  0.1948E-03
    -26.294  0.9810E-02  0.1245E-02
    -26.187  0.1620E-01  0.2979E-02
    -26.080  0.2064E-01  0.5189E-02
    -25.973  0.1947E-01  0.7273E-02
    -25.866  0.6333E-02  0.7951E-02
    -25.759  0.4522E-03  0.7999E-02
    -25.652  0.5358E-05  0.8000E-02
    -25.545  0.1016E-07  0.8000E-02
    -25.438  0.1541E-05  0.8000E-02
    -25.331  0.1778E-03  0.8019E-02
    -25.224  0.3073E-02  0.8348E-02
    -25.116  0.1128E-01  0.9556E-02
    -25.009  0.1571E-01  0.1124E-01
    -24.902  0.1195E-01  0.1252E-01
    -24.795  0.9591E-02  0.1354E-01
    -24.688  0.9440E-02  0.1455E-01
    -24.581  0.7327E-02  0.1534E-01
    -24.474  0.1454E-02  0.1549E-01
    -24.367  0.5777E-04  0.1550E-01
    -24.260  0.3398E-03  0.1554E-01
    -24.153  0.2354E-02  0.1579E-01
    -24.046  0.7047E-02  0.1654E-01
    -23.939  0.2011E-01  0.1870E-01
    -23.832  0.2773E-01  0.2166E-01
    -23.725  0.1998E-01  0.2380E-01
    -23.618  0.5928E-02  0.2444E-01
    -23.511  0.5706E-03  0.2450E-01
    -23.404  0.2595E-03  0.2453E-01
    -23.297  0.3624E-02  0.2491E-01
    -23.189  0.9991E-02  0.2598E-01
    -23.082  0.8413E-02  0.2689E-01
    -22.975  0.7964E-02  0.2774E-01
    -22.868  0.1256E-01  0.2908E-01
    -22.761  0.1296E-01  0.3047E-01
    -22.654  0.1023E-01  0.3156E-01
    -22.547  0.3712E-02  0.3196E-01
    -22.440  0.3510E-03  0.3200E-01
    -22.333  0.6495E-05  0.3200E-01
    -22.226  0.1242E-03  0.3201E-01
    -22.119  0.2563E-02  0.3229E-01
    -22.012  0.1354E-01  0.3374E-01
    -21.905  0.3239E-01  0.3720E-01
    -21.798  0.3550E-01  0.4101E-01
    -21.691  0.2778E-01  0.4398E-01
    -21.584  0.2547E-01  0.4671E-01
    -21.477  0.1103E-01  0.4789E-01
    -21.370  0.1105E-02  0.4800E-01
    -21.263  0.1200E-02  0.4813E-01
    -21.155  0.5319E-02  0.4870E-01
    -21.048  0.1381E-01  0.5018E-01
    -20.941  0.2120E-01  0.5245E-01
    -20.834  0.1969E-01  0.5456E-01
    -20.727  0.1090E-01  0.5573E-01
    -20.620  0.3417E-02  0.5609E-01
    -20.513  0.1086E-01  0.5725E-01
    -20.406  0.2099E-01  0.5950E-01
    -20.299  0.1789E-01  0.6142E-01
    -20.192  0.1734E-01  0.6327E-01
    -20.085  0.6282E-02  0.6394E-01
    -19.978  0.5107E-03  0.6400E-01
    -19.871  0.7029E-05  0.6400E-01
    -19.764  0.1319E-07  0.6400E-01
    -19.657  0.2950E-11  0.6400E-01
    -19.550  0.7259E-16  0.6400E-01
    -19.443  0.0000E+00  0.6400E-01
    -19.336  0.0000E+00  0.6400E-01
    -19.228  0.0000E+00  0.6400E-01
    -19.121  0.0000E+00  0.6400E-01
    -19.014  0.0000E+00  0.6400E-01
    -18.907  0.0000E+00  0.6400E-01
    -18.800  0.0000E+00  0.6400E-01
    -18.693  0.0000E+00  0.6400E-01
    -18.586  0.0000E+00  0.6400E-01
    -18.479  0.0000E+00  0.6400E-01
    -18.372  0.0000E+00  0.6400E-01
    -18.265  0.0000E+00  0.6400E-01
    -18.158  0.0000E+00  0.6400E-01
    -18.051  0.8711E-14  0.6400E-01
    -17.944  0.1462E-09  0.6400E-01
    -17.837  0.2736E-06  0.6400E-01
    -17.730  0.6060E-04  0.6401E-01
    -17.623  0.1782E-02  0.6420E-01
    -17.516  0.8874E-02  0.6515E-01
    -17.409  0.1304E-01  0.6654E-01
    -17.301  0.1329E-01  0.6797E-01
    -17.194  0.1315E-01  0.6937E-01
    -17.087  0.1876E-01  0.7138E-01
    -16.980  0.2091E-01  0.7362E-01
    -16.873  0.1951E-01  0.7571E-01
    -16.766  0.1188E-01  0.7698E-01
    -16.659  0.1061E-01  0.7812E-01
    -16.552  0.1023E-01  0.7921E-01
    -16.445  0.2582E-02  0.7949E-01
    -16.338  0.1551E-03  0.7951E-01
    -16.231  0.1007E-02  0.7961E-01
    -16.124  0.2573E-02  0.7989E-01
    -16.017  0.9831E-03  0.7999E-01
    -15.910  0.5320E-04  0.8000E-01
    -15.803  0.1293E-03  0.8001E-01
    -15.696  0.3351E-02  0.8037E-01
    -15.589  0.1788E-01  0.8229E-01
    -15.482  0.2887E-01  0.8538E-01
    -15.375  0.1719E-01  0.8722E-01
    -15.267  0.4206E-02  0.8767E-01
    -15.160  0.2786E-02  0.8797E-01
    -15.053  0.2582E-02  0.8824E-01
    -14.946  0.2416E-02  0.8850E-01
    -14.839  0.2409E-02  0.8876E-01
    -14.732  0.1984E-02  0.8897E-01
    -14.625  0.9193E-03  0.8907E-01
    -14.518  0.6969E-02  0.8982E-01
    -14.411  0.1429E-01  0.9135E-01
    -14.304  0.1143E-01  0.9257E-01
    -14.197  0.1235E-01  0.9389E-01
    -14.090  0.1325E-01  0.9531E-01
    -13.983  0.1834E-01  0.9727E-01
    -13.876  0.2649E-01  0.1001E+00
    -13.769  0.2374E-01  0.1026E+00
    -13.662  0.2699E-01  0.1055E+00
    -13.555  0.2936E-01  0.1087E+00
    -13.448  0.2195E-01  0.1110E+00
    -13.340  0.1807E-01  0.1130E+00
    -13.233  0.1235E-01  0.1143E+00
    -13.126  0.5325E-02  0.1149E+00
    -13.019  0.6454E-02  0.1155E+00
    -12.912  0.7998E-02  0.1164E+00
    -12.805  0.8423E-02  0.1173E+00
    -12.698  0.7067E-02  0.1181E+00
    -12.591  0.4623E-02  0.1186E+00
    -12.484  0.7100E-02  0.1193E+00
    -12.377  0.8287E-02  0.1202E+00
    -12.270  0.5846E-02  0.1208E+00
    -12.163  0.5995E-02  0.1215E+00
    -12.056  0.9892E-02  0.1225E+00
    -11.949  0.1611E-01  0.1243E+00
    -11.842  0.1719E-01  0.1261E+00
    -11.735  0.2151E-01  0.1284E+00
    -11.628  0.2353E-01  0.1309E+00
    -11.521  0.1882E-01  0.1329E+00
    -11.414  0.1784E-01  0.1348E+00
    -11.306  0.1899E-01  0.1369E+00
    -11.199  0.1614E-01  0.1386E+00
    -11.092  0.1067E-01  0.1397E+00
    -10.985  0.8461E-02  0.1407E+00
    -10.878  0.4374E-02  0.1411E+00
    -10.771  0.6468E-02  0.1418E+00
    -10.664  0.1466E-01  0.1434E+00
    -10.557  0.1964E-01  0.1455E+00
    -10.450  0.1753E-01  0.1474E+00
    -10.343  0.1804E-01  0.1493E+00
    -10.236  0.1537E-01  0.1509E+00
    -10.129  0.8270E-02  0.1518E+00
    -10.022  0.2073E-02  0.1520E+00
     -9.915  0.2738E-02  0.1523E+00
     -9.808  0.5597E-02  0.1529E+00
     -9.701  0.9623E-02  0.1540E+00
     -9.594  0.1131E-01  0.1552E+00
     -9.487  0.1974E-01  0.1573E+00
     -9.379  0.1943E-01  0.1594E+00
     -9.272  0.1744E-01  0.1612E+00
     -9.165  0.2708E-01  0.1641E+00
     -9.058  0.3056E-01  0.1674E+00
     -8.951  0.1943E-01  0.1695E+00
     -8.844  0.4553E-02  0.1700E+00
     -8.737  0.1567E-02  0.1701E+00
     -8.630  0.8518E-02  0.1711E+00
     -8.523  0.1034E-01  0.1722E+00
     -8.416  0.8487E-02  0.1731E+00
     -8.309  0.1359E-01  0.1745E+00
     -8.202  0.1755E-01  0.1764E+00
     -8.095  0.1565E-01  0.1781E+00
     -7.988  0.1460E-01  0.1796E+00
     -7.881  0.1588E-01  0.1813E+00
     -7.774  0.5629E-02  0.1819E+00
     -7.667  0.8075E-03  0.1820E+00
     -7.560  0.6613E-02  0.1827E+00
     -7.452  0.2732E-01  0.1857E+00
     -7.345  0.3708E-01  0.1896E+00
     -7.238  0.3259E-01  0.1931E+00
     -7.131  0.3357E-01  0.1967E+00
     -7.024  0.3340E-01  0.2003E+00
     -6.917  0.2465E-01  0.2029E+00
     -6.810  0.1521E-01  0.2046E+00
     -6.703  0.1083E-01  0.2057E+00
     -6.596  0.1216E-01  0.2070E+00
     -6.489  0.2276E-01  0.2095E+00
     -6.382  0.2313E-01  0.2119E+00
     -6.275  0.1763E-01  0.2138E+00
     -6.168  0.1332E-01  0.2153E+00
     -6.061  0.7203E-02  0.2160E+00
     -5.954  0.9963E-02  0.2171E+00
     -5.847  0.2388E-01  0.2196E+00
     -5.740  0.1866E-01  0.2216E+00
     -5.633  0.1042E-01  0.2228E+00
     -5.526  0.2248E-01  0.2252E+00
     -5.418  0.3290E-01  0.2287E+00
     -5.311  0.3850E-01  0.2328E+00
     -5.204  0.3779E-01  0.2369E+00
     -5.097  0.4030E-01  0.2412E+00
     -4.990  0.3256E-01  0.2447E+00
     -4.883  0.3622E-01  0.2485E+00
     -4.776  0.4238E-01  0.2531E+00
     -4.669  0.3488E-01  0.2568E+00
     -4.562  0.2501E-01  0.2595E+00
     -4.455  0.1730E-01  0.2613E+00
     -4.348  0.1274E-01  0.2627E+00
     -4.241  0.1892E-01  0.2647E+00
     -4.134  0.2608E-01  0.2675E+00
     -4.027  0.1831E-01  0.2695E+00
     -3.920  0.1062E-01  0.2706E+00
     -3.813  0.1033E-01  0.2717E+00
     -3.706  0.2597E-02  0.2720E+00
     -3.599  0.9221E-03  0.2721E+00
     -3.491  0.7154E-02  0.2729E+00
     -3.384  0.9116E-02  0.2738E+00
     -3.277  0.5215E-02  0.2744E+00
     -3.170  0.1736E-01  0.2762E+00
     -3.063  0.2511E-01  0.2789E+00
     -2.956  0.9821E-02  0.2800E+00
     -2.849  0.7263E-02  0.2808E+00
     -2.742  0.1745E-01  0.2826E+00
     -2.635  0.1402E-01  0.2841E+00
     -2.528  0.1159E-01  0.2854E+00
     -2.421  0.5412E-02  0.2860E+00
     -2.314  0.4159E-03  0.2860E+00
     -2.207  0.4118E-03  0.2860E+00
     -2.100  0.5209E-02  0.2866E+00
     -1.993  0.1087E-01  0.2878E+00
     -1.886  0.1068E-01  0.2889E+00
     -1.779  0.1315E-01  0.2903E+00
     -1.672  0.1240E-01  0.2916E+00
     -1.565  0.1255E-01  0.2930E+00
     -1.457  0.1056E-01  0.2941E+00
     -1.350  0.1000E-01  0.2952E+00
     -1.243  0.1357E-01  0.2966E+00
     -1.136  0.2193E-01  0.2990E+00
     -1.029  0.2480E-01  0.3016E+00
     -0.922  0.1693E-01  0.3035E+00
     -0.815  0.6802E-02  0.3042E+00
     -0.708  0.6116E-02  0.3048E+00
     -0.601  0.1255E-01  0.3062E+00
     -0.494  0.2138E-01  0.3085E+00
     -0.387  0.2156E-01  0.3108E+00
     -0.280  0.1004E-01  0.3119E+00
     -0.173  0.1342E-02  0.3120E+00
     -0.066  0.3290E-04  0.3120E+00
      0.041  0.4038E-05  0.3120E+00
      0.148  0.3196E-03  0.3120E+00
      0.255  0.3633E-02  0.3124E+00
      0.362  0.8351E-02  0.3133E+00
      0.470  0.5642E-02  0.3139E+00
      0.577  0.3711E-02  0.3143E+00
      0.684  0.9670E-02  0.3154E+00
      0.791  0.5862E-02  0.3160E+00
      0.898  0.3349E-02  0.3163E+00
      1.005  0.9335E-02  0.3173E+00
      1.112  0.1744E-01  0.3192E+00
      1.219  0.1863E-01  0.3212E+00
      1.326  0.1997E-01  0.3233E+00
      1.433  0.2255E-01  0.3258E+00
      1.540  0.1924E-01  0.3278E+00
      1.647  0.2294E-01  0.3303E+00
      1.754  0.2340E-01  0.3328E+00
      1.861  0.2039E-01  0.3350E+00
      1.968  0.2351E-01  0.3375E+00
      2.075  0.2379E-01  0.3400E+00
      2.182  0.1360E-01  0.3415E+00
      2.289  0.8690E-02  0.3424E+00
      2.397  0.1121E-01  0.3436E+00
      2.504  0.1727E-01  0.3455E+00
      2.611  0.1929E-01  0.3475E+00
      2.718  0.1806E-01  0.3495E+00
      2.825  0.1557E-01  0.3511E+00
      2.932  0.7113E-02  0.3519E+00
      3.039  0.1064E-02  0.3520E+00
      3.146  0.3400E-04  0.3520E+00
      3.253  0.1576E-06  0.3520E+00
      3.360  0.8665E-10  0.3520E+00
      3.467  0.5215E-14  0.3520E+00
      3.574  0.0000E+00  0.3520E+00
      3.681  0.0000E+00  0.3520E+00
      3.788  0.0000E+00  0.3520E+00
      3.895  0.0000E+00  0.3520E+00
      4.002  0.0000E+00  0.3520E+00
      4.109  0.0000E+00  0.3520E+00
      4.216  0.0000E+00  0.3520E+00
      4.323  0.0000E+00  0.3520E+00
