 running on   48 total cores
 distrk:  each k-point on   48 cores,    1 groups
 distr:  one band on   12 cores,    4 groups
 vasp.6.3.2 27Jun22 (build May 04 2024 18:40:40) complex                        
  
 POSCAR found type information on POSCAR C N AgPd
 POSCAR found :  4 types and      59 ions
 Reading from existing POTCAR
 scaLAPACK will be used
 Reading from existing POTCAR
 LDA part: xc-table for Pade appr. of Perdew
 POSCAR found type information on POSCAR C N AgPd
 POSCAR found :  4 types and      59 ions
 POSCAR, INCAR and KPOINTS ok, starting setup
 FFT: planning ... GRIDC
 FFT: planning ... GRID_SOFT
 FFT: planning ... GRID
 WAVECAR not read
 entering main loop
       N       E                     dE             d eps       ncg     rms          rms(c)
DAV:   1     0.249119094191E+04    0.24912E+04   -0.10390E+05  1600   0.104E+03
DAV:   2    -0.541733079092E+02   -0.25454E+04   -0.24386E+04  1992   0.289E+02
DAV:   3    -0.499196384070E+03   -0.44502E+03   -0.43973E+03  1688   0.132E+02
DAV:   4    -0.513771040811E+03   -0.14575E+02   -0.14166E+02  1608   0.273E+01
DAV:   5    -0.514362516651E+03   -0.59148E+00   -0.58415E+00  1904   0.445E+00    0.442E+01
DAV:   6    -0.487277246547E+03    0.27085E+02   -0.91553E+01  1600   0.275E+01    0.295E+01
DAV:   7    -0.483702705497E+03    0.35745E+01   -0.26908E+01  1592   0.250E+01    0.194E+01
DAV:   8    -0.484015805116E+03   -0.31310E+00   -0.18531E+01  1536   0.151E+01    0.140E+01
DAV:   9    -0.481387900233E+03    0.26279E+01   -0.57905E+00  1576   0.107E+01    0.543E+00
DAV:  10    -0.480759547742E+03    0.62835E+00   -0.10745E+00  1608   0.494E+00    0.394E+00
DAV:  11    -0.480696135465E+03    0.63412E-01   -0.36246E-01  1584   0.190E+00    0.265E+00
DAV:  12    -0.480659880210E+03    0.36255E-01   -0.10615E-01  1584   0.108E+00    0.114E+00
DAV:  13    -0.480654952904E+03    0.49273E-02   -0.76045E-02  1576   0.101E+00    0.776E-01
DAV:  14    -0.480651912573E+03    0.30403E-02   -0.34625E-02  1576   0.661E-01    0.378E-01
DAV:  15    -0.480654669183E+03   -0.27566E-02   -0.56818E-03  1536   0.267E-01    0.219E-01
DAV:  16    -0.480660248234E+03   -0.55791E-02   -0.33718E-03  1576   0.176E-01    0.109E-01
DAV:  17    -0.480663394061E+03   -0.31458E-02   -0.10128E-03  1608   0.946E-02    0.801E-02
DAV:  18    -0.480667461186E+03   -0.40671E-02   -0.78477E-04  1632   0.790E-02    0.553E-02
DAV:  19    -0.480673430152E+03   -0.59690E-02   -0.10713E-03  1584   0.647E-02    0.378E-02
DAV:  20    -0.480675834453E+03   -0.24043E-02   -0.41763E-04  1512   0.401E-02    0.250E-02
DAV:  21    -0.480676907504E+03   -0.10731E-02   -0.15172E-04  1448   0.349E-02    0.315E-02
DAV:  22    -0.480677394418E+03   -0.48691E-03   -0.52245E-05  1344   0.220E-02    0.954E-03
DAV:  23    -0.480677927580E+03   -0.53316E-03   -0.49725E-05  1320   0.237E-02    0.113E-02
DAV:  24    -0.480678235360E+03   -0.30778E-03   -0.25686E-05  1200   0.116E-02    0.177E-02
DAV:  25    -0.480678364145E+03   -0.12879E-03   -0.91881E-06  1056   0.123E-02    0.500E-03
DAV:  26    -0.480678492210E+03   -0.12807E-03   -0.10616E-05  1024   0.610E-03    0.558E-03
DAV:  27    -0.480678531144E+03   -0.38934E-04   -0.28541E-06   984   0.501E-03    0.537E-03
DAV:  28    -0.480678585804E+03   -0.54660E-04   -0.42673E-06  1000   0.402E-03    0.321E-03
DAV:  29    -0.480678596464E+03   -0.10659E-04   -0.99028E-07   976   0.252E-03    0.189E-03
DAV:  30    -0.480678610416E+03   -0.13953E-04   -0.12160E-06   928   0.245E-03    0.656E-04
DAV:  31    -0.480678614222E+03   -0.38058E-05   -0.50967E-07   976   0.136E-03
   1 F= -.48067861E+03 E0= -.48064520E+03  d E =-.480679E+03
 curvature:   0.00 expect dE= 0.000E+00 dE for cont linesearch  0.000E+00
 trial: gam= 0.00000 g(F)=  0.506E+00 g(S)=  0.703E-02 ort = 0.000E+00 (trialstep = 0.100E+01)
 search vector abs. value=  0.513E+00
 bond charge predicted
       N       E                     dE             d eps       ncg     rms          rms(c)
DAV:   1    -0.481093583112E+03   -0.41497E+00   -0.28969E+01  1408   0.973E+00    0.161E+00
DAV:   2    -0.481168766481E+03   -0.75183E-01   -0.45565E-01  1584   0.225E+00    0.300E+00
DAV:   3    -0.481104000355E+03    0.64766E-01   -0.17483E-01  1544   0.132E+00    0.135E+00
DAV:   4    -0.481109738007E+03   -0.57377E-02   -0.13539E-02  1520   0.400E-01    0.133E+00
DAV:   5    -0.481106723166E+03    0.30148E-02   -0.30895E-02  1560   0.619E-01    0.640E-01
DAV:   6    -0.481102725138E+03    0.39980E-02   -0.17656E-02  1576   0.465E-01    0.209E-01
DAV:   7    -0.481102372267E+03    0.35287E-03   -0.14818E-03  1536   0.127E-01    0.126E-01
DAV:   8    -0.481102266557E+03    0.10571E-03   -0.50490E-04  1616   0.749E-02    0.703E-02
DAV:   9    -0.481102253127E+03    0.13430E-04   -0.13998E-04  1528   0.353E-02    0.301E-02
DAV:  10    -0.481102261483E+03   -0.83557E-05   -0.34373E-05  1224   0.181E-02
   2 F= -.48110226E+03 E0= -.48106575E+03  d E =-.423647E+00
 trial-energy change:   -0.423647  1 .order   -0.426088   -0.513438   -0.338739
 step:   3.8703(harm=  2.9390)  dis= 0.13579  next Energy=  -481.530683 (dE=-0.852E+00)
 bond charge predicted
       N       E                     dE             d eps       ncg     rms          rms(c)
DAV:   1    -0.481443368462E+03   -0.34112E+00   -0.24652E+02  1408   0.285E+01    0.484E+00
DAV:   2    -0.482464028432E+03   -0.10207E+01   -0.76084E+00  1576   0.676E+00    0.964E+00
DAV:   3    -0.481567254911E+03    0.89677E+00   -0.43127E+00  1568   0.435E+00    0.323E+00
DAV:   4    -0.481537903498E+03    0.29351E-01   -0.15875E-01  1512   0.122E+00    0.306E+00
DAV:   5    -0.481536577175E+03    0.13263E-02   -0.10826E-01  1632   0.120E+00    0.187E+00
DAV:   6    -0.481546762933E+03   -0.10186E-01   -0.26489E-01  1584   0.147E+00    0.149E+00
DAV:   7    -0.481518440876E+03    0.28322E-01   -0.10289E-01  1552   0.100E+00    0.689E-01
DAV:   8    -0.481515454294E+03    0.29866E-02   -0.94476E-03  1576   0.257E-01    0.532E-01
DAV:   9    -0.481513621089E+03    0.18332E-02   -0.38023E-03  1608   0.199E-01    0.241E-01
DAV:  10    -0.481513399336E+03    0.22175E-03   -0.12655E-03  1616   0.951E-02    0.914E-02
DAV:  11    -0.481513477358E+03   -0.78022E-04   -0.18196E-04  1576   0.434E-02    0.628E-02
DAV:  12    -0.481513544234E+03   -0.66875E-04   -0.49604E-05  1224   0.169E-02    0.212E-02
DAV:  13    -0.481513656792E+03   -0.11256E-03   -0.17062E-05  1048   0.122E-02    0.696E-03
DAV:  14    -0.481513724743E+03   -0.67951E-04   -0.75106E-06  1024   0.656E-03    0.532E-03
DAV:  15    -0.481513787585E+03   -0.62843E-04   -0.40035E-06  1024   0.385E-03    0.282E-03
DAV:  16    -0.481513855796E+03   -0.68210E-04   -0.62587E-06  1024   0.340E-03    0.176E-03
DAV:  17    -0.481513883749E+03   -0.27953E-04   -0.29041E-06  1024   0.233E-03    0.115E-03
DAV:  18    -0.481513894185E+03   -0.10436E-04   -0.10978E-06   976   0.161E-03    0.582E-04
DAV:  19    -0.481513898707E+03   -0.45222E-05   -0.48505E-07   968   0.107E-03
   3 F= -.48151390E+03 E0= -.48146650E+03  d E =-.835284E+00
 curvature:  -1.13 expect dE=-0.289E+00 dE for cont linesearch -0.132E-02
 trial: gam= 0.54604 g(F)=  0.235E+00 g(S)=  0.208E-01 ort =-0.245E-01 (trialstep = 0.157E+01)
 search vector abs. value=  0.382E+00
 bond charge predicted
       N       E                     dE             d eps       ncg     rms          rms(c)
DAV:   1    -0.481722889482E+03   -0.20900E+00   -0.46819E+01  1416   0.143E+01    0.159E+00
DAV:   2    -0.481812960759E+03   -0.90071E-01   -0.81789E-01  1600   0.239E+00    0.269E+00
DAV:   3    -0.481779625579E+03    0.33335E-01   -0.15866E-01  1592   0.118E+00    0.114E+00
DAV:   4    -0.481768396067E+03    0.11230E-01   -0.33408E-02  1520   0.589E-01    0.855E-01
DAV:   5    -0.481765553737E+03    0.28423E-02   -0.13531E-02  1584   0.388E-01    0.287E-01
DAV:   6    -0.481765385110E+03    0.16863E-03   -0.82972E-03  1568   0.281E-01    0.237E-01
DAV:   7    -0.481764986608E+03    0.39850E-03   -0.44176E-03  1584   0.188E-01    0.137E-01
DAV:   8    -0.481764862823E+03    0.12379E-03   -0.87435E-04  1560   0.833E-02    0.693E-02
DAV:   9    -0.481764852723E+03    0.10100E-04   -0.17125E-04  1568   0.376E-02    0.358E-02
DAV:  10    -0.481764875290E+03   -0.22567E-04   -0.53977E-05  1224   0.195E-02    0.196E-02
DAV:  11    -0.481764899182E+03   -0.23892E-04   -0.98179E-06   960   0.106E-02    0.688E-03
DAV:  12    -0.481764920480E+03   -0.21298E-04   -0.31196E-06   968   0.478E-03    0.345E-03
DAV:  13    -0.481764944294E+03   -0.23814E-04   -0.21341E-06   936   0.326E-03    0.181E-03
DAV:  14    -0.481764965871E+03   -0.21577E-04   -0.21807E-06  1008   0.244E-03    0.134E-03
DAV:  15    -0.481764981584E+03   -0.15713E-04   -0.13096E-06   952   0.184E-03    0.873E-04
DAV:  16    -0.481764991296E+03   -0.97122E-05   -0.10329E-06   976   0.137E-03
   4 F= -.48176499E+03 E0= -.48171506E+03  d E =-.251093E+00
 trial-energy change:   -0.251093  1 .order   -0.251256   -0.381636   -0.120876
 step:   2.3037(harm=  2.3037)  dis= 0.05522  next Energy=  -481.793171 (dE=-0.279E+00)
 bond charge predicted
       N       E                     dE             d eps       ncg     rms          rms(c)
DAV:   1    -0.481783942116E+03   -0.18961E-01   -0.10039E+01  1416   0.658E+00    0.727E-01
DAV:   2    -0.481802148390E+03   -0.18206E-01   -0.17709E-01  1584   0.109E+00    0.123E+00
DAV:   3    -0.481796375142E+03    0.57732E-02   -0.31067E-02  1584   0.527E-01    0.566E-01
DAV:   4    -0.481793879687E+03    0.24955E-02   -0.75882E-03  1520   0.280E-01    0.407E-01
DAV:   5    -0.481793528121E+03    0.35157E-03   -0.41426E-03  1576   0.226E-01    0.221E-01
DAV:   6    -0.481793127457E+03    0.40066E-03   -0.46745E-03  1568   0.186E-01    0.115E-01
DAV:   7    -0.481792983597E+03    0.14386E-03   -0.82585E-04  1544   0.831E-02    0.506E-02
DAV:   8    -0.481792974060E+03    0.95375E-05   -0.82024E-05  1336   0.277E-02
   5 F= -.48179297E+03 E0= -.48174245E+03  d E =-.279075E+00
 curvature:  -1.82 expect dE=-0.251E+00 dE for cont linesearch -0.390E-06
 trial: gam= 0.58033 g(F)=  0.135E+00 g(S)=  0.275E-02 ort =-0.287E-03 (trialstep = 0.172E+01)
 search vector abs. value=  0.267E+00
 bond charge predicted
       N       E                     dE             d eps       ncg     rms          rms(c)
DAV:   1    -0.481937198336E+03   -0.14421E+00   -0.40686E+01  1408   0.125E+01    0.137E+00
DAV:   2    -0.481977641150E+03   -0.40443E-01   -0.55079E-01  1576   0.183E+00    0.107E+00
DAV:   3    -0.481989108523E+03   -0.11467E-01   -0.52535E-02  1600   0.843E-01    0.145E+00
DAV:   4    -0.481972642592E+03    0.16466E-01   -0.91211E-02  1560   0.640E-01    0.883E-01
DAV:   5    -0.481970634794E+03    0.20078E-02   -0.48593E-02  1584   0.430E-01    0.474E-01
DAV:   6    -0.481969225062E+03    0.14097E-02   -0.21058E-02  1576   0.355E-01    0.354E-01
DAV:   7    -0.481968298425E+03    0.92664E-03   -0.39493E-03  1592   0.187E-01    0.897E-02
DAV:   8    -0.481968308973E+03   -0.10548E-04   -0.36369E-04  1536   0.632E-02    0.556E-02
DAV:   9    -0.481968329639E+03   -0.20666E-04   -0.79237E-05  1360   0.261E-02    0.174E-02
DAV:  10    -0.481968355015E+03   -0.25376E-04   -0.16473E-05  1008   0.121E-02    0.915E-03
DAV:  11    -0.481968377706E+03   -0.22691E-04   -0.44947E-06   952   0.592E-03    0.383E-03
DAV:  12    -0.481968397882E+03   -0.20175E-04   -0.22174E-06   936   0.350E-03    0.188E-03
DAV:  13    -0.481968414292E+03   -0.16410E-04   -0.15463E-06   984   0.236E-03    0.137E-03
DAV:  14    -0.481968429571E+03   -0.15279E-04   -0.15968E-06   928   0.196E-03    0.799E-04
DAV:  15    -0.481968438182E+03   -0.86116E-05   -0.10774E-06   968   0.152E-03
   6 F= -.48196844E+03 E0= -.48191865E+03  d E =-.175464E+00
 trial-energy change:   -0.175464  1 .order   -0.175530   -0.237446   -0.113614
 step:   3.2981(harm=  3.2981)  dis= 0.07987  next Energy=  -482.020624 (dE=-0.228E+00)
 bond charge predicted
       N       E                     dE             d eps       ncg     rms          rms(c)
DAV:   1    -0.481994408214E+03   -0.25979E-01   -0.34248E+01  1408   0.115E+01    0.125E+00
DAV:   2    -0.482026652010E+03   -0.32244E-01   -0.46012E-01  1576   0.167E+00    0.847E-01
DAV:   3    -0.482035934396E+03   -0.92824E-02   -0.37629E-02  1600   0.723E-01    0.122E+00
DAV:   4    -0.482023992760E+03    0.11942E-01   -0.62528E-02  1560   0.569E-01    0.821E-01
DAV:   5    -0.482022493151E+03    0.14996E-02   -0.39111E-02  1560   0.372E-01    0.431E-01
DAV:   6    -0.482021096908E+03    0.13962E-02   -0.17360E-02  1560   0.312E-01    0.300E-01
DAV:   7    -0.482020424061E+03    0.67285E-03   -0.31975E-03  1584   0.162E-01    0.752E-02
DAV:   8    -0.482020426066E+03   -0.20051E-05   -0.28615E-04  1528   0.563E-02    0.463E-02
DAV:   9    -0.482020448146E+03   -0.22079E-04   -0.64357E-05  1224   0.212E-02    0.141E-02
DAV:  10    -0.482020472177E+03   -0.24032E-04   -0.10652E-05   952   0.103E-02    0.781E-03
DAV:  11    -0.482020494982E+03   -0.22805E-04   -0.40793E-06   944   0.526E-03    0.326E-03
DAV:  12    -0.482020515823E+03   -0.20841E-04   -0.22263E-06   944   0.327E-03    0.166E-03
DAV:  13    -0.482020533129E+03   -0.17306E-04   -0.17632E-06   960   0.237E-03    0.122E-03
DAV:  14    -0.482020547118E+03   -0.13989E-04   -0.15378E-06   920   0.190E-03    0.757E-04
DAV:  15    -0.482020555805E+03   -0.86861E-05   -0.11523E-06   936   0.155E-03
   7 F= -.48202056E+03 E0= -.48197173E+03  d E =-.227582E+00
 curvature:  -3.18 expect dE=-0.489E+00 dE for cont linesearch -0.314E-07
 trial: gam= 1.16127 g(F)=  0.149E+00 g(S)=  0.443E-02 ort =-0.512E-04 (trialstep = 0.106E+01)
 search vector abs. value=  0.513E+00
 bond charge predicted
       N       E                     dE             d eps       ncg     rms          rms(c)
DAV:   1    -0.482131270620E+03   -0.11072E+00   -0.31402E+01  1424   0.105E+01    0.107E+00
DAV:   2    -0.482206387461E+03   -0.75117E-01   -0.43298E-01  1576   0.174E+00    0.270E+00
DAV:   3    -0.482159193105E+03    0.47194E-01   -0.11251E-01  1528   0.939E-01    0.725E-01
DAV:   4    -0.482158733294E+03    0.45981E-03   -0.52840E-02  1552   0.396E-01    0.794E-01
DAV:   5    -0.482156621185E+03    0.21121E-02   -0.27344E-02  1560   0.373E-01    0.467E-01
DAV:   6    -0.482156284796E+03    0.33639E-03   -0.12078E-02  1584   0.284E-01    0.354E-01
DAV:   7    -0.482155183156E+03    0.11016E-02   -0.37281E-03  1576   0.185E-01    0.105E-01
DAV:   8    -0.482155188154E+03   -0.49982E-05   -0.35684E-04  1568   0.583E-02    0.490E-02
DAV:   9    -0.482155213523E+03   -0.25369E-04   -0.70603E-05  1552   0.235E-02    0.234E-02
DAV:  10    -0.482155226700E+03   -0.13177E-04   -0.12252E-05   928   0.983E-03    0.119E-02
DAV:  11    -0.482155241296E+03   -0.14596E-04   -0.48726E-06   952   0.587E-03    0.309E-03
DAV:  12    -0.482155249809E+03   -0.85132E-05   -0.12099E-06   960   0.288E-03
   8 F= -.48215525E+03 E0= -.48210770E+03  d E =-.134694E+00
 trial-energy change:   -0.134694  1 .order   -0.134965   -0.162348   -0.107581
 step:   3.3520(harm=  3.1365)  dis= 0.12795  next Energy=  -482.269111 (dE=-0.249E+00)
 bond charge predicted
       N       E                     dE             d eps       ncg     rms          rms(c)
DAV:   1    -0.482143139846E+03    0.12101E-01   -0.14983E+02  1424   0.229E+01    0.220E+00
DAV:   2    -0.482391008472E+03   -0.24787E+00   -0.20095E+00  1584   0.355E+00    0.426E+00
DAV:   3    -0.482292432127E+03    0.98576E-01   -0.48457E-01  1528   0.168E+00    0.169E+00
DAV:   4    -0.482276871923E+03    0.15560E-01   -0.17838E-01  1528   0.806E-01    0.133E+00
DAV:   5    -0.482272196222E+03    0.46757E-02   -0.84903E-02  1568   0.700E-01    0.903E-01
DAV:   6    -0.482272126616E+03    0.69605E-04   -0.60885E-02  1584   0.630E-01    0.756E-01
DAV:   7    -0.482266793049E+03    0.53336E-02   -0.18412E-02  1568   0.395E-01    0.205E-01
DAV:   8    -0.482266539948E+03    0.25310E-03   -0.16311E-03  1576   0.134E-01    0.891E-02
DAV:   9    -0.482266637541E+03   -0.97593E-04   -0.43052E-04  1568   0.595E-02    0.364E-02
DAV:  10    -0.482266686158E+03   -0.48617E-04   -0.60005E-05  1368   0.213E-02    0.176E-02
DAV:  11    -0.482266736607E+03   -0.50449E-04   -0.12273E-05  1008   0.109E-02    0.672E-03
DAV:  12    -0.482266769803E+03   -0.33196E-04   -0.43687E-06   968   0.565E-03    0.305E-03
DAV:  13    -0.482266802135E+03   -0.32332E-04   -0.28559E-06   968   0.350E-03    0.204E-03
DAV:  14    -0.482266833209E+03   -0.31074E-04   -0.28044E-06   992   0.282E-03    0.117E-03
DAV:  15    -0.482266852968E+03   -0.19759E-04   -0.20843E-06   976   0.204E-03    0.106E-03
DAV:  16    -0.482266864307E+03   -0.11339E-04   -0.13880E-06   992   0.167E-03    0.576E-04
DAV:  17    -0.482266868437E+03   -0.41298E-05   -0.71207E-07   976   0.118E-03
   9 F= -.48226687E+03 E0= -.48222243E+03  d E =-.246313E+00
 curvature:  -5.19 expect dE=-0.588E+00 dE for cont linesearch -0.734E-04
 trial: gam= 0.80459 g(F)=  0.113E+00 g(S)=  0.320E-03 ort =-0.269E-02 (trialstep = 0.152E+01)
 search vector abs. value=  0.441E+00
 bond charge predicted
       N       E                     dE             d eps       ncg     rms          rms(c)
DAV:   1    -0.482327591510E+03   -0.60727E-01   -0.53446E+01  1408   0.141E+01    0.127E+00
DAV:   2    -0.482389043721E+03   -0.61452E-01   -0.68103E-01  1592   0.204E+00    0.140E+00
DAV:   3    -0.482391267461E+03   -0.22237E-02   -0.10042E-01  1576   0.829E-01    0.130E+00
DAV:   4    -0.482378706789E+03    0.12561E-01   -0.65715E-02  1536   0.539E-01    0.647E-01
DAV:   5    -0.482377986360E+03    0.72043E-03   -0.22809E-02  1584   0.377E-01    0.430E-01
DAV:   6    -0.482377247344E+03    0.73902E-03   -0.17217E-02  1552   0.324E-01    0.352E-01
DAV:   7    -0.482376150382E+03    0.10970E-02   -0.59471E-03  1576   0.197E-01    0.934E-02
DAV:   8    -0.482376130086E+03    0.20296E-04   -0.38899E-04  1528   0.583E-02    0.456E-02
DAV:   9    -0.482376143494E+03   -0.13408E-04   -0.66273E-05  1440   0.232E-02    0.191E-02
DAV:  10    -0.482376158559E+03   -0.15065E-04   -0.17751E-05   992   0.119E-02    0.746E-03
DAV:  11    -0.482376172956E+03   -0.14397E-04   -0.47928E-06   944   0.640E-03    0.311E-03
DAV:  12    -0.482376183252E+03   -0.10296E-04   -0.14700E-06   952   0.334E-03    0.173E-03
DAV:  13    -0.482376192838E+03   -0.95861E-05   -0.87411E-07   928   0.199E-03
  10 F= -.48237619E+03 E0= -.48233368E+03  d E =-.109324E+00
 trial-energy change:   -0.109324  1 .order   -0.109880   -0.168814   -0.050946
 step:   2.2005(harm=  2.1725)  dis= 0.07957  next Energy=  -482.387624 (dE=-0.121E+00)
 bond charge predicted
       N       E                     dE             d eps       ncg     rms          rms(c)
DAV:   1    -0.482377551385E+03   -0.13681E-02   -0.10810E+01  1408   0.634E+00    0.561E-01
DAV:   2    -0.482389238170E+03   -0.11687E-01   -0.13549E-01  1584   0.906E-01    0.536E-01
DAV:   3    -0.482390577938E+03   -0.13398E-02   -0.19131E-02  1576   0.359E-01    0.622E-01
DAV:   4    -0.482387742155E+03    0.28358E-02   -0.13354E-02  1520   0.245E-01    0.286E-01
DAV:   5    -0.482387639485E+03    0.10267E-03   -0.44943E-03  1528   0.160E-01    0.180E-01
DAV:   6    -0.482387418737E+03    0.22075E-03   -0.30048E-03  1512   0.136E-01    0.129E-01
DAV:   7    -0.482387279978E+03    0.13876E-03   -0.98690E-04  1536   0.787E-02    0.373E-02
DAV:   8    -0.482387278693E+03    0.12851E-05   -0.72910E-05  1200   0.263E-02
  11 F= -.48238728E+03 E0= -.48234557E+03  d E =-.120410E+00
 curvature:  -4.30 expect dE=-0.212E+00 dE for cont linesearch -0.112E-04
 trial: gam= 0.45753 g(F)=  0.484E-01 g(S)=  0.101E-02 ort =-0.107E-02 (trialstep = 0.165E+01)
 search vector abs. value=  0.141E+00
 bond charge predicted
       N       E                     dE             d eps       ncg     rms          rms(c)
DAV:   1    -0.482427568762E+03   -0.40289E-01   -0.18924E+01  1408   0.906E+00    0.873E-01
DAV:   2    -0.482450018272E+03   -0.22450E-01   -0.30133E-01  1576   0.132E+00    0.105E+00
DAV:   3    -0.482449830993E+03    0.18728E-03   -0.90048E-02  1552   0.637E-01    0.103E+00
DAV:   4    -0.482442341051E+03    0.74899E-02   -0.21860E-02  1528   0.386E-01    0.316E-01
DAV:   5    -0.482441519900E+03    0.82115E-03   -0.33038E-03  1544   0.206E-01    0.222E-01
DAV:   6    -0.482441576884E+03   -0.56984E-04   -0.32843E-03  1600   0.158E-01    0.181E-01
DAV:   7    -0.482441256321E+03    0.32056E-03   -0.18835E-03  1560   0.104E-01    0.547E-02
DAV:   8    -0.482441248566E+03    0.77554E-05   -0.11941E-04  1512   0.323E-02    0.244E-02
DAV:   9    -0.482441259386E+03   -0.10820E-04   -0.25108E-05  1016   0.128E-02    0.859E-03
DAV:  10    -0.482441267957E+03   -0.85711E-05   -0.43085E-06   936   0.606E-03
  12 F= -.48244127E+03 E0= -.48240095E+03  d E =-.539893E-01
 trial-energy change:   -0.053989  1 .order   -0.053902   -0.080918   -0.026885
 step:   2.4764(harm=  2.4764)  dis= 0.04966  next Energy=  -482.447869 (dE=-0.606E-01)
 bond charge predicted
       N       E                     dE             d eps       ncg     rms          rms(c)
DAV:   1    -0.482444588500E+03   -0.33291E-02   -0.46824E+00  1408   0.450E+00    0.431E-01
DAV:   2    -0.482450282993E+03   -0.56945E-02   -0.74502E-02  1568   0.657E-01    0.549E-01
DAV:   3    -0.482449936398E+03    0.34660E-03   -0.22221E-02  1544   0.316E-01    0.490E-01
DAV:   4    -0.482448145176E+03    0.17912E-02   -0.53852E-03  1520   0.186E-01    0.144E-01
DAV:   5    -0.482448002243E+03    0.14293E-03   -0.85949E-04  1536   0.975E-02    0.103E-01
DAV:   6    -0.482447967155E+03    0.35089E-04   -0.27799E-04  1576   0.568E-02    0.473E-02
DAV:   7    -0.482447964985E+03    0.21697E-05   -0.24463E-04  1240   0.380E-02    0.367E-02
DAV:   8    -0.482447955704E+03    0.92804E-05   -0.54476E-05  1048   0.205E-02
  13 F= -.48244796E+03 E0= -.48240822E+03  d E =-.606770E-01
 curvature:  -3.56 expect dE=-0.133E+00 dE for cont linesearch -0.574E-08
 trial: gam= 0.77047 g(F)=  0.374E-01 g(S)=  0.957E-05 ort = 0.151E-04 (trialstep = 0.182E+01)
 search vector abs. value=  0.121E+00
 bond charge predicted
       N       E                     dE             d eps       ncg     rms          rms(c)
DAV:   1    -0.482485199019E+03   -0.37234E-01   -0.19353E+01  1408   0.943E+00    0.858E-01
DAV:   2    -0.482520725172E+03   -0.35526E-01   -0.32996E-01  1560   0.139E+00    0.154E+00
DAV:   3    -0.482505270078E+03    0.15455E-01   -0.10113E-01  1528   0.706E-01    0.678E-01
DAV:   4    -0.482501604232E+03    0.36658E-02   -0.14161E-02  1480   0.301E-01    0.307E-01
DAV:   5    -0.482501556989E+03    0.47242E-04   -0.82012E-03  1608   0.225E-01    0.272E-01
DAV:   6    -0.482501165256E+03    0.39173E-03   -0.44563E-03  1560   0.164E-01    0.156E-01
DAV:   7    -0.482500915481E+03    0.24977E-03   -0.55953E-04  1520   0.837E-02    0.479E-02
DAV:   8    -0.482500931576E+03   -0.16095E-04   -0.12462E-04  1496   0.306E-02    0.225E-02
DAV:   9    -0.482500945287E+03   -0.13711E-04   -0.16358E-05   992   0.134E-02    0.960E-03
DAV:  10    -0.482500958479E+03   -0.13192E-04   -0.63502E-06   960   0.675E-03    0.434E-03
DAV:  11    -0.482500967316E+03   -0.88377E-05   -0.16501E-06   976   0.369E-03
  14 F= -.48250097E+03 E0= -.48246202E+03  d E =-.530116E-01
 trial-energy change:   -0.053012  1 .order   -0.053057   -0.068011   -0.038103
 step:   4.1345(harm=  4.1345)  dis= 0.07614  next Energy=  -482.525285 (dE=-0.773E-01)
 bond charge predicted
       N       E                     dE             d eps       ncg     rms          rms(c)
DAV:   1    -0.482499768133E+03    0.11903E-02   -0.31453E+01  1408   0.120E+01    0.109E+00
DAV:   2    -0.482556747877E+03   -0.56980E-01   -0.53308E-01  1576   0.177E+00    0.189E+00
DAV:   3    -0.482531825007E+03    0.24923E-01   -0.15698E-01  1544   0.904E-01    0.822E-01
DAV:   4    -0.482526460105E+03    0.53649E-02   -0.23039E-02  1488   0.378E-01    0.395E-01
DAV:   5    -0.482526559016E+03   -0.98910E-04   -0.15242E-02  1592   0.290E-01    0.364E-01
DAV:   6    -0.482525609270E+03    0.94975E-03   -0.69513E-03  1576   0.214E-01    0.189E-01
DAV:   7    -0.482525294997E+03    0.31427E-03   -0.71253E-04  1512   0.990E-02    0.536E-02
DAV:   8    -0.482525318186E+03   -0.23190E-04   -0.17613E-04  1568   0.371E-02    0.278E-02
DAV:   9    -0.482525339042E+03   -0.20856E-04   -0.24474E-05  1064   0.160E-02    0.117E-02
DAV:  10    -0.482525361073E+03   -0.22031E-04   -0.87578E-06   992   0.823E-03    0.528E-03
DAV:  11    -0.482525375756E+03   -0.14683E-04   -0.22247E-06   976   0.437E-03    0.258E-03
DAV:  12    -0.482525389362E+03   -0.13606E-04   -0.13329E-06   976   0.247E-03    0.133E-03
DAV:  13    -0.482525402108E+03   -0.12746E-04   -0.11560E-06   960   0.176E-03    0.759E-04
DAV:  14    -0.482525410759E+03   -0.86510E-05   -0.79615E-07   992   0.134E-03
  15 F= -.48252541E+03 E0= -.48248734E+03  d E =-.774551E-01
 curvature:  -6.69 expect dE=-0.312E+00 dE for cont linesearch -0.934E-06
 trial: gam= 1.25526 g(F)=  0.456E-01 g(S)=  0.108E-02 ort = 0.130E-03 (trialstep = 0.116E+01)
 search vector abs. value=  0.238E+00
 bond charge predicted
       N       E                     dE             d eps       ncg     rms          rms(c)
DAV:   1    -0.482554694180E+03   -0.29292E-01   -0.15453E+01  1432   0.856E+00    0.618E-01
DAV:   2    -0.482572817045E+03   -0.18123E-01   -0.20595E-01  1576   0.114E+00    0.715E-01
DAV:   3    -0.482572281894E+03    0.53515E-03   -0.37931E-02  1584   0.451E-01    0.640E-01
DAV:   4    -0.482569267874E+03    0.30140E-02   -0.11258E-02  1560   0.256E-01    0.240E-01
DAV:   5    -0.482569368209E+03   -0.10034E-03   -0.46159E-03  1624   0.176E-01    0.213E-01
DAV:   6    -0.482569150154E+03    0.21806E-03   -0.28620E-03  1584   0.130E-01    0.120E-01
DAV:   7    -0.482569016151E+03    0.13400E-03   -0.38972E-04  1536   0.662E-02    0.334E-02
DAV:   8    -0.482569024653E+03   -0.85028E-05   -0.74155E-05  1320   0.244E-02
  16 F= -.48256902E+03 E0= -.48253159E+03  d E =-.436139E-01
 trial-energy change:   -0.043614  1 .order   -0.043514   -0.054448   -0.032580
 step:   2.7848(harm=  2.8915)  dis= 0.07099  next Energy=  -482.592071 (dE=-0.667E-01)
 bond charge predicted
       N       E                     dE             d eps       ncg     rms          rms(c)
DAV:   1    -0.482565071760E+03    0.39444E-02   -0.30246E+01  1432   0.120E+01    0.870E-01
DAV:   2    -0.482600774317E+03   -0.35703E-01   -0.40456E-01  1584   0.159E+00    0.987E-01
DAV:   3    -0.482599715867E+03    0.10584E-02   -0.75272E-02  1576   0.635E-01    0.891E-01
DAV:   4    -0.482593920261E+03    0.57956E-02   -0.23270E-02  1552   0.362E-01    0.346E-01
DAV:   5    -0.482594278806E+03   -0.35855E-03   -0.11236E-02  1584   0.258E-01    0.333E-01
DAV:   6    -0.482593517004E+03    0.76180E-03   -0.61681E-03  1536   0.194E-01    0.161E-01
DAV:   7    -0.482593307558E+03    0.20945E-03   -0.65800E-04  1528   0.903E-02    0.457E-02
DAV:   8    -0.482593325013E+03   -0.17455E-04   -0.15573E-04  1568   0.342E-02    0.244E-02
DAV:   9    -0.482593335450E+03   -0.10438E-04   -0.18861E-05  1008   0.143E-02    0.109E-02
DAV:  10    -0.482593348262E+03   -0.12812E-04   -0.82332E-06   944   0.776E-03    0.415E-03
DAV:  11    -0.482593354754E+03   -0.64919E-05   -0.17502E-06   984   0.407E-03
  17 F= -.48259335E+03 E0= -.48255676E+03  d E =-.679440E-01
 curvature:  -7.30 expect dE=-0.259E+00 dE for cont linesearch -0.102E-03
 trial: gam= 0.73392 g(F)=  0.351E-01 g(S)=  0.322E-03 ort = 0.182E-02 (trialstep = 0.149E+01)
 search vector abs. value=  0.166E+00
 bond charge predicted
       N       E                     dE             d eps       ncg     rms          rms(c)
DAV:   1    -0.482615600436E+03   -0.22252E-01   -0.17509E+01  1432   0.922E+00    0.612E-01
DAV:   2    -0.482634333975E+03   -0.18734E-01   -0.23067E-01  1584   0.122E+00    0.478E-01
DAV:   3    -0.482635365664E+03   -0.10317E-02   -0.29136E-02  1592   0.408E-01    0.575E-01
DAV:   4    -0.482633409661E+03    0.19560E-02   -0.15831E-02  1560   0.263E-01    0.308E-01
DAV:   5    -0.482633373779E+03    0.35882E-04   -0.26147E-03  1584   0.168E-01    0.257E-01
DAV:   6    -0.482632822544E+03    0.55124E-03   -0.24383E-03  1568   0.140E-01    0.979E-02
DAV:   7    -0.482632791014E+03    0.31530E-04   -0.64700E-04  1568   0.692E-02    0.346E-02
DAV:   8    -0.482632787706E+03    0.33079E-05   -0.10468E-04  1352   0.261E-02    0.185E-02
DAV:   9    -0.482632790760E+03   -0.30543E-05   -0.15243E-05   968   0.130E-02
  18 F= -.48263279E+03 E0= -.48259665E+03  d E =-.394360E-01
 trial-energy change:   -0.039436  1 .order   -0.039414   -0.054683   -0.024144
 step:   2.6609(harm=  2.6609)  dis= 0.05534  next Energy=  -482.642313 (dE=-0.490E-01)
 bond charge predicted
       N       E                     dE             d eps       ncg     rms          rms(c)
DAV:   1    -0.482631662472E+03    0.11252E-02   -0.10938E+01  1424   0.728E+00    0.481E-01
DAV:   2    -0.482643510911E+03   -0.11848E-01   -0.14487E-01  1576   0.962E-01    0.384E-01
DAV:   3    -0.482644219131E+03   -0.70822E-03   -0.19060E-02  1600   0.325E-01    0.467E-01
DAV:   4    -0.482642845008E+03    0.13741E-02   -0.98193E-03  1568   0.208E-01    0.233E-01
DAV:   5    -0.482642807569E+03    0.37439E-04   -0.15246E-03  1576   0.130E-01    0.190E-01
DAV:   6    -0.482642530381E+03    0.27719E-03   -0.14051E-03  1560   0.107E-01    0.801E-02
DAV:   7    -0.482642504590E+03    0.25791E-04   -0.41000E-04  1544   0.546E-02    0.269E-02
DAV:   8    -0.482642504966E+03   -0.37552E-06   -0.62162E-05  1200   0.206E-02
  19 F= -.48264250E+03 E0= -.48260664E+03  d E =-.491502E-01
 curvature:  -6.01 expect dE=-0.187E+00 dE for cont linesearch -0.154E-05
 trial: gam= 0.92792 g(F)=  0.311E-01 g(S)=  0.326E-04 ort = 0.207E-03 (trialstep = 0.164E+01)
 search vector abs. value=  0.175E+00
 bond charge predicted
       N       E                     dE             d eps       ncg     rms          rms(c)
DAV:   1    -0.482661363805E+03   -0.18859E-01   -0.22739E+01  1424   0.103E+01    0.696E-01
DAV:   2    -0.482688433098E+03   -0.27069E-01   -0.30764E-01  1544   0.136E+00    0.894E-01
DAV:   3    -0.482685986456E+03    0.24466E-02   -0.57553E-02  1592   0.531E-01    0.636E-01
DAV:   4    -0.482682977805E+03    0.30087E-02   -0.14397E-02  1576   0.279E-01    0.296E-01
DAV:   5    -0.482683146304E+03   -0.16850E-03   -0.79860E-03  1584   0.210E-01    0.264E-01
DAV:   6    -0.482682627370E+03    0.51893E-03   -0.42324E-03  1560   0.158E-01    0.121E-01
DAV:   7    -0.482682492244E+03    0.13513E-03   -0.46271E-04  1560   0.717E-02    0.355E-02
DAV:   8    -0.482682501329E+03   -0.90850E-05   -0.92479E-05  1416   0.242E-02
  20 F= -.48268250E+03 E0= -.48264754E+03  d E =-.399964E-01
 trial-energy change:   -0.039996  1 .order   -0.039808   -0.051289   -0.028326
 step:   3.4677(harm=  3.6588)  dis= 0.07496  next Energy=  -482.698584 (dE=-0.561E-01)
 bond charge predicted
       N       E                     dE             d eps       ncg     rms          rms(c)
DAV:   1    -0.482673509213E+03    0.89830E-02   -0.28388E+01  1424   0.115E+01    0.773E-01
DAV:   2    -0.482707440384E+03   -0.33931E-01   -0.38307E-01  1560   0.152E+00    0.993E-01
DAV:   3    -0.482704155181E+03    0.32852E-02   -0.72589E-02  1592   0.594E-01    0.690E-01
DAV:   4    -0.482700587960E+03    0.35672E-02   -0.17892E-02  1576   0.307E-01    0.328E-01
DAV:   5    -0.482700790801E+03   -0.20284E-03   -0.10006E-02  1568   0.230E-01    0.291E-01
DAV:   6    -0.482700155503E+03    0.63530E-03   -0.51300E-03  1560   0.172E-01    0.132E-01
DAV:   7    -0.482699998941E+03    0.15656E-03   -0.52801E-04  1552   0.770E-02    0.388E-02
DAV:   8    -0.482700014885E+03   -0.15943E-04   -0.10986E-04  1464   0.264E-02    0.217E-02
DAV:   9    -0.482700028957E+03   -0.14073E-04   -0.15406E-05  1024   0.116E-02    0.903E-03
DAV:  10    -0.482700046342E+03   -0.17385E-04   -0.62371E-06   952   0.661E-03    0.414E-03
DAV:  11    -0.482700056426E+03   -0.10084E-04   -0.17710E-06   976   0.353E-03    0.182E-03
DAV:  12    -0.482700068960E+03   -0.12534E-04   -0.11206E-06   944   0.209E-03    0.102E-03
DAV:  13    -0.482700080403E+03   -0.11443E-04   -0.12602E-06   984   0.149E-03    0.713E-04
DAV:  14    -0.482700089893E+03   -0.94899E-05   -0.79202E-07  1000   0.118E-03
  21 F= -.48270009E+03 E0= -.48266612E+03  d E =-.575849E-01
 curvature: -10.11 expect dE=-0.385E+00 dE for cont linesearch -0.203E-03
 trial: gam= 1.12252 g(F)=  0.376E-01 g(S)=  0.534E-03 ort = 0.187E-02 (trialstep = 0.133E+01)
 search vector abs. value=  0.262E+00
 bond charge predicted
       N       E                     dE             d eps       ncg     rms          rms(c)
DAV:   1    -0.482722566974E+03   -0.22487E-01   -0.22916E+01  1432   0.101E+01    0.777E-01
DAV:   2    -0.482754309553E+03   -0.31743E-01   -0.33952E-01  1560   0.142E+00    0.122E+00
DAV:   3    -0.482745417174E+03    0.88924E-02   -0.84301E-02  1576   0.627E-01    0.590E-01
DAV:   4    -0.482742903013E+03    0.25142E-02   -0.18956E-02  1552   0.297E-01    0.354E-01
DAV:   5    -0.482742605085E+03    0.29793E-03   -0.10866E-02  1552   0.224E-01    0.267E-01
DAV:   6    -0.482741972585E+03    0.63250E-03   -0.35329E-03  1584   0.156E-01    0.864E-02
DAV:   7    -0.482741933729E+03    0.38855E-04   -0.45896E-04  1544   0.699E-02    0.321E-02
DAV:   8    -0.482741941544E+03   -0.78144E-05   -0.66684E-05  1344   0.237E-02
  22 F= -.48274194E+03 E0= -.48270940E+03  d E =-.418517E-01
 trial-energy change:   -0.041852  1 .order   -0.041854   -0.053627   -0.030082
 step:   3.0381(harm=  3.0381)  dis= 0.08147  next Energy=  -482.761162 (dE=-0.611E-01)
 bond charge predicted
       N       E                     dE             d eps       ncg     rms          rms(c)
DAV:   1    -0.482729190075E+03    0.12744E-01   -0.37454E+01  1440   0.129E+01    0.978E-01
DAV:   2    -0.482779587988E+03   -0.50398E-01   -0.53733E-01  1560   0.181E+00    0.148E+00
DAV:   3    -0.482766389886E+03    0.13198E-01   -0.12804E-01  1568   0.788E-01    0.717E-01
DAV:   4    -0.482762672090E+03    0.37178E-02   -0.28744E-02  1560   0.365E-01    0.439E-01
DAV:   5    -0.482762354868E+03    0.31722E-03   -0.17133E-02  1560   0.283E-01    0.342E-01
DAV:   6    -0.482761279694E+03    0.10752E-02   -0.55684E-03  1552   0.196E-01    0.104E-01
DAV:   7    -0.482761251659E+03    0.28035E-04   -0.65518E-04  1552   0.850E-02    0.415E-02
DAV:   8    -0.482761270820E+03   -0.19161E-04   -0.10081E-04  1416   0.302E-02    0.256E-02
DAV:   9    -0.482761296825E+03   -0.26004E-04   -0.25467E-05  1048   0.142E-02    0.925E-03
DAV:  10    -0.482761320193E+03   -0.23369E-04   -0.62251E-06   952   0.681E-03    0.391E-03
DAV:  11    -0.482761334650E+03   -0.14457E-04   -0.21747E-06   976   0.359E-03    0.213E-03
DAV:  12    -0.482761356758E+03   -0.22108E-04   -0.21433E-06   992   0.282E-03    0.104E-03
DAV:  13    -0.482761372874E+03   -0.16116E-04   -0.13828E-06   952   0.202E-03    0.957E-04
DAV:  14    -0.482761383894E+03   -0.11020E-04   -0.13761E-06   992   0.157E-03    0.547E-04
DAV:  15    -0.482761390569E+03   -0.66751E-05   -0.71639E-07   960   0.113E-03
  23 F= -.48276139E+03 E0= -.48273045E+03  d E =-.613007E-01
 curvature:  -9.91 expect dE=-0.404E+00 dE for cont linesearch -0.328E-09
 trial: gam= 1.14967 g(F)=  0.397E-01 g(S)=  0.103E-02 ort =-0.295E-05 (trialstep = 0.113E+01)
 search vector abs. value=  0.387E+00
 bond charge predicted
       N       E                     dE             d eps       ncg     rms          rms(c)
DAV:   1    -0.482783052594E+03   -0.21669E-01   -0.25116E+01  1432   0.102E+01    0.895E-01
DAV:   2    -0.482828771075E+03   -0.45718E-01   -0.41535E-01  1512   0.153E+00    0.177E+00
DAV:   3    -0.482804329576E+03    0.24441E-01   -0.14027E-01  1528   0.811E-01    0.498E-01
DAV:   4    -0.482802770034E+03    0.15595E-02   -0.22950E-02  1544   0.298E-01    0.412E-01
DAV:   5    -0.482801804744E+03    0.96529E-03   -0.11454E-02  1544   0.232E-01    0.234E-01
DAV:   6    -0.482801378860E+03    0.42588E-03   -0.23851E-03  1568   0.135E-01    0.616E-02
DAV:   7    -0.482801402251E+03   -0.23390E-04   -0.30495E-04  1576   0.544E-02    0.384E-02
DAV:   8    -0.482801402294E+03   -0.43230E-07   -0.44128E-05  1144   0.221E-02
  24 F= -.48280140E+03 E0= -.48277126E+03  d E =-.400117E-01
 trial-energy change:   -0.040012  1 .order   -0.039936   -0.046219   -0.033653
 step:   4.1700(harm=  4.1700)  dis= 0.14066  next Energy=  -482.846389 (dE=-0.850E-01)
 bond charge predicted
       N       E                     dE             d eps       ncg     rms          rms(c)
DAV:   1    -0.482703349049E+03    0.98053E-01   -0.18289E+02  1440   0.275E+01    0.234E+00
DAV:   2    -0.482987016862E+03   -0.28367E+00   -0.26694E+00  1536   0.407E+00    0.385E+00
DAV:   3    -0.482862072570E+03    0.12494E+00   -0.74481E-01  1544   0.209E+00    0.116E+00
DAV:   4    -0.482853473692E+03    0.85989E-02   -0.10742E-01  1576   0.714E-01    0.985E-01
DAV:   5    -0.482849736361E+03    0.37373E-02   -0.68358E-02  1536   0.607E-01    0.646E-01
DAV:   6    -0.482846096325E+03    0.36400E-02   -0.18274E-02  1520   0.369E-01    0.155E-01
DAV:   7    -0.482846286726E+03   -0.19040E-03   -0.22443E-03  1552   0.145E-01    0.115E-01
DAV:   8    -0.482846263522E+03    0.23203E-04   -0.40405E-04  1576   0.645E-02    0.441E-02
DAV:   9    -0.482846339530E+03   -0.76008E-04   -0.10637E-04  1456   0.286E-02    0.201E-02
DAV:  10    -0.482846385812E+03   -0.46282E-04   -0.19109E-05  1128   0.123E-02    0.744E-03
DAV:  11    -0.482846430491E+03   -0.44679E-04   -0.58080E-06   976   0.630E-03    0.349E-03
DAV:  12    -0.482846465976E+03   -0.35485E-04   -0.28640E-06  1032   0.323E-03    0.194E-03
DAV:  13    -0.482846500112E+03   -0.34136E-04   -0.27682E-06   968   0.240E-03    0.135E-03
DAV:  14    -0.482846528193E+03   -0.28081E-04   -0.27994E-06  1008   0.192E-03    0.792E-04
DAV:  15    -0.482846544937E+03   -0.16744E-04   -0.23496E-06   960   0.169E-03    0.590E-04
DAV:  16    -0.482846549310E+03   -0.43730E-05   -0.62356E-07   984   0.112E-03
  25 F= -.48284655E+03 E0= -.48281770E+03  d E =-.851587E-01
 curvature: -19.82 expect dE=-0.112E+01 dE for cont linesearch -0.281E-04
 trial: gam= 1.18729 g(F)=  0.565E-01 g(S)=  0.935E-04 ort =-0.741E-03 (trialstep = 0.112E+01)
 search vector abs. value=  0.601E+00
 bond charge predicted
       N       E                     dE             d eps       ncg     rms          rms(c)
DAV:   1    -0.482865887231E+03   -0.19342E-01   -0.39087E+01  1440   0.123E+01    0.106E+00
DAV:   2    -0.482930672674E+03   -0.64785E-01   -0.58710E-01  1528   0.190E+00    0.199E+00
DAV:   3    -0.482898994352E+03    0.31678E-01   -0.16752E-01  1520   0.988E-01    0.533E-01
DAV:   4    -0.482896932540E+03    0.20618E-02   -0.22158E-02  1584   0.335E-01    0.443E-01
DAV:   5    -0.482896280126E+03    0.65241E-03   -0.13322E-02  1560   0.278E-01    0.295E-01
DAV:   6    -0.482895492397E+03    0.78773E-03   -0.38231E-03  1528   0.169E-01    0.667E-02
DAV:   7    -0.482895549782E+03   -0.57385E-04   -0.42746E-04  1584   0.564E-02    0.480E-02
DAV:   8    -0.482895542787E+03    0.69949E-05   -0.76555E-05  1312   0.238E-02
  26 F= -.48289554E+03 E0= -.48286679E+03  d E =-.489935E-01
 trial-energy change:   -0.048993  1 .order   -0.049055   -0.062549   -0.035560
 step:   2.6012(harm=  2.6012)  dis= 0.11339  next Energy=  -482.919032 (dE=-0.725E-01)
 bond charge predicted
       N       E                     dE             d eps       ncg     rms          rms(c)
DAV:   1    -0.482865808585E+03    0.29741E-01   -0.68054E+01  1456   0.162E+01    0.136E+00
DAV:   2    -0.482969966847E+03   -0.10416E+00   -0.96363E-01  1528   0.246E+00    0.238E+00
DAV:   3    -0.482924001515E+03    0.45965E-01   -0.23823E-01  1536   0.124E+00    0.677E-01
DAV:   4    -0.482920508201E+03    0.34933E-02   -0.30309E-02  1592   0.422E-01    0.548E-01
DAV:   5    -0.482919949186E+03    0.55902E-03   -0.20981E-02  1560   0.364E-01    0.394E-01
DAV:   6    -0.482918457700E+03    0.14915E-02   -0.69783E-03  1512   0.230E-01    0.865E-02
DAV:   7    -0.482918559008E+03   -0.10131E-03   -0.73409E-04  1592   0.753E-02    0.618E-02
DAV:   8    -0.482918558177E+03    0.83050E-06   -0.13046E-04  1496   0.314E-02    0.250E-02
DAV:   9    -0.482918594225E+03   -0.36048E-04   -0.30896E-05  1112   0.140E-02    0.109E-02
DAV:  10    -0.482918613437E+03   -0.19212E-04   -0.53449E-06   976   0.737E-03    0.408E-03
DAV:  11    -0.482918634009E+03   -0.20572E-04   -0.27879E-06   968   0.379E-03    0.188E-03
DAV:  12    -0.482918652990E+03   -0.18981E-04   -0.12068E-06   960   0.235E-03    0.118E-03
DAV:  13    -0.482918666142E+03   -0.13152E-04   -0.10252E-06   960   0.162E-03    0.825E-04
DAV:  14    -0.482918678027E+03   -0.11885E-04   -0.97163E-07   968   0.131E-03    0.532E-04
DAV:  15    -0.482918686446E+03   -0.84196E-05   -0.12023E-06  1008   0.121E-03
  27 F= -.48291869E+03 E0= -.48288993E+03  d E =-.721371E-01
 curvature: -14.03 expect dE=-0.692E+00 dE for cont linesearch -0.138E-04
 trial: gam= 0.75964 g(F)=  0.480E-01 g(S)=  0.132E-02 ort =-0.769E-03 (trialstep = 0.142E+01)
 search vector abs. value=  0.395E+00
 bond charge predicted
       N       E                     dE             d eps       ncg     rms          rms(c)
DAV:   1    -0.482937279820E+03   -0.18602E-01   -0.42289E+01  1456   0.124E+01    0.921E-01
DAV:   2    -0.482986348354E+03   -0.49069E-01   -0.52579E-01  1568   0.175E+00    0.132E+00
DAV:   3    -0.482974411600E+03    0.11937E-01   -0.83920E-02  1552   0.765E-01    0.548E-01
DAV:   4    -0.482971551197E+03    0.28604E-02   -0.11842E-02  1568   0.290E-01    0.342E-01
DAV:   5    -0.482971989428E+03   -0.43823E-03   -0.10245E-02  1576   0.261E-01    0.306E-01
DAV:   6    -0.482970931303E+03    0.10581E-02   -0.47363E-03  1568   0.190E-01    0.738E-02
DAV:   7    -0.482970953161E+03   -0.21858E-04   -0.37116E-04  1552   0.545E-02    0.435E-02
DAV:   8    -0.482970951175E+03    0.19854E-05   -0.66198E-05  1224   0.217E-02
  28 F= -.48297095E+03 E0= -.48294227E+03  d E =-.522647E-01
 trial-energy change:   -0.052265  1 .order   -0.052130   -0.069157   -0.035102
 step:   2.8139(harm=  2.8798)  dis= 0.10369  next Energy=  -482.988354 (dE=-0.697E-01)
 bond charge predicted
       N       E                     dE             d eps       ncg     rms          rms(c)
DAV:   1    -0.482955834581E+03    0.15119E-01   -0.40942E+01  1456   0.122E+01    0.882E-01
DAV:   2    -0.483001207556E+03   -0.45373E-01   -0.49384E-01  1592   0.169E+00    0.116E+00
DAV:   3    -0.482992179045E+03    0.90285E-02   -0.66061E-02  1560   0.705E-01    0.536E-01
DAV:   4    -0.482989407920E+03    0.27711E-02   -0.10016E-02  1560   0.281E-01    0.327E-01
DAV:   5    -0.482989607419E+03   -0.19950E-03   -0.85796E-03  1568   0.243E-01    0.260E-01
DAV:   6    -0.482988903455E+03    0.70396E-03   -0.38245E-03  1560   0.175E-01    0.753E-02
DAV:   7    -0.482988915299E+03   -0.11844E-04   -0.30265E-04  1536   0.523E-02    0.407E-02
DAV:   8    -0.482988925312E+03   -0.10013E-04   -0.60911E-05  1200   0.206E-02    0.170E-02
DAV:   9    -0.482988947431E+03   -0.22119E-04   -0.15531E-05  1016   0.100E-02    0.632E-03
DAV:  10    -0.482988960362E+03   -0.12931E-04   -0.27261E-06   968   0.476E-03    0.292E-03
DAV:  11    -0.482988973908E+03   -0.13546E-04   -0.14166E-06   928   0.274E-03    0.125E-03
DAV:  12    -0.482988987405E+03   -0.13497E-04   -0.11146E-06   960   0.205E-03    0.878E-04
DAV:  13    -0.482988997669E+03   -0.10264E-04   -0.94970E-07   968   0.146E-03    0.564E-04
DAV:  14    -0.482989004945E+03   -0.72764E-05   -0.84361E-07   968   0.122E-03
  29 F= -.48298900E+03 E0= -.48296033E+03  d E =-.703185E-01
 curvature: -11.64 expect dE=-0.545E+00 dE for cont linesearch -0.164E-04
 trial: gam= 0.86926 g(F)=  0.465E-01 g(S)=  0.307E-03 ort = 0.747E-03 (trialstep = 0.170E+01)
 search vector abs. value=  0.347E+00
 bond charge predicted
       N       E                     dE             d eps       ncg     rms          rms(c)
DAV:   1    -0.483009502087E+03   -0.20504E-01   -0.54126E+01  1456   0.136E+01    0.105E+00
DAV:   2    -0.483071346687E+03   -0.61845E-01   -0.64875E-01  1568   0.194E+00    0.146E+00
DAV:   3    -0.483054935004E+03    0.16412E-01   -0.91653E-02  1544   0.865E-01    0.584E-01
DAV:   4    -0.483051420536E+03    0.35145E-02   -0.11554E-02  1560   0.300E-01    0.352E-01
DAV:   5    -0.483051712451E+03   -0.29191E-03   -0.10897E-02  1544   0.279E-01    0.304E-01
DAV:   6    -0.483050703524E+03    0.10089E-02   -0.50540E-03  1544   0.206E-01    0.791E-02
DAV:   7    -0.483050703908E+03   -0.38417E-06   -0.38647E-04  1544   0.587E-02    0.452E-02
DAV:   8    -0.483050711873E+03   -0.79652E-05   -0.84820E-05  1392   0.232E-02
  30 F= -.48305071E+03 E0= -.48302209E+03  d E =-.617069E-01
 trial-energy change:   -0.061707  1 .order   -0.061501   -0.080518   -0.042483
 step:   3.4746(harm=  3.5930)  dis= 0.12427  next Energy=  -483.073192 (dE=-0.842E-01)
 bond charge predicted
       N       E                     dE             d eps       ncg     rms          rms(c)
DAV:   1    -0.483029285627E+03    0.21418E-01   -0.59363E+01  1432   0.143E+01    0.107E+00
DAV:   2    -0.483094983719E+03   -0.65698E-01   -0.69724E-01  1576   0.201E+00    0.141E+00
DAV:   3    -0.483080039860E+03    0.14944E-01   -0.84039E-02  1560   0.859E-01    0.615E-01
DAV:   4    -0.483076082554E+03    0.39573E-02   -0.11135E-02  1536   0.308E-01    0.358E-01
DAV:   5    -0.483075868814E+03    0.21374E-03   -0.97965E-03  1560   0.262E-01    0.239E-01
DAV:   6    -0.483075397235E+03    0.47158E-03   -0.38920E-03  1560   0.188E-01    0.925E-02
DAV:   7    -0.483075372800E+03    0.24435E-04   -0.35578E-04  1544   0.645E-02    0.463E-02
DAV:   8    -0.483075404246E+03   -0.31446E-04   -0.93384E-05  1496   0.242E-02    0.208E-02
DAV:   9    -0.483075447659E+03   -0.43413E-04   -0.18071E-05  1048   0.112E-02    0.716E-03
DAV:  10    -0.483075477293E+03   -0.29634E-04   -0.40433E-06   976   0.564E-03    0.345E-03
DAV:  11    -0.483075501442E+03   -0.24149E-04   -0.19775E-06   952   0.309E-03    0.181E-03
DAV:  12    -0.483075531269E+03   -0.29827E-04   -0.23350E-06  1000   0.251E-03    0.114E-03
DAV:  13    -0.483075553291E+03   -0.22022E-04   -0.20906E-06   976   0.209E-03    0.863E-04
DAV:  14    -0.483075565623E+03   -0.12332E-04   -0.13866E-06   992   0.167E-03    0.465E-04
DAV:  15    -0.483075570767E+03   -0.51434E-05   -0.82134E-07   976   0.120E-03
  31 F= -.48307557E+03 E0= -.48304696E+03  d E =-.865658E-01
 curvature: -13.07 expect dE=-0.609E+00 dE for cont linesearch -0.197E-03
 trial: gam= 0.94322 g(F)=  0.460E-01 g(S)=  0.612E-03 ort = 0.228E-02 (trialstep = 0.198E+01)
 search vector abs. value=  0.359E+00
 bond charge predicted
       N       E                     dE             d eps       ncg     rms          rms(c)
DAV:   1    -0.483086566909E+03   -0.11001E-01   -0.76732E+01  1424   0.163E+01    0.127E+00
DAV:   2    -0.483176345835E+03   -0.89779E-01   -0.89751E-01  1584   0.234E+00    0.180E+00
DAV:   3    -0.483148711996E+03    0.27634E-01   -0.11590E-01  1520   0.104E+00    0.663E-01
DAV:   4    -0.483144083576E+03    0.46284E-02   -0.14106E-02  1576   0.344E-01    0.383E-01
DAV:   5    -0.483143950330E+03    0.13325E-03   -0.11391E-02  1568   0.298E-01    0.254E-01
DAV:   6    -0.483143396914E+03    0.55342E-03   -0.41563E-03  1560   0.204E-01    0.935E-02
DAV:   7    -0.483143358754E+03    0.38160E-04   -0.38709E-04  1592   0.727E-02    0.505E-02
DAV:   8    -0.483143362033E+03   -0.32791E-05   -0.12340E-04  1560   0.294E-02    0.232E-02
DAV:   9    -0.483143378061E+03   -0.16028E-04   -0.19286E-05  1048   0.120E-02    0.104E-02
DAV:  10    -0.483143390470E+03   -0.12409E-04   -0.49994E-06   936   0.706E-03    0.374E-03
DAV:  11    -0.483143399452E+03   -0.89819E-05   -0.16310E-06   952   0.354E-03
  32 F= -.48314340E+03 E0= -.48311471E+03  d E =-.678287E-01
 trial-energy change:   -0.067829  1 .order   -0.067754   -0.096555   -0.038953
 step:   3.3194(harm=  3.3194)  dis= 0.12356  next Energy=  -483.156496 (dE=-0.809E-01)
 bond charge predicted
       N       E                     dE             d eps       ncg     rms          rms(c)
DAV:   1    -0.483130440086E+03    0.12950E-01   -0.34875E+01  1416   0.110E+01    0.833E-01
DAV:   2    -0.483169980646E+03   -0.39541E-01   -0.39837E-01  1584   0.156E+00    0.117E+00
DAV:   3    -0.483158851924E+03    0.11129E-01   -0.46088E-02  1528   0.669E-01    0.459E-01
DAV:   4    -0.483156673690E+03    0.21782E-02   -0.61658E-03  1560   0.232E-01    0.259E-01
DAV:   5    -0.483156484528E+03    0.18916E-03   -0.48794E-03  1552   0.183E-01    0.134E-01
DAV:   6    -0.483156383257E+03    0.10127E-03   -0.13936E-03  1552   0.120E-01    0.648E-02
DAV:   7    -0.483156363822E+03    0.19435E-04   -0.16446E-04  1400   0.481E-02    0.339E-02
DAV:   8    -0.483156370519E+03   -0.66964E-05   -0.52642E-05  1264   0.188E-02
  33 F= -.48315637E+03 E0= -.48312759E+03  d E =-.807998E-01
 curvature: -12.23 expect dE=-0.483E+00 dE for cont linesearch -0.150E-04
 trial: gam= 0.88349 g(F)=  0.382E-01 g(S)=  0.130E-02 ort =-0.665E-03 (trialstep = 0.225E+01)
 search vector abs. value=  0.319E+00
 bond charge predicted
       N       E                     dE             d eps       ncg     rms          rms(c)
DAV:   1    -0.483133529824E+03    0.22834E-01   -0.87419E+01  1424   0.177E+01    0.114E+00
DAV:   2    -0.483214160248E+03   -0.80630E-01   -0.93290E-01  1600   0.233E+00    0.876E-01
DAV:   3    -0.483212641091E+03    0.15192E-02   -0.54186E-02  1584   0.713E-01    0.799E-01
DAV:   4    -0.483207733539E+03    0.49076E-02   -0.14797E-02  1576   0.411E-01    0.455E-01
DAV:   5    -0.483206797225E+03    0.93631E-03   -0.81193E-03  1544   0.263E-01    0.228E-01
DAV:   6    -0.483206781482E+03    0.15743E-04   -0.41821E-03  1560   0.213E-01    0.154E-01
DAV:   7    -0.483206553615E+03    0.22787E-03   -0.10552E-03  1544   0.112E-01    0.537E-02
DAV:   8    -0.483206556114E+03   -0.24987E-05   -0.13734E-04  1616   0.319E-02    0.268E-02
DAV:   9    -0.483206577749E+03   -0.21635E-04   -0.37453E-05  1152   0.145E-02    0.991E-03
DAV:  10    -0.483206594569E+03   -0.16819E-04   -0.51057E-06   968   0.709E-03    0.484E-03
DAV:  11    -0.483206608671E+03   -0.14102E-04   -0.16637E-06   936   0.327E-03    0.218E-03
DAV:  12    -0.483206622377E+03   -0.13706E-04   -0.12075E-06   928   0.233E-03    0.101E-03
DAV:  13    -0.483206632673E+03   -0.10296E-04   -0.78715E-07   936   0.162E-03    0.769E-04
DAV:  14    -0.483206640841E+03   -0.81676E-05   -0.73608E-07   920   0.129E-03
  34 F= -.48320664E+03 E0= -.48317761E+03  d E =-.502703E-01
 trial-energy change:   -0.050270  1 .order   -0.049849   -0.087456   -0.012241
 step:   2.6002(harm=  2.6140)  dis= 0.09365  next Energy=  -483.207601 (dE=-0.512E-01)
 bond charge predicted
       N       E                     dE             d eps       ncg     rms          rms(c)
DAV:   1    -0.483205906670E+03    0.72600E-03   -0.21154E+00  1416   0.276E+00    0.171E-01
DAV:   2    -0.483207771064E+03   -0.18644E-02   -0.21968E-02  1600   0.359E-01    0.123E-01
DAV:   3    -0.483207731292E+03    0.39772E-04   -0.10333E-03  1608   0.952E-02    0.109E-01
DAV:   4    -0.483207665144E+03    0.66148E-04   -0.36001E-04  1576   0.638E-02    0.772E-02
DAV:   5    -0.483207634368E+03    0.30776E-04   -0.18607E-04  1504   0.406E-02    0.298E-02
DAV:   6    -0.483207639884E+03   -0.55156E-05   -0.83626E-05  1152   0.305E-02
  35 F= -.48320764E+03 E0= -.48317856E+03  d E =-.512694E-01
 curvature: -10.69 expect dE=-0.275E+00 dE for cont linesearch -0.112E-05
 trial: gam= 0.58992 g(F)=  0.250E-01 g(S)=  0.723E-03 ort = 0.182E-03 (trialstep = 0.232E+01)
 search vector abs. value=  0.137E+00
 bond charge predicted
       N       E                     dE             d eps       ncg     rms          rms(c)
DAV:   1    -0.483216076921E+03   -0.84426E-02   -0.38842E+01  1440   0.123E+01    0.777E-01
DAV:   2    -0.483251886019E+03   -0.35809E-01   -0.40178E-01  1592   0.161E+00    0.755E-01
DAV:   3    -0.483249498435E+03    0.23876E-02   -0.28222E-02  1544   0.543E-01    0.522E-01
DAV:   4    -0.483247259440E+03    0.22390E-02   -0.63896E-03  1568   0.277E-01    0.329E-01
DAV:   5    -0.483247432987E+03   -0.17355E-03   -0.61476E-03  1576   0.255E-01    0.270E-01
DAV:   6    -0.483246795932E+03    0.63706E-03   -0.38330E-03  1528   0.195E-01    0.711E-02
DAV:   7    -0.483246793750E+03    0.21822E-05   -0.34532E-04  1600   0.567E-02    0.345E-02
DAV:   8    -0.483246793124E+03    0.62506E-06   -0.60170E-05  1328   0.235E-02
  36 F= -.48324679E+03 E0= -.48321759E+03  d E =-.391532E-01
 trial-energy change:   -0.039153  1 .order   -0.039268   -0.059968   -0.018568
 step:   3.3843(harm=  3.3584)  dis= 0.08097  next Energy=  -483.251049 (dE=-0.434E-01)
 bond charge predicted
       N       E                     dE             d eps       ncg     rms          rms(c)
DAV:   1    -0.483244831968E+03    0.19618E-02   -0.81584E+00  1440   0.563E+00    0.355E-01
DAV:   2    -0.483252320839E+03   -0.74889E-02   -0.83603E-02  1600   0.739E-01    0.361E-01
DAV:   3    -0.483251718009E+03    0.60283E-03   -0.60939E-03  1552   0.254E-01    0.241E-01
DAV:   4    -0.483251253031E+03    0.46498E-03   -0.13658E-03  1568   0.127E-01    0.149E-01
DAV:   5    -0.483251312244E+03   -0.59213E-04   -0.13755E-03  1576   0.120E-01    0.125E-01
DAV:   6    -0.483251177714E+03    0.13453E-03   -0.81184E-04  1544   0.899E-02    0.307E-02
DAV:   7    -0.483251182454E+03   -0.47394E-05   -0.66193E-05  1240   0.248E-02
  37 F= -.48325118E+03 E0= -.48322191E+03  d E =-.435426E-01
 curvature:  -8.88 expect dE=-0.217E+00 dE for cont linesearch -0.567E-06
 trial: gam= 0.95463 g(F)=  0.237E-01 g(S)=  0.730E-03 ort = 0.935E-04 (trialstep = 0.232E+01)
 search vector abs. value=  0.149E+00
 bond charge predicted
       N       E                     dE             d eps       ncg     rms          rms(c)
DAV:   1    -0.483254651663E+03   -0.34739E-02   -0.41463E+01  1424   0.128E+01    0.766E-01
DAV:   2    -0.483289972411E+03   -0.35321E-01   -0.41229E-01  1608   0.161E+00    0.564E-01
DAV:   3    -0.483289365062E+03    0.60735E-03   -0.21305E-02  1560   0.472E-01    0.453E-01
DAV:   4    -0.483288022505E+03    0.13426E-02   -0.57244E-03  1536   0.277E-01    0.333E-01
DAV:   5    -0.483288265801E+03   -0.24330E-03   -0.48362E-03  1600   0.227E-01    0.298E-01
DAV:   6    -0.483287587836E+03    0.67796E-03   -0.35640E-03  1544   0.192E-01    0.816E-02
DAV:   7    -0.483287586679E+03    0.11575E-05   -0.37765E-04  1544   0.589E-02    0.332E-02
DAV:   8    -0.483287586827E+03   -0.14836E-06   -0.62383E-05  1464   0.240E-02
  38 F= -.48328759E+03 E0= -.48325785E+03  d E =-.364044E-01
 trial-energy change:   -0.036404  1 .order   -0.036325   -0.056858   -0.015792
 step:   3.2130(harm=  3.2130)  dis= 0.08044  next Energy=  -483.290544 (dE=-0.394E-01)
 bond charge predicted
       N       E                     dE             d eps       ncg     rms          rms(c)
DAV:   1    -0.483285922791E+03    0.16639E-02   -0.60899E+00  1432   0.492E+00    0.292E-01
DAV:   2    -0.483291027121E+03   -0.51043E-02   -0.59844E-02  1608   0.615E-01    0.217E-01
DAV:   3    -0.483290961833E+03    0.65289E-04   -0.30826E-03  1568   0.180E-01    0.181E-01
DAV:   4    -0.483290759584E+03    0.20225E-03   -0.84445E-04  1536   0.106E-01    0.131E-01
DAV:   5    -0.483290806596E+03   -0.47012E-04   -0.77486E-04  1600   0.902E-02    0.114E-01
DAV:   6    -0.483290710207E+03    0.96389E-04   -0.55198E-04  1544   0.750E-02    0.302E-02
DAV:   7    -0.483290714643E+03   -0.44361E-05   -0.54082E-05  1168   0.224E-02
  39 F= -.48329071E+03 E0= -.48326077E+03  d E =-.395322E-01
 curvature:  -9.79 expect dE=-0.219E+00 dE for cont linesearch -0.176E-07
 trial: gam= 0.90317 g(F)=  0.220E-01 g(S)=  0.370E-03 ort = 0.164E-04 (trialstep = 0.250E+01)
 search vector abs. value=  0.144E+00
 bond charge predicted
       N       E                     dE             d eps       ncg     rms          rms(c)
DAV:   1    -0.483288804390E+03    0.19058E-02   -0.45923E+01  1424   0.136E+01    0.893E-01
DAV:   2    -0.483329298071E+03   -0.40494E-01   -0.46720E-01  1608   0.175E+00    0.804E-01
DAV:   3    -0.483327664658E+03    0.16334E-02   -0.38968E-02  1592   0.637E-01    0.671E-01
DAV:   4    -0.483323976500E+03    0.36882E-02   -0.85995E-03  1616   0.330E-01    0.295E-01
DAV:   5    -0.483323924465E+03    0.52036E-04   -0.33396E-03  1552   0.191E-01    0.164E-01
DAV:   6    -0.483323946817E+03   -0.22353E-04   -0.21358E-03  1544   0.152E-01    0.115E-01
DAV:   7    -0.483323821617E+03    0.12520E-03   -0.59352E-04  1568   0.800E-02    0.348E-02
DAV:   8    -0.483323832241E+03   -0.10624E-04   -0.56863E-05  1232   0.212E-02    0.172E-02
DAV:   9    -0.483323850084E+03   -0.17843E-04   -0.15455E-05   960   0.110E-02    0.577E-03
DAV:  10    -0.483323862606E+03   -0.12522E-04   -0.30579E-06   936   0.548E-03    0.325E-03
DAV:  11    -0.483323874584E+03   -0.11978E-04   -0.15109E-06   912   0.306E-03    0.144E-03
DAV:  12    -0.483323885425E+03   -0.10841E-04   -0.10484E-06   928   0.197E-03    0.946E-04
DAV:  13    -0.483323891597E+03   -0.61716E-05   -0.60567E-07   936   0.132E-03
  40 F= -.48332389E+03 E0= -.48329438E+03  d E =-.331770E-01
 trial-energy change:   -0.033177  1 .order   -0.033114   -0.055830   -0.010399
 step:   3.0711(harm=  3.0711)  dis= 0.07446  next Energy=  -483.325019 (dE=-0.343E-01)
 bond charge predicted
       N       E                     dE             d eps       ncg     rms          rms(c)
DAV:   1    -0.483323266050E+03    0.61937E-03   -0.23863E+00  1424   0.311E+00    0.201E-01
DAV:   2    -0.483325317352E+03   -0.20513E-02   -0.23847E-02  1608   0.399E-01    0.190E-01
DAV:   3    -0.483325211647E+03    0.10571E-03   -0.20316E-03  1584   0.145E-01    0.151E-01
DAV:   4    -0.483325029434E+03    0.18221E-03   -0.43258E-04  1624   0.744E-02    0.662E-02
DAV:   5    -0.483325035114E+03   -0.56800E-05   -0.19039E-04  1544   0.428E-02    0.339E-02
DAV:   6    -0.483325037020E+03   -0.19061E-05   -0.98155E-05  1232   0.329E-02
  41 F= -.48332504E+03 E0= -.48329563E+03  d E =-.343224E-01
 curvature:  -9.91 expect dE=-0.198E+00 dE for cont linesearch -0.125E-05
 trial: gam= 0.90653 g(F)=  0.194E-01 g(S)=  0.522E-03 ort =-0.135E-03 (trialstep = 0.261E+01)
 search vector abs. value=  0.138E+00
 bond charge predicted
       N       E                     dE             d eps       ncg     rms          rms(c)
DAV:   1    -0.483319994485E+03    0.50406E-02   -0.48346E+01  1424   0.140E+01    0.836E-01
DAV:   2    -0.483360325126E+03   -0.40331E-01   -0.47916E-01  1600   0.173E+00    0.591E-01
DAV:   3    -0.483360696088E+03   -0.37096E-03   -0.23718E-02  1576   0.494E-01    0.543E-01
DAV:   4    -0.483358864021E+03    0.18321E-02   -0.67844E-03  1544   0.293E-01    0.364E-01
DAV:   5    -0.483358793806E+03    0.70214E-04   -0.41187E-03  1560   0.213E-01    0.232E-01
DAV:   6    -0.483358635053E+03    0.15875E-03   -0.36883E-03  1544   0.191E-01    0.126E-01
DAV:   7    -0.483358544483E+03    0.90570E-04   -0.70456E-04  1576   0.866E-02    0.323E-02
DAV:   8    -0.483358546783E+03   -0.22991E-05   -0.66118E-05  1392   0.240E-02
  42 F= -.48335855E+03 E0= -.48332902E+03  d E =-.335098E-01
 trial-energy change:   -0.033510  1 .order   -0.033603   -0.051832   -0.015375
 step:   3.7404(harm=  3.7156)  dis= 0.08676  next Energy=  -483.361854 (dE=-0.368E-01)
 bond charge predicted
       N       E                     dE             d eps       ncg     rms          rms(c)
DAV:   1    -0.483354973660E+03    0.35708E-02   -0.89180E+00  1424   0.602E+00    0.354E-01
DAV:   2    -0.483362242329E+03   -0.72687E-02   -0.87066E-02  1600   0.739E-01    0.248E-01
DAV:   3    -0.483362306732E+03   -0.64402E-04   -0.42302E-03  1568   0.208E-01    0.228E-01
DAV:   4    -0.483362018025E+03    0.28871E-03   -0.12215E-03  1544   0.124E-01    0.157E-01
DAV:   5    -0.483362028289E+03   -0.10264E-04   -0.79098E-04  1552   0.935E-02    0.104E-01
DAV:   6    -0.483361997529E+03    0.30760E-04   -0.69395E-04  1520   0.829E-02    0.516E-02
DAV:   7    -0.483361989150E+03    0.83791E-05   -0.11965E-04  1208   0.356E-02    0.134E-02
DAV:   8    -0.483361994356E+03   -0.52056E-05   -0.12390E-05   984   0.107E-02
  43 F= -.48336199E+03 E0= -.48333241E+03  d E =-.369573E-01
 curvature: -12.94 expect dE=-0.263E+00 dE for cont linesearch -0.257E-06
 trial: gam= 0.99621 g(F)=  0.203E-01 g(S)=  0.402E-04 ort = 0.524E-04 (trialstep = 0.249E+01)
 search vector abs. value=  0.158E+00
 bond charge predicted
       N       E                     dE             d eps       ncg     rms          rms(c)
DAV:   1    -0.483349103596E+03    0.12886E-01   -0.50218E+01  1424   0.145E+01    0.865E-01
DAV:   2    -0.483392051992E+03   -0.42948E-01   -0.51143E-01  1584   0.179E+00    0.560E-01
DAV:   3    -0.483391166796E+03    0.88520E-03   -0.23927E-02  1600   0.485E-01    0.430E-01
DAV:   4    -0.483390555900E+03    0.61090E-03   -0.77925E-03  1560   0.302E-01    0.341E-01
DAV:   5    -0.483390385162E+03    0.17074E-03   -0.32326E-03  1552   0.197E-01    0.238E-01
DAV:   6    -0.483390239901E+03    0.14526E-03   -0.26848E-03  1552   0.172E-01    0.161E-01
DAV:   7    -0.483390072836E+03    0.16706E-03   -0.76103E-04  1592   0.903E-02    0.313E-02
DAV:   8    -0.483390076770E+03   -0.39340E-05   -0.73868E-05  1424   0.250E-02
  44 F= -.48339008E+03 E0= -.48336078E+03  d E =-.280824E-01
 trial-energy change:   -0.028082  1 .order   -0.028052   -0.050759   -0.005345
 step:   2.7824(harm=  2.7824)  dis= 0.06646  next Energy=  -483.390361 (dE=-0.284E-01)
 bond charge predicted
       N       E                     dE             d eps       ncg     rms          rms(c)
DAV:   1    -0.483389850221E+03    0.22262E-03   -0.68944E-01  1424   0.170E+00    0.100E-01
DAV:   2    -0.483390442163E+03   -0.59194E-03   -0.69797E-03  1608   0.210E-01    0.664E-02
DAV:   3    -0.483390440193E+03    0.19697E-05   -0.33101E-04  1608   0.573E-02    0.537E-02
DAV:   4    -0.483390434485E+03    0.57083E-05   -0.99049E-05  1216   0.350E-02
  45 F= -.48339043E+03 E0= -.48336114E+03  d E =-.284401E-01
 curvature: -10.75 expect dE=-0.164E+00 dE for cont linesearch -0.704E-06
 trial: gam= 0.75339 g(F)=  0.149E-01 g(S)=  0.336E-03 ort = 0.102E-03 (trialstep = 0.255E+01)
 search vector abs. value=  0.105E+00
 bond charge predicted
       N       E                     dE             d eps       ncg     rms          rms(c)
DAV:   1    -0.483385025753E+03    0.54144E-02   -0.34126E+01  1416   0.120E+01    0.771E-01
DAV:   2    -0.483414741375E+03   -0.29716E-01   -0.36087E-01  1592   0.152E+00    0.547E-01
DAV:   3    -0.483415208569E+03   -0.46719E-03   -0.20329E-02  1640   0.459E-01    0.575E-01
DAV:   4    -0.483412779770E+03    0.24288E-02   -0.66426E-03  1568   0.282E-01    0.281E-01
DAV:   5    -0.483412591712E+03    0.18806E-03   -0.25354E-03  1568   0.156E-01    0.123E-01
DAV:   6    -0.483412737566E+03   -0.14585E-03   -0.13544E-03  1600   0.118E-01    0.955E-02
DAV:   7    -0.483412638144E+03    0.99422E-04   -0.51746E-04  1432   0.741E-02    0.331E-02
DAV:   8    -0.483412641761E+03   -0.36174E-05   -0.47327E-05  1168   0.203E-02
  46 F= -.48341264E+03 E0= -.48338344E+03  d E =-.222073E-01
 trial-energy change:   -0.022207  1 .order   -0.022312   -0.039065   -0.005558
 step:   2.9802(harm=  2.9707)  dis= 0.05521  next Energy=  -483.413113 (dE=-0.227E-01)
 bond charge predicted
       N       E                     dE             d eps       ncg     rms          rms(c)
DAV:   1    -0.483412356524E+03    0.28162E-03   -0.97741E-01  1424   0.204E+00    0.130E-01
DAV:   2    -0.483413229235E+03   -0.87271E-03   -0.10422E-02  1624   0.260E-01    0.104E-01
DAV:   3    -0.483413235306E+03   -0.60712E-05   -0.68869E-04  1624   0.854E-02    0.102E-01
DAV:   4    -0.483413156498E+03    0.78809E-04   -0.18930E-04  1528   0.482E-02    0.463E-02
DAV:   5    -0.483413161771E+03   -0.52732E-05   -0.74838E-05  1432   0.249E-02
  47 F= -.48341316E+03 E0= -.48338395E+03  d E =-.227273E-01
 curvature: -10.15 expect dE=-0.138E+00 dE for cont linesearch -0.104E-07
 trial: gam= 0.89449 g(F)=  0.135E-01 g(S)=  0.151E-03 ort = 0.104E-04 (trialstep = 0.263E+01)
 search vector abs. value=  0.975E-01
 bond charge predicted
       N       E                     dE             d eps       ncg     rms          rms(c)
DAV:   1    -0.483405707549E+03    0.74489E-02   -0.33589E+01  1416   0.122E+01    0.742E-01
DAV:   2    -0.483435928175E+03   -0.30221E-01   -0.36638E-01  1592   0.152E+00    0.485E-01
DAV:   3    -0.483434956619E+03    0.97156E-03   -0.13976E-02  1648   0.344E-01    0.347E-01
DAV:   4    -0.483435674040E+03   -0.71742E-03   -0.53123E-03  1568   0.252E-01    0.407E-01
DAV:   5    -0.483434422867E+03    0.12512E-02   -0.33258E-03  1528   0.198E-01    0.120E-01
DAV:   6    -0.483434561261E+03   -0.13839E-03   -0.12580E-03  1560   0.111E-01    0.942E-02
DAV:   7    -0.483434474322E+03    0.86939E-04   -0.46169E-04  1520   0.690E-02    0.318E-02
DAV:   8    -0.483434476666E+03   -0.23436E-05   -0.40637E-05  1168   0.202E-02
  48 F= -.48343448E+03 E0= -.48340564E+03  d E =-.213149E-01
 trial-energy change:   -0.021315  1 .order   -0.021143   -0.035888   -0.006397
 step:   3.1827(harm=  3.2059)  dis= 0.05421  next Energy=  -483.435144 (dE=-0.220E-01)
 bond charge predicted
       N       E                     dE             d eps       ncg     rms          rms(c)
DAV:   1    -0.483433990276E+03    0.48405E-03   -0.14495E+00  1416   0.254E+00    0.153E-01
DAV:   2    -0.483435291630E+03   -0.13014E-02   -0.15819E-02  1600   0.316E-01    0.101E-01
DAV:   3    -0.483435250740E+03    0.40890E-04   -0.60537E-04  1672   0.714E-02    0.728E-02
DAV:   4    -0.483435289461E+03   -0.38721E-04   -0.23829E-04  1584   0.528E-02    0.848E-02
DAV:   5    -0.483435239190E+03    0.50271E-04   -0.14687E-04  1328   0.418E-02    0.235E-02
DAV:   6    -0.483435251075E+03   -0.11885E-04   -0.46717E-05  1176   0.217E-02    0.172E-02
DAV:   7    -0.483435250423E+03    0.65180E-06   -0.17347E-05  1040   0.138E-02
  49 F= -.48343525E+03 E0= -.48340648E+03  d E =-.220887E-01
 curvature: -11.46 expect dE=-0.124E+00 dE for cont linesearch -0.303E-05
 trial: gam= 0.79713 g(F)=  0.104E-01 g(S)=  0.337E-03 ort = 0.161E-03 (trialstep = 0.274E+01)
 search vector abs. value=  0.730E-01
 bond charge predicted
       N       E                     dE             d eps       ncg     rms          rms(c)
DAV:   1    -0.483428432224E+03    0.68189E-02   -0.26501E+01  1408   0.112E+01    0.694E-01
DAV:   2    -0.483454411592E+03   -0.25979E-01   -0.30647E-01  1584   0.139E+00    0.528E-01
DAV:   3    -0.483454067409E+03    0.34418E-03   -0.16113E-02  1624   0.404E-01    0.463E-01
DAV:   4    -0.483452615382E+03    0.14520E-02   -0.54059E-03  1576   0.260E-01    0.292E-01
DAV:   5    -0.483452465166E+03    0.15022E-03   -0.31606E-03  1576   0.181E-01    0.142E-01
DAV:   6    -0.483452438146E+03    0.27021E-04   -0.19874E-03  1568   0.142E-01    0.925E-02
DAV:   7    -0.483452365049E+03    0.73097E-04   -0.37681E-04  1464   0.632E-02    0.292E-02
DAV:   8    -0.483452365543E+03   -0.49467E-06   -0.37637E-05  1224   0.175E-02
  50 F= -.48345237E+03 E0= -.48342365E+03  d E =-.171151E-01
 trial-energy change:   -0.017115  1 .order   -0.017035   -0.029952   -0.004119
 step:   3.1725(harm=  3.1817)  dis= 0.04411  next Energy=  -483.452687 (dE=-0.174E-01)
 bond charge predicted
       N       E                     dE             d eps       ncg     rms          rms(c)
DAV:   1    -0.483452149744E+03    0.21530E-03   -0.64433E-01  1408   0.174E+00    0.108E-01
DAV:   2    -0.483452787067E+03   -0.63732E-03   -0.75042E-03  1600   0.218E-01    0.827E-02
DAV:   3    -0.483452777160E+03    0.99072E-05   -0.39948E-04  1632   0.638E-02    0.740E-02
DAV:   4    -0.483452743934E+03    0.33225E-04   -0.13251E-04  1328   0.408E-02    0.452E-02
DAV:   5    -0.483452746912E+03   -0.29779E-05   -0.80755E-05  1264   0.291E-02
  51 F= -.48345275E+03 E0= -.48342405E+03  d E =-.174965E-01
 curvature: -10.64 expect dE=-0.104E+00 dE for cont linesearch -0.680E-06
 trial: gam= 0.92519 g(F)=  0.972E-02 g(S)=  0.791E-04 ort = 0.683E-04 (trialstep = 0.283E+01)
 search vector abs. value=  0.724E-01
 bond charge predicted
       N       E                     dE             d eps       ncg     rms          rms(c)
DAV:   1    -0.483442681433E+03    0.10063E-01   -0.26826E+01  1408   0.115E+01    0.789E-01
DAV:   2    -0.483471490716E+03   -0.28809E-01   -0.33406E-01  1600   0.149E+00    0.745E-01
DAV:   3    -0.483469726776E+03    0.17639E-02   -0.27355E-02  1568   0.527E-01    0.546E-01
DAV:   4    -0.483467175703E+03    0.25511E-02   -0.67938E-03  1552   0.292E-01    0.282E-01
DAV:   5    -0.483467124563E+03    0.51140E-04   -0.32632E-03  1616   0.174E-01    0.111E-01
DAV:   6    -0.483467226322E+03   -0.10176E-03   -0.15846E-03  1560   0.127E-01    0.997E-02
DAV:   7    -0.483467126359E+03    0.99963E-04   -0.42204E-04  1480   0.673E-02    0.343E-02
DAV:   8    -0.483467125860E+03    0.49894E-06   -0.40290E-05  1176   0.189E-02
  52 F= -.48346713E+03 E0= -.48343857E+03  d E =-.143789E-01
 trial-energy change:   -0.014379  1 .order   -0.014226   -0.027897   -0.000555
 step:   2.8853(harm=  2.8872)  dis= 0.03773  next Energy=  -483.467131 (dE=-0.144E-01)
 bond charge predicted
       N       E                     dE             d eps       ncg     rms          rms(c)
DAV:   1    -0.483467132853E+03   -0.64935E-05   -0.10413E-02  1448   0.229E-01    0.163E-02
DAV:   2    -0.483467150371E+03   -0.17518E-04   -0.14798E-04  1624   0.313E-02    0.153E-02
DAV:   3    -0.483467151391E+03   -0.10199E-05   -0.10709E-05  1000   0.108E-02
  53 F= -.48346715E+03 E0= -.48343860E+03  d E =-.144045E-01
 curvature: -10.59 expect dE=-0.738E-01 dE for cont linesearch -0.108E-05
 trial: gam= 0.70107 g(F)=  0.696E-02 g(S)=  0.394E-05 ort = 0.858E-04 (trialstep = 0.284E+01)
 search vector abs. value=  0.427E-01
 bond charge predicted
       N       E                     dE             d eps       ncg     rms          rms(c)
DAV:   1    -0.483463091384E+03    0.40590E-02   -0.15372E+01  1416   0.912E+00    0.602E-01
DAV:   2    -0.483480121751E+03   -0.17030E-01   -0.20173E-01  1600   0.116E+00    0.534E-01
DAV:   3    -0.483479445752E+03    0.67600E-03   -0.15038E-02  1592   0.390E-01    0.416E-01
DAV:   4    -0.483478001622E+03    0.14441E-02   -0.40772E-03  1576   0.229E-01    0.220E-01
DAV:   5    -0.483477997769E+03    0.38526E-05   -0.21235E-03  1592   0.145E-01    0.965E-02
DAV:   6    -0.483478021283E+03   -0.23514E-04   -0.11010E-03  1568   0.106E-01    0.754E-02
DAV:   7    -0.483477967244E+03    0.54039E-04   -0.24225E-04  1400   0.514E-02    0.263E-02
DAV:   8    -0.483477969222E+03   -0.19778E-05   -0.26514E-05  1072   0.152E-02
  54 F= -.48347797E+03 E0= -.48344945E+03  d E =-.108178E-01
 trial-energy change:   -0.010818  1 .order   -0.010742   -0.019951   -0.001533
 step:   3.0713(harm=  3.0774)  dis= 0.02833  next Energy=  -483.478031 (dE=-0.109E-01)
 bond charge predicted
       N       E                     dE             d eps       ncg     rms          rms(c)
DAV:   1    -0.483477949409E+03    0.17835E-04   -0.10125E-01  1432   0.741E-01    0.489E-02
DAV:   2    -0.483478069991E+03   -0.12058E-03   -0.13668E-03  1592   0.952E-02    0.443E-02
DAV:   3    -0.483478064657E+03    0.53342E-05   -0.10068E-04  1336   0.322E-02    0.339E-02
DAV:   4    -0.483478058257E+03    0.63999E-05   -0.26421E-05  1080   0.190E-02
  55 F= -.48347806E+03 E0= -.48344953E+03  d E =-.109069E-01
 curvature:  -9.34 expect dE=-0.458E-01 dE for cont linesearch -0.188E-05
 trial: gam= 0.69435 g(F)=  0.488E-02 g(S)=  0.205E-04 ort = 0.926E-04 (trialstep = 0.289E+01)
 search vector abs. value=  0.256E-01
 bond charge predicted
       N       E                     dE             d eps       ncg     rms          rms(c)
DAV:   1    -0.483476531757E+03    0.15329E-02   -0.89457E+00  1424   0.722E+00    0.479E-01
DAV:   2    -0.483485977388E+03   -0.94456E-02   -0.12125E-01  1592   0.895E-01    0.305E-01
DAV:   3    -0.483485641497E+03    0.33589E-03   -0.48957E-03  1664   0.209E-01    0.209E-01
DAV:   4    -0.483486003130E+03   -0.36163E-03   -0.21852E-03  1584   0.159E-01    0.246E-01
DAV:   5    -0.483485531493E+03    0.47164E-03   -0.12641E-03  1536   0.121E-01    0.729E-02
DAV:   6    -0.483485570221E+03   -0.38727E-04   -0.31250E-04  1584   0.548E-02    0.375E-02
DAV:   7    -0.483485564177E+03    0.60437E-05   -0.11949E-04  1328   0.349E-02    0.228E-02
DAV:   8    -0.483485561225E+03    0.29520E-05   -0.20174E-05  1024   0.160E-02
  56 F= -.48348556E+03 E0= -.48345700E+03  d E =-.750297E-02
 trial-energy change:   -0.007503  1 .order   -0.007520   -0.014344   -0.000697
 step:   3.0345(harm=  3.0345)  dis= 0.01924  next Energy=  -483.485597 (dE=-0.754E-02)
 bond charge predicted
       N       E                     dE             d eps       ncg     rms          rms(c)
DAV:   1    -0.483485564801E+03   -0.62433E-06   -0.23535E-02  1440   0.371E-01    0.244E-02
DAV:   2    -0.483485593776E+03   -0.28975E-04   -0.33553E-04  1640   0.470E-02    0.161E-02
DAV:   3    -0.483485594092E+03   -0.31555E-06   -0.11093E-05   928   0.112E-02
  57 F= -.48348559E+03 E0= -.48345703E+03  d E =-.753583E-02
 curvature:  -7.82 expect dE=-0.364E-01 dE for cont linesearch -0.288E-06
 trial: gam= 0.95968 g(F)=  0.464E-02 g(S)=  0.146E-04 ort = 0.307E-04 (trialstep = 0.264E+01)
 search vector abs. value=  0.283E-01
 bond charge predicted
       N       E                     dE             d eps       ncg     rms          rms(c)
DAV:   1    -0.483484847829E+03    0.74595E-03   -0.82359E+00  1440   0.700E+00    0.440E-01
DAV:   2    -0.483493444633E+03   -0.85968E-02   -0.10927E-01  1616   0.848E-01    0.294E-01
DAV:   3    -0.483493020318E+03    0.42432E-03   -0.43616E-03  1608   0.218E-01    0.202E-01
DAV:   4    -0.483493188642E+03   -0.16832E-03   -0.25329E-03  1560   0.173E-01    0.183E-01
DAV:   5    -0.483492925643E+03    0.26300E-03   -0.10711E-03  1504   0.116E-01    0.630E-02
DAV:   6    -0.483492990251E+03   -0.64608E-04   -0.32511E-04  1592   0.591E-02    0.741E-02
DAV:   7    -0.483492939317E+03    0.50935E-04   -0.16617E-04  1232   0.417E-02    0.194E-02
DAV:   8    -0.483492940584E+03   -0.12674E-05   -0.16221E-05  1016   0.122E-02
  58 F= -.48349294E+03 E0= -.48346442E+03  d E =-.734649E-02
 trial-energy change:   -0.007346  1 .order   -0.007253   -0.012353   -0.002153
 step:   3.1622(harm=  3.1966)  dis= 0.01924  next Energy=  -483.493154 (dE=-0.756E-02)
 bond charge predicted
       N       E                     dE             d eps       ncg     rms          rms(c)
DAV:   1    -0.483492858967E+03    0.80350E-04   -0.32316E-01  1440   0.139E+00    0.864E-02
DAV:   2    -0.483493205732E+03   -0.34677E-03   -0.43211E-03  1632   0.169E-01    0.595E-02
DAV:   3    -0.483493193069E+03    0.12663E-04   -0.18874E-04  1632   0.453E-02    0.477E-02
DAV:   4    -0.483493191238E+03    0.18310E-05   -0.75185E-05  1232   0.318E-02
  59 F= -.48349319E+03 E0= -.48346466E+03  d E =-.759715E-02
 curvature:  -9.63 expect dE=-0.418E-01 dE for cont linesearch -0.461E-05
 trial: gam= 0.90029 g(F)=  0.432E-02 g(S)=  0.189E-04 ort = 0.116E-03 (trialstep = 0.274E+01)
 search vector abs. value=  0.275E-01
 bond charge predicted
       N       E                     dE             d eps       ncg     rms          rms(c)
DAV:   1    -0.483490954245E+03    0.22388E-02   -0.84664E+00  1424   0.708E+00    0.464E-01
DAV:   2    -0.483499901431E+03   -0.89472E-02   -0.11555E-01  1624   0.880E-01    0.311E-01
DAV:   3    -0.483499708287E+03    0.19314E-03   -0.56875E-03  1616   0.238E-01    0.235E-01
DAV:   4    -0.483499837965E+03   -0.12968E-03   -0.30543E-03  1560   0.179E-01    0.232E-01
DAV:   5    -0.483499535936E+03    0.30203E-03   -0.11721E-03  1536   0.119E-01    0.823E-02
DAV:   6    -0.483499604637E+03   -0.68702E-04   -0.49063E-04  1552   0.757E-02    0.706E-02
DAV:   7    -0.483499545377E+03    0.59261E-04   -0.20773E-04  1312   0.489E-02    0.190E-02
DAV:   8    -0.483499547093E+03   -0.17163E-05   -0.18865E-05  1056   0.130E-02
  60 F= -.48349955E+03 E0= -.48347093E+03  d E =-.635585E-02
 trial-energy change:   -0.006356  1 .order   -0.006408   -0.012191   -0.000626
 step:   2.8971(harm=  2.8927)  dis= 0.01604  next Energy=  -483.499565 (dE=-0.637E-02)
 bond charge predicted
       N       E                     dE             d eps       ncg     rms          rms(c)
DAV:   1    -0.483499542621E+03    0.27552E-05   -0.26453E-02  1416   0.397E-01    0.258E-02
DAV:   2    -0.483499575402E+03   -0.32781E-04   -0.38362E-04  1656   0.506E-02    0.190E-02
DAV:   3    -0.483499576298E+03   -0.89638E-06   -0.20355E-05  1024   0.154E-02
  61 F= -.48349958E+03 E0= -.48347095E+03  d E =-.638506E-02
 curvature:  -8.94 expect dE=-0.280E-01 dE for cont linesearch -0.135E-06
 trial: gam= 0.73785 g(F)=  0.312E-02 g(S)=  0.926E-05 ort = 0.204E-04 (trialstep = 0.277E+01)
 search vector abs. value=  0.181E-01
 bond charge predicted
       N       E                     dE             d eps       ncg     rms          rms(c)
DAV:   1    -0.483498715425E+03    0.85998E-03   -0.59374E+00  1440   0.587E+00    0.369E-01
DAV:   2    -0.483504840937E+03   -0.61255E-02   -0.78606E-02  1608   0.723E-01    0.263E-01
DAV:   3    -0.483504732175E+03    0.10876E-03   -0.41009E-03  1656   0.202E-01    0.218E-01
DAV:   4    -0.483504569787E+03    0.16239E-03   -0.14631E-03  1576   0.137E-01    0.168E-01
DAV:   5    -0.483504479990E+03    0.89798E-04   -0.83169E-04  1560   0.975E-02    0.760E-02
DAV:   6    -0.483504487423E+03   -0.74336E-05   -0.53859E-04  1552   0.724E-02    0.502E-02
DAV:   7    -0.483504464974E+03    0.22450E-04   -0.12716E-04  1168   0.374E-02    0.149E-02
DAV:   8    -0.483504466005E+03   -0.10311E-05   -0.14060E-05   992   0.114E-02
  62 F= -.48350447E+03 E0= -.48347578E+03  d E =-.488971E-02
 trial-energy change:   -0.004890  1 .order   -0.004829   -0.008731   -0.000927
 step:   3.0878(harm=  3.1041)  dis= 0.01309  next Energy=  -483.504518 (dE=-0.494E-02)
 bond charge predicted
       N       E                     dE             d eps       ncg     rms          rms(c)
DAV:   1    -0.483504451867E+03    0.13107E-04   -0.75723E-02  1432   0.663E-01    0.411E-02
DAV:   2    -0.483504534870E+03   -0.83004E-04   -0.10252E-03  1616   0.823E-02    0.297E-02
DAV:   3    -0.483504533595E+03    0.12756E-05   -0.50596E-05  1256   0.230E-02
  63 F= -.48350453E+03 E0= -.48347586E+03  d E =-.495730E-02
 curvature:  -8.92 expect dE=-0.244E-01 dE for cont linesearch -0.143E-05
 trial: gam= 0.85490 g(F)=  0.273E-02 g(S)=  0.189E-05 ort = 0.539E-04 (trialstep = 0.284E+01)
 search vector abs. value=  0.161E-01
 bond charge predicted
       N       E                     dE             d eps       ncg     rms          rms(c)
DAV:   1    -0.483503225140E+03    0.13097E-02   -0.56099E+00  1440   0.559E+00    0.353E-01
DAV:   2    -0.483508990017E+03   -0.57649E-02   -0.73412E-02  1592   0.693E-01    0.238E-01
DAV:   3    -0.483508737123E+03    0.25289E-03   -0.29587E-03  1688   0.154E-01    0.154E-01
DAV:   4    -0.483508960762E+03   -0.22364E-03   -0.11703E-03  1560   0.120E-01    0.182E-01
DAV:   5    -0.483508688827E+03    0.27193E-03   -0.72890E-04  1536   0.930E-02    0.552E-02
DAV:   6    -0.483508715960E+03   -0.27133E-04   -0.24008E-04  1512   0.481E-02    0.419E-02
DAV:   7    -0.483508698872E+03    0.17087E-04   -0.10098E-04  1200   0.322E-02    0.159E-02
DAV:   8    -0.483508698703E+03    0.16957E-06   -0.11199E-05   976   0.109E-02
  64 F= -.48350870E+03 E0= -.48348004E+03  d E =-.416511E-02
 trial-energy change:   -0.004165  1 .order   -0.004147   -0.007886   -0.000407
 step:   2.9919(harm=  2.9919)  dis= 0.01186  next Energy=  -483.508691 (dE=-0.416E-02)
 bond charge predicted
       N       E                     dE             d eps       ncg     rms          rms(c)
DAV:   1    -0.483508698503E+03    0.36903E-06   -0.16723E-02  1456   0.306E-01    0.189E-02
DAV:   2    -0.483508718908E+03   -0.20405E-04   -0.22784E-04  1632   0.387E-02    0.145E-02
DAV:   3    -0.483508719136E+03   -0.22754E-06   -0.11195E-05   984   0.110E-02
  65 F= -.48350872E+03 E0= -.48348007E+03  d E =-.418554E-02
 curvature:  -8.65 expect dE=-0.226E-01 dE for cont linesearch -0.713E-07
 trial: gam= 0.96361 g(F)=  0.260E-02 g(S)=  0.115E-04 ort = 0.115E-04 (trialstep = 0.263E+01)
 search vector abs. value=  0.176E-01
 bond charge predicted
       N       E                     dE             d eps       ncg     rms          rms(c)
DAV:   1    -0.483507951921E+03    0.76699E-03   -0.53838E+00  1440   0.534E+00    0.327E-01
DAV:   2    -0.483513519284E+03   -0.55674E-02   -0.67565E-02  1600   0.655E-01    0.246E-01
DAV:   3    -0.483513481726E+03    0.37558E-04   -0.36596E-03  1600   0.187E-01    0.225E-01
DAV:   4    -0.483513175148E+03    0.30658E-03   -0.12779E-03  1552   0.121E-01    0.135E-01
DAV:   5    -0.483513138147E+03    0.37001E-04   -0.54692E-04  1592   0.742E-02    0.378E-02
DAV:   6    -0.483513162332E+03   -0.24185E-04   -0.15115E-04  1512   0.389E-02    0.294E-02
DAV:   7    -0.483513155941E+03    0.63911E-05   -0.53203E-05  1144   0.233E-02
  66 F= -.48351316E+03 E0= -.48348445E+03  d E =-.443681E-02
 trial-energy change:   -0.004437  1 .order   -0.004385   -0.006888   -0.001883
 step:   3.5374(harm=  3.6133)  dis= 0.01513  next Energy=  -483.513485 (dE=-0.477E-02)
 bond charge predicted
       N       E                     dE             d eps       ncg     rms          rms(c)
DAV:   1    -0.483512886185E+03    0.27615E-03   -0.64986E-01  1448   0.186E+00    0.114E-01
DAV:   2    -0.483513573829E+03   -0.68764E-03   -0.82440E-03  1608   0.228E-01    0.831E-02
DAV:   3    -0.483513573267E+03    0.56139E-06   -0.41993E-04  1608   0.631E-02    0.763E-02
DAV:   4    -0.483513541027E+03    0.32241E-04   -0.14740E-04  1256   0.414E-02    0.473E-02
DAV:   5    -0.483513539883E+03    0.11432E-05   -0.68313E-05  1360   0.269E-02
  67 F= -.48351354E+03 E0= -.48348481E+03  d E =-.482075E-02
 curvature: -12.02 expect dE=-0.250E-01 dE for cont linesearch -0.327E-05
 trial: gam= 0.74394 g(F)=  0.204E-02 g(S)=  0.404E-04 ort = 0.691E-04 (trialstep = 0.281E+01)
 search vector abs. value=  0.119E-01
 bond charge predicted
       N       E                     dE             d eps       ncg     rms          rms(c)
DAV:   1    -0.483512417020E+03    0.11240E-02   -0.42737E+00  1440   0.468E+00    0.311E-01
DAV:   2    -0.483516998105E+03   -0.45811E-02   -0.55907E-02  1608   0.600E-01    0.230E-01
DAV:   3    -0.483516973784E+03    0.24321E-04   -0.33173E-03  1616   0.183E-01    0.213E-01
DAV:   4    -0.483516661513E+03    0.31227E-03   -0.11292E-03  1560   0.115E-01    0.121E-01
DAV:   5    -0.483516614389E+03    0.47124E-04   -0.43919E-04  1592   0.656E-02    0.384E-02
DAV:   6    -0.483516628892E+03   -0.14503E-04   -0.10768E-04  1536   0.322E-02    0.204E-02
DAV:   7    -0.483516629685E+03   -0.79320E-06   -0.38280E-05  1104   0.201E-02
  68 F= -.48351663E+03 E0= -.48348789E+03  d E =-.308980E-02
 trial-energy change:   -0.003090  1 .order   -0.003035   -0.005991   -0.000079
 step:   2.8435(harm=  2.8456)  dis= 0.00906  next Energy=  -483.516630 (dE=-0.309E-02)
 bond charge predicted
       N       E                     dE             d eps       ncg     rms          rms(c)
DAV:   1    -0.483516627567E+03    0.13245E-05   -0.70538E-04  1432   0.618E-02    0.830E-03
DAV:   2    -0.483516630527E+03   -0.29596E-05   -0.12899E-05  1008   0.996E-03
  69 F= -.48351663E+03 E0= -.48348789E+03  d E =-.309064E-02
 curvature:  -7.91 expect dE=-0.112E-01 dE for cont linesearch -0.275E-07
 trial: gam= 0.73841 g(F)=  0.141E-02 g(S)=  0.326E-05 ort =-0.644E-05 (trialstep = 0.282E+01)
 search vector abs. value=  0.789E-02
 bond charge predicted
       N       E                     dE             d eps       ncg     rms          rms(c)
DAV:   1    -0.483516315743E+03    0.31182E-03   -0.29134E+00  1440   0.375E+00    0.238E-01
DAV:   2    -0.483519426009E+03   -0.31103E-02   -0.36613E-02  1600   0.476E-01    0.195E-01
DAV:   3    -0.483519368173E+03    0.57835E-04   -0.21913E-03  1600   0.147E-01    0.168E-01
DAV:   4    -0.483519167617E+03    0.20056E-03   -0.68081E-04  1544   0.882E-02    0.961E-02
DAV:   5    -0.483519146213E+03    0.21404E-04   -0.30590E-04  1592   0.518E-02    0.269E-02
DAV:   6    -0.483519156121E+03   -0.99071E-05   -0.55916E-05  1376   0.237E-02
  70 F= -.48351916E+03 E0= -.48349038E+03  d E =-.252559E-02
 trial-energy change:   -0.002526  1 .order   -0.002464   -0.003954   -0.000974
 step:   3.6098(harm=  3.7355)  dis= 0.00918  next Energy=  -483.519295 (dE=-0.266E-02)
 bond charge predicted
       N       E                     dE             d eps       ncg     rms          rms(c)
DAV:   1    -0.483519092769E+03    0.53444E-04   -0.23209E-01  1440   0.106E+00    0.700E-02
DAV:   2    -0.483519349960E+03   -0.25719E-03   -0.29702E-03  1608   0.135E-01    0.545E-02
DAV:   3    -0.483519344957E+03    0.50032E-05   -0.17546E-04  1496   0.422E-02    0.458E-02
DAV:   4    -0.483519332752E+03    0.12205E-04   -0.49850E-05  1144   0.248E-02    0.277E-02
DAV:   5    -0.483519337905E+03   -0.51530E-05   -0.42635E-05  1136   0.210E-02
  71 F= -.48351934E+03 E0= -.48349057E+03  d E =-.270738E-02
 curvature: -10.29 expect dE=-0.170E-01 dE for cont linesearch -0.856E-05
 trial: gam= 1.09118 g(F)=  0.161E-02 g(S)=  0.429E-04 ort = 0.810E-04 (trialstep = 0.209E+01)
 search vector abs. value=  0.112E-01
 bond charge predicted
       N       E                     dE             d eps       ncg     rms          rms(c)
DAV:   1    -0.483519468972E+03   -0.13622E-03   -0.22848E+00  1408   0.330E+00    0.215E-01
DAV:   2    -0.483521954888E+03   -0.24859E-02   -0.29445E-02  1584   0.426E-01    0.164E-01
DAV:   3    -0.483521935328E+03    0.19560E-04   -0.17271E-03  1584   0.130E-01    0.146E-01
DAV:   4    -0.483521776795E+03    0.15853E-03   -0.45905E-04  1528   0.750E-02    0.865E-02
DAV:   5    -0.483521794958E+03   -0.18163E-04   -0.36428E-04  1568   0.600E-02    0.636E-02
DAV:   6    -0.483521767554E+03    0.27404E-04   -0.26357E-04  1400   0.498E-02    0.245E-02
DAV:   7    -0.483521764964E+03    0.25896E-05   -0.32092E-05  1080   0.184E-02
  72 F= -.48352176E+03 E0= -.48349300E+03  d E =-.242706E-02
 trial-energy change:   -0.002427  1 .order   -0.002432   -0.003640   -0.001223
 step:   3.1485(harm=  3.1485)  dis= 0.00909  next Energy=  -483.522079 (dE=-0.274E-02)
 bond charge predicted
       N       E                     dE             d eps       ncg     rms          rms(c)
DAV:   1    -0.483521466298E+03    0.30126E-03   -0.58538E-01  1408   0.167E+00    0.109E-01
DAV:   2    -0.483522113044E+03   -0.64675E-03   -0.76151E-03  1592   0.216E-01    0.811E-02
DAV:   3    -0.483522107515E+03    0.55284E-05   -0.44380E-04  1608   0.657E-02    0.708E-02
DAV:   4    -0.483522070965E+03    0.36550E-04   -0.10978E-04  1224   0.374E-02    0.438E-02
DAV:   5    -0.483522079287E+03   -0.83214E-05   -0.96257E-05  1176   0.316E-02
  73 F= -.48352208E+03 E0= -.48349331E+03  d E =-.274138E-02
 curvature: -10.15 expect dE=-0.140E-01 dE for cont linesearch -0.751E-09
 trial: gam= 0.92559 g(F)=  0.135E-02 g(S)=  0.310E-04 ort = 0.911E-06 (trialstep = 0.230E+01)
 search vector abs. value=  0.110E-01
 bond charge predicted
       N       E                     dE             d eps       ncg     rms          rms(c)
DAV:   1    -0.483521703750E+03    0.36722E-03   -0.27575E+00  1416   0.360E+00    0.252E-01
DAV:   2    -0.483525160989E+03   -0.34572E-02   -0.35951E-02  1560   0.486E-01    0.316E-01
DAV:   3    -0.483524416175E+03    0.74481E-03   -0.35697E-03  1528   0.191E-01    0.151E-01
DAV:   4    -0.483524262336E+03    0.15384E-03   -0.59331E-04  1528   0.812E-02    0.942E-02
DAV:   5    -0.483524322908E+03   -0.60572E-04   -0.65954E-04  1584   0.798E-02    0.816E-02
DAV:   6    -0.483524254798E+03    0.68110E-04   -0.34755E-04  1408   0.577E-02    0.169E-02
DAV:   7    -0.483524256052E+03   -0.12540E-05   -0.24062E-05  1016   0.148E-02
  74 F= -.48352426E+03 E0= -.48349550E+03  d E =-.217677E-02
 trial-energy change:   -0.002177  1 .order   -0.002199   -0.003181   -0.001216
 step:   3.7265(harm=  3.7265)  dis= 0.01024  next Energy=  -483.524654 (dE=-0.257E-02)
 bond charge predicted
       N       E                     dE             d eps       ncg     rms          rms(c)
DAV:   1    -0.483523655643E+03    0.59915E-03   -0.10561E+00  1424   0.223E+00    0.154E-01
DAV:   2    -0.483524995285E+03   -0.13396E-02   -0.13820E-02  1552   0.301E-01    0.197E-01
DAV:   3    -0.483524711644E+03    0.28364E-03   -0.13482E-03  1512   0.117E-01    0.923E-02
DAV:   4    -0.483524653839E+03    0.57805E-04   -0.21516E-04  1512   0.490E-02    0.570E-02
DAV:   5    -0.483524678311E+03   -0.24473E-04   -0.23719E-04  1576   0.477E-02    0.479E-02
DAV:   6    -0.483524654720E+03    0.23591E-04   -0.12556E-04  1152   0.349E-02    0.106E-02
DAV:   7    -0.483524655810E+03   -0.10898E-05   -0.94306E-06  1000   0.958E-03
  75 F= -.48352466E+03 E0= -.48349590E+03  d E =-.257652E-02
 curvature: -14.83 expect dE=-0.254E-01 dE for cont linesearch -0.341E-06
 trial: gam= 1.17115 g(F)=  0.164E-02 g(S)=  0.738E-04 ort = 0.159E-04 (trialstep = 0.169E+01)
 search vector abs. value=  0.168E-01
 bond charge predicted
       N       E                     dE             d eps       ncg     rms          rms(c)
DAV:   1    -0.483524467043E+03    0.18768E-03   -0.22864E+00  1432   0.328E+00    0.201E-01
DAV:   2    -0.483526883951E+03   -0.24169E-02   -0.28215E-02  1576   0.413E-01    0.148E-01
DAV:   3    -0.483526869918E+03    0.14033E-04   -0.12655E-03  1616   0.107E-01    0.126E-01
DAV:   4    -0.483526790965E+03    0.78954E-04   -0.45600E-04  1552   0.727E-02    0.954E-02
DAV:   5    -0.483526760653E+03    0.30312E-04   -0.23854E-04  1520   0.490E-02    0.304E-02
DAV:   6    -0.483526772526E+03   -0.11873E-04   -0.12308E-04  1336   0.353E-02    0.294E-02
DAV:   7    -0.483526763817E+03    0.87093E-05   -0.40002E-05  1064   0.205E-02
  76 F= -.48352676E+03 E0= -.48349802E+03  d E =-.210801E-02
 trial-energy change:   -0.002108  1 .order   -0.002083   -0.002929   -0.001236
 step:   2.9235(harm=  2.9235)  dis= 0.00964  next Energy=  -483.527190 (dE=-0.253E-02)
 bond charge predicted
       N       E                     dE             d eps       ncg     rms          rms(c)
DAV:   1    -0.483526004646E+03    0.76788E-03   -0.12188E+00  1432   0.240E+00    0.148E-01
DAV:   2    -0.483527299021E+03   -0.12944E-02   -0.15107E-02  1576   0.302E-01    0.108E-01
DAV:   3    -0.483527294740E+03    0.42814E-05   -0.67486E-04  1608   0.780E-02    0.921E-02
DAV:   4    -0.483527253724E+03    0.41016E-04   -0.24381E-04  1504   0.533E-02    0.698E-02
DAV:   5    -0.483527239008E+03    0.14716E-04   -0.12501E-04  1384   0.356E-02    0.217E-02
DAV:   6    -0.483527246001E+03   -0.69926E-05   -0.62100E-05  1192   0.253E-02
  77 F= -.48352725E+03 E0= -.48349850E+03  d E =-.259019E-02
 curvature: -14.20 expect dE=-0.168E-01 dE for cont linesearch -0.214E-06
 trial: gam= 0.66919 g(F)=  0.118E-02 g(S)=  0.365E-05 ort = 0.159E-04 (trialstep = 0.194E+01)
 search vector abs. value=  0.874E-02
 bond charge predicted
       N       E                     dE             d eps       ncg     rms          rms(c)
DAV:   1    -0.483527215332E+03    0.23676E-04   -0.15441E+00  1432   0.274E+00    0.168E-01
DAV:   2    -0.483528871691E+03   -0.16564E-02   -0.19237E-02  1568   0.347E-01    0.129E-01
DAV:   3    -0.483528863350E+03    0.83408E-05   -0.97107E-04  1584   0.959E-02    0.112E-01
DAV:   4    -0.483528782126E+03    0.81225E-04   -0.31999E-04  1528   0.628E-02    0.733E-02
DAV:   5    -0.483528773594E+03    0.85315E-05   -0.17698E-04  1520   0.417E-02    0.261E-02
DAV:   6    -0.483528779927E+03   -0.63329E-05   -0.88984E-05  1280   0.302E-02
  78 F= -.48352878E+03 E0= -.48350005E+03  d E =-.153393E-02
 trial-energy change:   -0.001534  1 .order   -0.001523   -0.002308   -0.000738
 step:   2.8469(harm=  2.8469)  dis= 0.00653  next Energy=  -483.528943 (dE=-0.170E-02)
 bond charge predicted
       N       E                     dE             d eps       ncg     rms          rms(c)
DAV:   1    -0.483528601968E+03    0.17163E-03   -0.34104E-01  1432   0.129E+00    0.806E-02
DAV:   2    -0.483528971858E+03   -0.36989E-03   -0.42803E-03  1600   0.163E-01    0.597E-02
DAV:   3    -0.483528974028E+03   -0.21695E-05   -0.21196E-04  1576   0.447E-02    0.524E-02
DAV:   4    -0.483528957080E+03    0.16947E-04   -0.73100E-05  1176   0.300E-02    0.349E-02
DAV:   5    -0.483528956087E+03    0.99360E-06   -0.35900E-05  1080   0.195E-02
  79 F= -.48352896E+03 E0= -.48350024E+03  d E =-.171009E-02
 curvature: -10.44 expect dE=-0.102E-01 dE for cont linesearch -0.536E-07
 trial: gam= 0.85599 g(F)=  0.949E-03 g(S)=  0.257E-04 ort = 0.670E-05 (trialstep = 0.212E+01)
 search vector abs. value=  0.739E-02
 bond charge predicted
       N       E                     dE             d eps       ncg     rms          rms(c)
DAV:   1    -0.483529017999E+03   -0.60919E-04   -0.15492E+00  1424   0.275E+00    0.171E-01
DAV:   2    -0.483530640766E+03   -0.16228E-02   -0.18854E-02  1576   0.350E-01    0.161E-01
DAV:   3    -0.483530549585E+03    0.91181E-04   -0.13215E-03  1568   0.115E-01    0.117E-01
DAV:   4    -0.483530451846E+03    0.97739E-04   -0.30136E-04  1536   0.601E-02    0.662E-02
DAV:   5    -0.483530484381E+03   -0.32535E-04   -0.29679E-04  1552   0.537E-02    0.551E-02
DAV:   6    -0.483530456233E+03    0.28148E-04   -0.16728E-04  1216   0.408E-02    0.135E-02
DAV:   7    -0.483530457139E+03   -0.90554E-06   -0.13500E-05   992   0.118E-02
  80 F= -.48353046E+03 E0= -.48350178E+03  d E =-.150105E-02
 trial-energy change:   -0.001501  1 .order   -0.001494   -0.002077   -0.000910
 step:   3.7709(harm=  3.7709)  dis= 0.00801  next Energy=  -483.530805 (dE=-0.185E-02)
 bond charge predicted
       N       E                     dE             d eps       ncg     rms          rms(c)
DAV:   1    -0.483529937856E+03    0.51838E-03   -0.94250E-01  1432   0.215E+00    0.132E-01
DAV:   2    -0.483530932154E+03   -0.99430E-03   -0.11477E-02  1568   0.272E-01    0.126E-01
DAV:   3    -0.483530881470E+03    0.50684E-04   -0.78095E-04  1576   0.884E-02    0.914E-02
DAV:   4    -0.483530820381E+03    0.61089E-04   -0.18251E-04  1440   0.466E-02    0.505E-02
DAV:   5    -0.483530837257E+03   -0.16876E-04   -0.15992E-04  1504   0.391E-02    0.365E-02
DAV:   6    -0.483530825702E+03    0.11555E-04   -0.85606E-05  1176   0.294E-02    0.115E-02
DAV:   7    -0.483530826136E+03   -0.43383E-06   -0.81373E-06   920   0.974E-03
  81 F= -.48353083E+03 E0= -.48350218E+03  d E =-.187005E-02
 curvature: -14.21 expect dE=-0.163E-01 dE for cont linesearch -0.292E-08
 trial: gam= 1.16980 g(F)=  0.115E-02 g(S)=  0.180E-05 ort = 0.123E-05 (trialstep = 0.161E+01)
 search vector abs. value=  0.113E-01
 bond charge predicted
       N       E                     dE             d eps       ncg     rms          rms(c)
DAV:   1    -0.483530784361E+03    0.41341E-04   -0.13470E+00  1440   0.258E+00    0.159E-01
DAV:   2    -0.483532136803E+03   -0.13524E-02   -0.16371E-02  1592   0.324E-01    0.115E-01
DAV:   3    -0.483532133151E+03    0.36518E-05   -0.82513E-04  1624   0.884E-02    0.100E-01
DAV:   4    -0.483532074680E+03    0.58471E-04   -0.26651E-04  1536   0.566E-02    0.671E-02
DAV:   5    -0.483532078203E+03   -0.35232E-05   -0.17356E-04  1464   0.425E-02    0.388E-02
DAV:   6    -0.483532071118E+03    0.70852E-05   -0.11463E-04  1184   0.338E-02    0.191E-02
DAV:   7    -0.483532069217E+03    0.19012E-05   -0.17566E-05  1000   0.145E-02
  82 F= -.48353207E+03 E0= -.48350345E+03  d E =-.124308E-02
 trial-energy change:   -0.001243  1 .order   -0.001242   -0.001849   -0.000635
 step:   2.4476(harm=  2.4476)  dis= 0.00663  next Energy=  -483.532235 (dE=-0.141E-02)
 bond charge predicted
       N       E                     dE             d eps       ncg     rms          rms(c)
DAV:   1    -0.483531884151E+03    0.18697E-03   -0.36907E-01  1432   0.135E+00    0.836E-02
DAV:   2    -0.483532257707E+03   -0.37356E-03   -0.45034E-03  1592   0.169E-01    0.597E-02
DAV:   3    -0.483532257966E+03   -0.25887E-06   -0.22469E-04  1616   0.461E-02    0.517E-02
DAV:   4    -0.483532242762E+03    0.15204E-04   -0.71283E-05  1168   0.296E-02    0.351E-02
DAV:   5    -0.483532244810E+03   -0.20483E-05   -0.48395E-05  1104   0.230E-02
  83 F= -.48353224E+03 E0= -.48350362E+03  d E =-.141867E-02
 curvature: -11.98 expect dE=-0.725E-02 dE for cont linesearch -0.194E-06
 trial: gam= 0.50216 g(F)=  0.601E-03 g(S)=  0.365E-05 ort = 0.135E-04 (trialstep = 0.177E+01)
 search vector abs. value=  0.346E-02
 bond charge predicted
       N       E                     dE             d eps       ncg     rms          rms(c)
DAV:   1    -0.483532535082E+03   -0.29232E-03   -0.49266E-01  1440   0.158E+00    0.101E-01
DAV:   2    -0.483533034078E+03   -0.49900E-03   -0.61583E-03  1560   0.199E-01    0.656E-02
DAV:   3    -0.483533020527E+03    0.13551E-04   -0.23547E-04  1680   0.439E-02    0.456E-02
DAV:   4    -0.483533037681E+03   -0.17154E-04   -0.10078E-04  1256   0.343E-02    0.549E-02
DAV:   5    -0.483533016357E+03    0.21324E-04   -0.57796E-05  1128   0.270E-02    0.140E-02
DAV:   6    -0.483533018638E+03   -0.22810E-05   -0.12780E-05   928   0.113E-02
  84 F= -.48353302E+03 E0= -.48350440E+03  d E =-.773828E-03
 trial-energy change:   -0.000774  1 .order   -0.000782   -0.001086   -0.000478
 step:   3.1709(harm=  3.1709)  dis= 0.00518  next Energy=  -483.533214 (dE=-0.970E-03)
 reached required accuracy - stopping structural energy minimisation
