<?xml version="1.0" encoding="ISO-8859-1"?>
<modeling>
 <generator>
  <i name="program" type="string">vasp </i>
  <i name="version" type="string">6.3.2  </i>
  <i name="subversion" type="string">27Jun22 (build May 04 2024 18:40:40) complex                          parallel </i>
  <i name="platform" type="string">LinuxIFC </i>
  <i name="date" type="string">2024 09 03 </i>
  <i name="time" type="string">03:54:41 </i>
 </generator>
 <incar>
  <i type="string" name="SYSTEM">slab_Cel1-OPT</i>
  <i type="int" name="ISTART">     0</i>
  <i type="string" name="PREC">N</i>
  <i type="string" name="ALGO">N</i>
  <i type="int" name="ICHARG">     2</i>
  <i type="int" name="NELM">   200</i>
  <i type="int" name="IBRION">     2</i>
  <i name="EDIFF">      0.00001000</i>
  <i name="EDIFFG">     -0.05000000</i>
  <i type="int" name="NSW">  1000</i>
  <i type="int" name="ISIF">     3</i>
  <i name="ENCUT">    400.00000000</i>
  <i name="POTIM">      0.10000000</i>
  <i type="string" name="LREAL">AUTO</i>
  <i type="int" name="ISMEAR">     0</i>
  <i name="SIGMA">      0.10000000</i>
  <i type="logical" name="LWAVE"> F  </i>
  <i type="logical" name="LCHARG"> F  </i>
  <i type="logical" name="LELF"> F  </i>
  <i type="logical" name="LAECHG"> F  </i>
  <i type="logical" name="LDIPOL"> T  </i>
  <i type="int" name="IDIPOL">     3</i>
 </incar>
 <primitive_cell>
  <structure name="primitive_cell" >
   <crystal>
    <varray name="basis" >
     <v>      13.75970367       0.00000000       0.00000000 </v>
     <v>       0.00000000      11.28669971       0.00000000 </v>
     <v>       0.00000000       0.00000000      15.00000000 </v>
    </varray>
    <i name="volume">   2329.52465126 </i>
    <varray name="rec_basis" >
     <v>       0.07267598       0.00000000       0.00000000 </v>
     <v>       0.00000000       0.08859986       0.00000000 </v>
     <v>       0.00000000       0.00000000       0.06666667 </v>
    </varray>
   </crystal>
   <varray name="positions" >
    <v>       0.07054120       0.38816457       0.22227495 </v>
    <v>       0.98151180       0.21832942       0.16785344 </v>
    <v>       0.22877304       0.39667288       0.18904348 </v>
    <v>       0.82472337       0.57572318       0.18403191 </v>
    <v>       0.14970601       0.24663792       0.12277753 </v>
    <v>       0.90758628       0.38434512       0.21811946 </v>
    <v>       0.56886571       0.39316130       0.23173729 </v>
    <v>       0.47768100       0.22391730       0.18017943 </v>
    <v>       0.73035049       0.39802658       0.19909345 </v>
    <v>       0.31101118       0.58132963       0.17977696 </v>
    <v>       0.64681854       0.25040749       0.13377315 </v>
    <v>       0.40275100       0.39355427       0.22106508 </v>
    <v>       0.81808056       0.88988957       0.05647519 </v>
    <v>       0.73319531       0.72568325       0.12448457 </v>
    <v>       0.97932824       0.89597624       0.07999408 </v>
    <v>       0.06867909       0.07698375       0.09423854 </v>
    <v>       0.90528082       0.74258583       0.14719628 </v>
    <v>       0.65472406       0.89333727       0.07691603 </v>
    <v>       0.31825350       0.89473226       0.05377466 </v>
    <v>       0.22716619       0.72126926       0.10084126 </v>
    <v>       0.47498917       0.90396535       0.09489577 </v>
    <v>       0.56592959       0.08075138       0.11024766 </v>
    <v>       0.38612516       0.76037560       0.16363174 </v>
    <v>       0.15509033       0.88950396       0.05271529 </v>
    <v>       0.98784551       0.43883046       0.24713656 </v>
    <v>       0.89991795       0.26975381       0.19549767 </v>
    <v>       0.15759857       0.43325808       0.24240148 </v>
    <v>       0.14788829       0.14353661       0.08017307 </v>
    <v>       0.98633649       0.10796021       0.13653167 </v>
    <v>       0.22915942       0.31533454       0.12527490 </v>
    <v>       0.06735802       0.28598388       0.16888911 </v>
    <v>       0.82274912       0.45552252       0.21014877 </v>
    <v>       0.48493735       0.44793349       0.25146232 </v>
    <v>       0.39648714       0.27665554       0.20625030 </v>
    <v>       0.65756919       0.43524210       0.25419888 </v>
    <v>       0.64488604       0.14640144       0.09374788 </v>
    <v>       0.48286722       0.11321356       0.15081376 </v>
    <v>       0.72606390       0.31870920       0.13454719 </v>
    <v>       0.56470606       0.29135323       0.18008364 </v>
    <v>       0.31888640       0.46086995       0.20329135 </v>
    <v>       0.73287748       0.94248397       0.03965616 </v>
    <v>       0.64891188       0.78317499       0.11254597 </v>
    <v>       0.90382696       0.93469024       0.03189926 </v>
    <v>       0.90701680       0.63807548       0.18754912 </v>
    <v>       0.73647441       0.61699787       0.15934394 </v>
    <v>       0.98321706       0.81212363       0.14197152 </v>
    <v>       0.81925020       0.78400528       0.10639513 </v>
    <v>       0.56804185       0.96074410       0.08520074 </v>
    <v>       0.23699719       0.94478449       0.02657725 </v>
    <v>       0.14820250       0.77173059       0.06843984 </v>
    <v>       0.40793432       0.93556381       0.03646331 </v>
    <v>       0.38047481       0.65838217       0.20939239 </v>
    <v>       0.23501053       0.60894863       0.12850628 </v>
    <v>       0.46527775       0.83024755       0.16578047 </v>
    <v>       0.31113112       0.79334051       0.10891910 </v>
    <v>       0.06990262       0.95754122       0.06514651 </v>
    <v>       0.57736557       0.77647674       0.24193941 </v>
    <v>       0.65582252       0.60772566       0.29790490 </v>
    <v>       0.48700699       0.61617049       0.29396059 </v>
   </varray>
  </structure>
  <varray name="primitive_index" >
   <v type="int" >        1 </v>
   <v type="int" >        2 </v>
   <v type="int" >        3 </v>
   <v type="int" >        4 </v>
   <v type="int" >        5 </v>
   <v type="int" >        6 </v>
   <v type="int" >        7 </v>
   <v type="int" >        8 </v>
   <v type="int" >        9 </v>
   <v type="int" >       10 </v>
   <v type="int" >       11 </v>
   <v type="int" >       12 </v>
   <v type="int" >       13 </v>
   <v type="int" >       14 </v>
   <v type="int" >       15 </v>
   <v type="int" >       16 </v>
   <v type="int" >       17 </v>
   <v type="int" >       18 </v>
   <v type="int" >       19 </v>
   <v type="int" >       20 </v>
   <v type="int" >       21 </v>
   <v type="int" >       22 </v>
   <v type="int" >       23 </v>
   <v type="int" >       24 </v>
   <v type="int" >       25 </v>
   <v type="int" >       26 </v>
   <v type="int" >       27 </v>
   <v type="int" >       28 </v>
   <v type="int" >       29 </v>
   <v type="int" >       30 </v>
   <v type="int" >       31 </v>
   <v type="int" >       32 </v>
   <v type="int" >       33 </v>
   <v type="int" >       34 </v>
   <v type="int" >       35 </v>
   <v type="int" >       36 </v>
   <v type="int" >       37 </v>
   <v type="int" >       38 </v>
   <v type="int" >       39 </v>
   <v type="int" >       40 </v>
   <v type="int" >       41 </v>
   <v type="int" >       42 </v>
   <v type="int" >       43 </v>
   <v type="int" >       44 </v>
   <v type="int" >       45 </v>
   <v type="int" >       46 </v>
   <v type="int" >       47 </v>
   <v type="int" >       48 </v>
   <v type="int" >       49 </v>
   <v type="int" >       50 </v>
   <v type="int" >       51 </v>
   <v type="int" >       52 </v>
   <v type="int" >       53 </v>
   <v type="int" >       54 </v>
   <v type="int" >       55 </v>
   <v type="int" >       56 </v>
   <v type="int" >       57 </v>
   <v type="int" >       58 </v>
   <v type="int" >       59 </v>
  </varray>
 </primitive_cell>
 <kpoints>
  <generation param="Gamma">
   <v type="int" name="divisions">       2        2        1 </v>
   <v name="usershift">      0.00000000       0.00000000       0.00000000 </v>
   <v name="genvec1">      0.50000000       0.00000000       0.00000000 </v>
   <v name="genvec2">      0.00000000       0.50000000       0.00000000 </v>
   <v name="genvec3">      0.00000000       0.00000000       1.00000000 </v>
   <v name="shift">      0.00000000       0.00000000       0.00000000 </v>
  </generation>
  <varray name="kpointlist" >
   <v>       0.00000000       0.00000000       0.00000000 </v>
   <v>       0.50000000       0.00000000       0.00000000 </v>
   <v>       0.00000000       0.50000000       0.00000000 </v>
   <v>       0.50000000       0.50000000       0.00000000 </v>
  </varray>
  <varray name="weights" >
   <v>       0.25000000 </v>
   <v>       0.25000000 </v>
   <v>       0.25000000 </v>
   <v>       0.25000000 </v>
  </varray>
 </kpoints>
 <parameters>
  <separator name="general" >
   <i type="string" name="SYSTEM">slab_Cel1-OPT</i>
   <i type="logical" name="LCOMPAT"> F  </i>
  </separator>
  <separator name="electronic" >
   <i type="string" name="PREC">n</i>
   <i name="ENMAX">    400.00000000</i>
   <i name="ENAUG">    644.87300000</i>
   <i name="EDIFF">      0.00001000</i>
   <i type="int" name="IALGO">    38</i>
   <i type="int" name="IWAVPR">    11</i>
   <i type="int" name="NBANDS">   176</i>
   <i type="int" name="NBANDSLOW">    -1</i>
   <i type="int" name="NBANDSHIGH">    -1</i>
   <i name="NELECT">    287.00000000</i>
   <i type="int" name="TURBO">     0</i>
   <i type="int" name="IRESTART">     0</i>
   <i type="int" name="NREBOOT">     0</i>
   <i type="int" name="NMIN">     0</i>
   <i name="EREF">      0.00000000</i>
   <separator name="electronic smearing" >
    <i type="int" name="ISMEAR">     0</i>
    <i name="SIGMA">      0.10000000</i>
    <i name="KSPACING">      0.50000000</i>
    <i type="logical" name="KGAMMA"> T  </i>
    <i type="logical" name="KBLOWUP"> T  </i>
   </separator>
   <separator name="electronic projectors" >
    <i type="logical" name="LREAL"> T  </i>
    <v name="ROPT">     -0.00050000     -0.00050000     -0.00050000     -0.00050000</v>
    <i type="int" name="LMAXPAW">  -100</i>
    <i type="int" name="LMAXMIX">     2</i>
    <i type="logical" name="NLSPLINE"> F  </i>
   </separator>
   <separator name="electronic startup" >
    <i type="int" name="ISTART">     0</i>
    <i type="int" name="ICHARG">     2</i>
    <i type="int" name="INIWAV">     1</i>
   </separator>
   <separator name="electronic spin" >
    <i type="int" name="ISPIN">     1</i>
    <i type="logical" name="LNONCOLLINEAR"> F  </i>
    <v name="MAGMOM">      1.00000000      1.00000000      1.00000000      1.00000000      1.00000000      1.00000000      1.00000000      1.00000000      1.00000000      1.00000000      1.00000000      1.00000000      1.00000000      1.00000000      1.00000000      1.00000000      1.00000000      1.00000000      1.00000000      1.00000000
      1.00000000      1.00000000      1.00000000      1.00000000      1.00000000      1.00000000      1.00000000      1.00000000      1.00000000      1.00000000      1.00000000      1.00000000      1.00000000      1.00000000      1.00000000      1.00000000      1.00000000      1.00000000      1.00000000      1.00000000
      1.00000000      1.00000000      1.00000000      1.00000000      1.00000000      1.00000000      1.00000000      1.00000000      1.00000000      1.00000000      1.00000000      1.00000000      1.00000000      1.00000000      1.00000000      1.00000000      1.00000000      1.00000000      1.00000000</v>
    <i name="NUPDOWN">     -1.00000000</i>
    <i type="logical" name="LSORBIT"> F  </i>
    <v name="SAXIS">      0.00000000      0.00000000      1.00000000</v>
    <i type="logical" name="LSPIRAL"> F  </i>
    <v name="QSPIRAL">      0.00000000      0.00000000      0.00000000</v>
    <i type="logical" name="LZEROZ"> F  </i>
   </separator>
   <separator name="electronic exchange-correlation" >
    <i type="logical" name="LASPH"> F  </i>
    <i type="logical" name="LMETAGGA"> F  </i>
   </separator>
   <separator name="electronic convergence" >
    <i type="int" name="NELM">   200</i>
    <i type="int" name="NELMDL">    -5</i>
    <i type="int" name="NELMIN">     2</i>
    <i name="ENINI">    400.00000000</i>
    <separator name="electronic convergence detail" >
     <i type="logical" name="LDIAG"> T  </i>
     <i type="logical" name="LSUBROT"> F  </i>
     <i name="WEIMIN">      0.00100000</i>
     <i name="EBREAK">      0.00000001</i>
     <i name="DEPER">      0.30000000</i>
     <i type="int" name="NRMM">     4</i>
     <i name="TIME">      0.40000000</i>
    </separator>
   </separator>
   <separator name="electronic mixer" >
    <i name="AMIX">      0.40000000</i>
    <i name="BMIX">      1.00000000</i>
    <i name="AMIN">      0.10000000</i>
    <i name="AMIX_MAG">      1.60000000</i>
    <i name="BMIX_MAG">      1.00000000</i>
    <separator name="electronic mixer details" >
     <i type="int" name="IMIX">     4</i>
     <i type="logical" name="MIXFIRST"> F  </i>
     <i type="int" name="MAXMIX">   -45</i>
     <i name="WC">    100.00000000</i>
     <i type="int" name="INIMIX">     1</i>
     <i type="int" name="MIXPRE">     1</i>
     <i type="int" name="MREMOVE">     5</i>
    </separator>
   </separator>
   <separator name="electronic dipolcorrection" >
    <i type="logical" name="LDIPOL"> T  </i>
    <i type="logical" name="LMONO"> F  </i>
    <i type="int" name="IDIPOL">     3</i>
    <i name="EPSILON">      1.00000000</i>
    <v name="DIPOL">   -100.00000000   -100.00000000   -100.00000000</v>
    <i name="EFIELD">      0.00000000</i>
   </separator>
  </separator>
  <separator name="grids" >
   <i type="int" name="NGX">    70</i>
   <i type="int" name="NGY">    56</i>
   <i type="int" name="NGZ">    80</i>
   <i type="int" name="NGXF">   140</i>
   <i type="int" name="NGYF">   112</i>
   <i type="int" name="NGZF">   160</i>
   <i type="logical" name="ADDGRID"> F  </i>
  </separator>
  <separator name="ionic" >
   <i type="int" name="NSW">  1000</i>
   <i type="int" name="IBRION">     2</i>
   <i type="int" name="MDALGO">     0</i>
   <i type="int" name="ISIF">     3</i>
   <i name="PSTRESS">      0.00000000</i>
   <i name="EDIFFG">     -0.05000000</i>
   <i type="int" name="NFREE">     1</i>
   <i name="POTIM">      0.10000000</i>
   <i name="SMASS">     -3.00000000</i>
   <i name="SCALEE">      1.00000000</i>
  </separator>
  <separator name="ionic md" >
   <i name="TEBEG">      0.00010000</i>
   <i name="TEEND">      0.00010000</i>
   <i type="int" name="NBLOCK">     1</i>
   <i type="int" name="KBLOCK">  1000</i>
   <i type="int" name="NPACO">   256</i>
   <i name="APACO">     10.00000000</i>
  </separator>
  <separator name="symmetry" >
   <i type="int" name="ISYM">     2</i>
   <i name="SYMPREC">      0.00001000</i>
  </separator>
  <separator name="dos" >
   <i type="int" name="LORBIT">     0</i>
   <v name="RWIGS">     -1.00000000     -1.00000000     -1.00000000     -1.00000000</v>
   <i type="int" name="NEDOS">   301</i>
   <i name="EMIN">     10.00000000</i>
   <i name="EMAX">    -10.00000000</i>
   <i name="EFERMI">      0.00000000</i>
  </separator>
  <separator name="writing" >
   <i type="int" name="NWRITE">     2</i>
   <i type="logical" name="LWAVE"> F  </i>
   <i type="logical" name="LDOWNSAMPLE"> F  </i>
   <i type="logical" name="LCHARG"> F  </i>
   <i type="logical" name="LPARD"> F  </i>
   <i type="logical" name="LVTOT"> F  </i>
   <i type="logical" name="LVHAR"> F  </i>
   <i type="logical" name="LELF"> F  </i>
   <i type="logical" name="LOPTICS"> F  </i>
   <v name="STM">      0.00000000      0.00000000      0.00000000      0.00000000      0.00000000      0.00000000      0.00000000</v>
  </separator>
  <separator name="performance" >
   <i type="int" name="NPAR">     4</i>
   <i type="int" name="NSIM">     4</i>
   <i type="int" name="NBLK">    -1</i>
   <i type="logical" name="LPLANE"> T  </i>
   <i type="logical" name="LSCALAPACK"> T  </i>
   <i type="logical" name="LSCAAWARE"> F  </i>
   <i type="logical" name="LSCALU"> F  </i>
   <i type="logical" name="LASYNC"> F  </i>
   <i type="logical" name="LORBITALREAL"> F  </i>
  </separator>
  <separator name="miscellaneous" >
   <i type="int" name="IDIOT">     3</i>
   <i type="int" name="PHON_NSTRUCT">    -1</i>
   <i type="logical" name="LMUSIC"> F  </i>
   <v name="POMASS">     12.01100000     14.00100000    107.86800000    106.42000000</v>
   <v name="DARWINR">      0.00000000      0.00000000      0.00000000      0.00000000</v>
   <v name="DARWINV">      1.00000000      1.00000000      1.00000000      1.00000000</v>
   <i type="logical" name="LCORR"> T  </i>
  </separator>
  <i type="logical" name="GGA_COMPAT"> T  </i>
  <i type="logical" name="LBERRY"> F  </i>
  <i type="int" name="ICORELEVEL">     0</i>
  <i type="logical" name="LDAU"> F  </i>
  <i type="int" name="I_CONSTRAINED_M">     0</i>
  <separator name="electronic exchange-correlation" >
   <i type="string" name="GGA">--</i>
   <i type="int" name="VOSKOWN">     0</i>
   <i type="logical" name="LHFCALC"> F  </i>
   <i type="string" name="PRECFOCK"></i>
   <i type="logical" name="LSYMGRAD"> F  </i>
   <i type="logical" name="LHFONE"> F  </i>
   <i type="logical" name="LRHFCALC"> F  </i>
   <i type="logical" name="LTHOMAS"> F  </i>
   <i type="logical" name="LMODELHF"> F  </i>
   <i type="logical" name="LFOCKACE"> F  </i>
   <i name="ENCUT4O">     -1.00000000</i>
   <i type="int" name="EXXOEP">     0</i>
   <i type="int" name="FOURORBIT">     0</i>
   <i name="AEXX">      0.00000000</i>
   <i name="HFALPHA">      0.00000000</i>
   <i name="MCALPHA">      0.00000000</i>
   <i name="ALDAX">      1.00000000</i>
   <i name="AGGAX">      1.00000000</i>
   <i name="ALDAC">      1.00000000</i>
   <i name="AGGAC">      1.00000000</i>
   <i type="int" name="NKREDX">     1</i>
   <i type="int" name="NKREDY">     1</i>
   <i type="int" name="NKREDZ">     1</i>
   <i type="logical" name="SHIFTRED"> F  </i>
   <i type="logical" name="ODDONLY"> F  </i>
   <i type="logical" name="EVENONLY"> F  </i>
   <i type="int" name="LMAXFOCK">     0</i>
   <i type="int" name="NMAXFOCKAE">     0</i>
   <i type="logical" name="LFOCKAEDFT"> F  </i>
   <i name="HFSCREEN">      0.00000000</i>
   <i name="HFSCREENC">      0.00000000</i>
   <i type="int" name="NBANDSGWLOW">     0</i>
  </separator>
  <separator name="vdW DFT" >
   <i type="logical" name="LUSE_VDW"> F  </i>
   <i name="Zab_VDW">     -0.84910000</i>
   <i name="PARAM1">      0.12340000</i>
   <i name="PARAM2">      1.00000000</i>
   <i name="PARAM3">      0.00000000</i>
  </separator>
  <separator name="model GW" >
   <i type="int" name="MODEL_GW">     0</i>
   <i name="MODEL_EPS0">     23.69008120</i>
   <i name="MODEL_ALPHA">      1.00000000</i>
  </separator>
  <separator name="linear response parameters" >
   <i type="logical" name="LEPSILON"> F  </i>
   <i type="logical" name="LRPA"> F  </i>
   <i type="logical" name="LNABLA"> F  </i>
   <i type="logical" name="LVEL"> F  </i>
   <i name="CSHIFT">      0.10000000</i>
   <i name="OMEGAMAX">     -1.00000000</i>
   <i name="DEG_THRESHOLD">      0.00200000</i>
   <i name="RTIME">     -0.10000000</i>
   <i name="WPLASMAI">      0.00000000</i>
   <v name="DFIELD">      0.00000000      0.00000000      0.00000000</v>
   <v name="WPLASMA">      0.00000000      0.00000000      0.00000000      0.00000000      0.00000000      0.00000000      0.00000000      0.00000000      0.00000000</v>
  </separator>
  <separator name="orbital magnetization" >
   <i type="logical" name="NUCIND"> F  </i>
   <v name="MAGPOS">      0.00000000      0.00000000      0.00000000</v>
   <i type="logical" name="LNICSALL"> T  </i>
   <i type="logical" name="ORBITALMAG"> F  </i>
   <i type="logical" name="LMAGBLOCH"> F  </i>
   <i type="logical" name="LCHIMAG"> F  </i>
   <i type="logical" name="LGAUGE"> T  </i>
   <i type="int" name="MAGATOM">     0</i>
   <v name="MAGDIPOL">      0.00000000      0.00000000      0.00000000</v>
   <v name="AVECCONST">      0.00000000      0.00000000      0.00000000</v>
  </separator>
  <separator name="response functions" >
   <i type="logical" name="LFINITE_TEMPERATURE"> F  </i>
   <i type="logical" name="LADDER"> F  </i>
   <i type="logical" name="LRPAFORCE"> F  </i>
   <i type="logical" name="LFXC"> F  </i>
   <i type="logical" name="LHARTREE"> T  </i>
   <i type="int" name="IBSE">     0</i>
   <v type="int" name="KPOINT">    -1     0     0     0</v>
   <i type="logical" name="LTCTC"> F  </i>
   <i type="logical" name="LTCTE"> F  </i>
   <i type="logical" name="LTETE"> F  </i>
   <i type="logical" name="LTRIPLET"> F  </i>
   <i type="logical" name="LFXCEPS"> F  </i>
   <i type="logical" name="LFXHEG"> F  </i>
   <i type="int" name="NATURALO">     2</i>
   <i type="logical" name="LHOLEGF"> F  </i>
   <i type="logical" name="L2ORDER"> F  </i>
   <i type="logical" name="LDMP1"> F  </i>
   <i type="logical" name="LMP2LT"> F  </i>
   <i type="logical" name="LSMP2LT"> F  </i>
   <i type="logical" name="LGWLF"> F  </i>
   <i name="ENCUTGW">     -2.00000000</i>
   <i name="ENCUTGWSOFT">     -2.00000000</i>
   <i name="ENCUTLF">     -1.00000000</i>
   <i type="logical" name="LESF_SPLINES"> F  </i>
   <i type="int" name="LMAXMP2">    -1</i>
   <i name="SCISSOR">      0.00000000</i>
   <i type="int" name="NOMEGA">     0</i>
   <i type="int" name="NOMEGAR">     0</i>
   <i type="int" name="NBANDSGW">    -1</i>
   <i type="int" name="NBANDSO">    -1</i>
   <i type="int" name="NBANDSV">    -1</i>
   <i type="int" name="NELMGW">     1</i>
   <i type="int" name="NELMHF">     1</i>
   <i type="int" name="DIM">     3</i>
   <i type="int" name="IESPILON">     4</i>
   <i type="int" name="ANTIRES">     0</i>
   <i name="OMEGAMAX">    -30.00000000</i>
   <i name="OMEGAMIN">    -30.00000000</i>
   <i name="OMEGATL">   -200.00000000</i>
   <i type="int" name="OMEGAGRID">     0</i>
   <i name="CSHIFT">     -0.10000000</i>
   <i type="logical" name="LSELFENERGY"> F  </i>
   <i type="logical" name="LSPECTRAL"> F  </i>
   <i type="logical" name="LSPECTRALGW"> F  </i>
   <i type="logical" name="LSINGLES"> F  </i>
   <i type="logical" name="LFERMIGW"> F  </i>
   <i type="logical" name="ODDONLYGW"> F  </i>
   <i type="logical" name="EVENONLYGW"> F  </i>
   <i type="int" name="NKREDLFX">     1</i>
   <i type="int" name="NKREDLFY">     1</i>
   <i type="int" name="NKREDLFZ">     1</i>
   <i type="int" name="MAXMEM">  2800</i>
   <i type="int" name="TELESCOPE">     0</i>
   <i type="int" name="NTAUPAR">    -1</i>
   <i type="int" name="NOMEGAPAR">    -1</i>
   <i name="DAMP_NEWTON">      0.80000001</i>
   <i name="LAMBDA">      1.00000000</i>
  </separator>
  <separator name="External order field" >
   <i name="OFIELD_KAPPA">      0.00000000</i>
   <v name="OFIELD_K">      0.00000000      0.00000000      0.00000000</v>
   <i name="OFIELD_Q6_NEAR">      0.00000000</i>
   <i name="OFIELD_Q6_FAR">      0.00000000</i>
   <i name="OFIELD_A">      0.00000000</i>
  </separator>
  <separator name="optional k-points parameters" >
   <i type="int" name="KPOINTS_OPT_MODE">     1</i>
   <i type="logical" name="LKPOINTS_OPT"> F  </i>
  </separator>
  <separator name="solvation model" >
   <i type="logical" name="LSOL"> F  </i>
  </separator>
 </parameters>
 <atominfo>
  <atoms>      59 </atoms>
  <types>       4 </types>
  <array name="atoms" >
   <dimension dim="1">ion</dimension>
   <field type="string">element</field>
   <field type="int">atomtype</field>
   <set>
    <rc><c>C </c><c>   1</c></rc>
    <rc><c>C </c><c>   1</c></rc>
    <rc><c>C </c><c>   1</c></rc>
    <rc><c>C </c><c>   1</c></rc>
    <rc><c>C </c><c>   1</c></rc>
    <rc><c>C </c><c>   1</c></rc>
    <rc><c>C </c><c>   1</c></rc>
    <rc><c>C </c><c>   1</c></rc>
    <rc><c>C </c><c>   1</c></rc>
    <rc><c>C </c><c>   1</c></rc>
    <rc><c>C </c><c>   1</c></rc>
    <rc><c>C </c><c>   1</c></rc>
    <rc><c>C </c><c>   1</c></rc>
    <rc><c>C </c><c>   1</c></rc>
    <rc><c>C </c><c>   1</c></rc>
    <rc><c>C </c><c>   1</c></rc>
    <rc><c>C </c><c>   1</c></rc>
    <rc><c>C </c><c>   1</c></rc>
    <rc><c>C </c><c>   1</c></rc>
    <rc><c>C </c><c>   1</c></rc>
    <rc><c>C </c><c>   1</c></rc>
    <rc><c>C </c><c>   1</c></rc>
    <rc><c>C </c><c>   1</c></rc>
    <rc><c>C </c><c>   1</c></rc>
    <rc><c>N </c><c>   2</c></rc>
    <rc><c>N </c><c>   2</c></rc>
    <rc><c>N </c><c>   2</c></rc>
    <rc><c>N </c><c>   2</c></rc>
    <rc><c>N </c><c>   2</c></rc>
    <rc><c>N </c><c>   2</c></rc>
    <rc><c>N </c><c>   2</c></rc>
    <rc><c>N </c><c>   2</c></rc>
    <rc><c>N </c><c>   2</c></rc>
    <rc><c>N </c><c>   2</c></rc>
    <rc><c>N </c><c>   2</c></rc>
    <rc><c>N </c><c>   2</c></rc>
    <rc><c>N </c><c>   2</c></rc>
    <rc><c>N </c><c>   2</c></rc>
    <rc><c>N </c><c>   2</c></rc>
    <rc><c>N </c><c>   2</c></rc>
    <rc><c>N </c><c>   2</c></rc>
    <rc><c>N </c><c>   2</c></rc>
    <rc><c>N </c><c>   2</c></rc>
    <rc><c>N </c><c>   2</c></rc>
    <rc><c>N </c><c>   2</c></rc>
    <rc><c>N </c><c>   2</c></rc>
    <rc><c>N </c><c>   2</c></rc>
    <rc><c>N </c><c>   2</c></rc>
    <rc><c>N </c><c>   2</c></rc>
    <rc><c>N </c><c>   2</c></rc>
    <rc><c>N </c><c>   2</c></rc>
    <rc><c>N </c><c>   2</c></rc>
    <rc><c>N </c><c>   2</c></rc>
    <rc><c>N </c><c>   2</c></rc>
    <rc><c>N </c><c>   2</c></rc>
    <rc><c>N </c><c>   2</c></rc>
    <rc><c>Ag</c><c>   3</c></rc>
    <rc><c>Pd</c><c>   4</c></rc>
    <rc><c>Pd</c><c>   4</c></rc>
   </set>
  </array>
  <array name="atomtypes" >
   <dimension dim="1">type</dimension>
   <field type="int">atomspertype</field>
   <field type="string">element</field>
   <field>mass</field>
   <field>valence</field>
   <field type="string">pseudopotential</field>
   <set>
    <rc><c>  24</c><c>C </c><c>     12.01100000</c><c>      4.00000000</c><c>  PAW_PBE C 08Apr2002                   </c></rc>
    <rc><c>  32</c><c>N </c><c>     14.00100000</c><c>      5.00000000</c><c>  PAW_PBE N 08Apr2002                   </c></rc>
    <rc><c>   1</c><c>Ag</c><c>    107.86800000</c><c>     11.00000000</c><c>  PAW_PBE Ag 02Apr2005                  </c></rc>
    <rc><c>   2</c><c>Pd</c><c>    106.42000000</c><c>     10.00000000</c><c>  PAW_PBE Pd 04Jan2005                  </c></rc>
   </set>
  </array>
 </atominfo>
 <structure name="initialpos" >
  <crystal>
   <varray name="basis" >
    <v>      13.75970367       0.00000000       0.00000000 </v>
    <v>       0.00000000      11.28669971       0.00000000 </v>
    <v>       0.00000000       0.00000000      15.00000000 </v>
   </varray>
   <i name="volume">   2329.52465126 </i>
   <varray name="rec_basis" >
    <v>       0.07267598       0.00000000       0.00000000 </v>
    <v>       0.00000000       0.08859986       0.00000000 </v>
    <v>       0.00000000       0.00000000       0.06666667 </v>
   </varray>
  </crystal>
  <varray name="positions" >
   <v>       0.07054120       0.38816457       0.22227495 </v>
   <v>       0.98151180       0.21832942       0.16785344 </v>
   <v>       0.22877304       0.39667288       0.18904348 </v>
   <v>       0.82472337       0.57572318       0.18403191 </v>
   <v>       0.14970601       0.24663792       0.12277753 </v>
   <v>       0.90758628       0.38434512       0.21811946 </v>
   <v>       0.56886571       0.39316130       0.23173729 </v>
   <v>       0.47768100       0.22391730       0.18017943 </v>
   <v>       0.73035049       0.39802658       0.19909345 </v>
   <v>       0.31101118       0.58132963       0.17977696 </v>
   <v>       0.64681854       0.25040749       0.13377315 </v>
   <v>       0.40275100       0.39355427       0.22106508 </v>
   <v>       0.81808056       0.88988957       0.05647519 </v>
   <v>       0.73319531       0.72568325       0.12448457 </v>
   <v>       0.97932824       0.89597624       0.07999408 </v>
   <v>       0.06867909       0.07698375       0.09423854 </v>
   <v>       0.90528082       0.74258583       0.14719628 </v>
   <v>       0.65472406       0.89333727       0.07691603 </v>
   <v>       0.31825350       0.89473226       0.05377466 </v>
   <v>       0.22716619       0.72126926       0.10084126 </v>
   <v>       0.47498917       0.90396535       0.09489577 </v>
   <v>       0.56592959       0.08075138       0.11024766 </v>
   <v>       0.38612516       0.76037560       0.16363174 </v>
   <v>       0.15509033       0.88950396       0.05271529 </v>
   <v>       0.98784551       0.43883046       0.24713656 </v>
   <v>       0.89991795       0.26975381       0.19549767 </v>
   <v>       0.15759857       0.43325808       0.24240148 </v>
   <v>       0.14788829       0.14353661       0.08017307 </v>
   <v>       0.98633649       0.10796021       0.13653167 </v>
   <v>       0.22915942       0.31533454       0.12527490 </v>
   <v>       0.06735802       0.28598388       0.16888911 </v>
   <v>       0.82274912       0.45552252       0.21014877 </v>
   <v>       0.48493735       0.44793349       0.25146232 </v>
   <v>       0.39648714       0.27665554       0.20625030 </v>
   <v>       0.65756919       0.43524210       0.25419888 </v>
   <v>       0.64488604       0.14640144       0.09374788 </v>
   <v>       0.48286722       0.11321356       0.15081376 </v>
   <v>       0.72606390       0.31870920       0.13454719 </v>
   <v>       0.56470606       0.29135323       0.18008364 </v>
   <v>       0.31888640       0.46086995       0.20329135 </v>
   <v>       0.73287748       0.94248397       0.03965616 </v>
   <v>       0.64891188       0.78317499       0.11254597 </v>
   <v>       0.90382696       0.93469024       0.03189926 </v>
   <v>       0.90701680       0.63807548       0.18754912 </v>
   <v>       0.73647441       0.61699787       0.15934394 </v>
   <v>       0.98321706       0.81212363       0.14197152 </v>
   <v>       0.81925020       0.78400528       0.10639513 </v>
   <v>       0.56804185       0.96074410       0.08520074 </v>
   <v>       0.23699719       0.94478449       0.02657725 </v>
   <v>       0.14820250       0.77173059       0.06843984 </v>
   <v>       0.40793432       0.93556381       0.03646331 </v>
   <v>       0.38047481       0.65838217       0.20939239 </v>
   <v>       0.23501053       0.60894863       0.12850628 </v>
   <v>       0.46527775       0.83024755       0.16578047 </v>
   <v>       0.31113112       0.79334051       0.10891910 </v>
   <v>       0.06990262       0.95754122       0.06514651 </v>
   <v>       0.57736557       0.77647674       0.24193941 </v>
   <v>       0.65582252       0.60772566       0.29790490 </v>
   <v>       0.48700699       0.61617049       0.29396059 </v>
  </varray>
 </structure>
 <calculation>
  <scstep>
   <time name="dav">    1.66    1.66</time>
   <time name="total">    1.69    1.70</time>
   <dipole>
    <v name="dipole">      0.00000000       0.00000000       0.00002242 </v>
    <i name="Tr[quadrupol]">  -8053.89060097 </i>
    <i name="Echarged">      0.00000000 </i>
    <i name="Edipol_quadrupol">      0.00000000 </i>
    <i name="Eion">      0.00000000 </i>
   </dipole>
   <energy>
    <i name="alphaZ">    171.26572456 </i>
    <i name="ewald">  28662.12842187 </i>
    <i name="hartreedc"> -40811.29671705 </i>
    <i name="XCdc">    887.25913055 </i>
    <i name="pawpsdc">  11779.31530311 </i>
    <i name="pawaedc"> -11660.53507825 </i>
    <i name="eentropy">     -0.10440454 </i>
    <i name="bandstr">  -1187.84110205 </i>
    <i name="atom">  14650.99966370 </i>
    <i name="e_fr_energy">   2491.19094191 </i>
    <i name="e_wo_entrp">   2491.29534645 </i>
    <i name="e_0_energy">   2491.24314418 </i>
   </energy>
  </scstep>
  <scstep>
   <time name="dav">    1.90    1.91</time>
   <time name="total">    1.90    1.91</time>
   <dipole>
    <v name="dipole">      0.00000000       0.00000000       0.00002242 </v>
    <i name="Tr[quadrupol]">  -8053.89060097 </i>
    <i name="Echarged">      0.00000000 </i>
    <i name="Edipol_quadrupol">      0.00000000 </i>
    <i name="Eion">      0.00000000 </i>
   </dipole>
   <energy>
    <i name="e_fr_energy">    -54.17330791 </i>
    <i name="e_wo_entrp">    -54.14309740 </i>
    <i name="e_0_energy">    -54.15820266 </i>
   </energy>
  </scstep>
  <scstep>
   <time name="dav">    1.67    1.67</time>
   <time name="total">    1.67    1.67</time>
   <dipole>
    <v name="dipole">      0.00000000       0.00000000       0.00002242 </v>
    <i name="Tr[quadrupol]">  -8053.89060097 </i>
    <i name="Echarged">      0.00000000 </i>
    <i name="Edipol_quadrupol">      0.00000000 </i>
    <i name="Eion">      0.00000000 </i>
   </dipole>
   <energy>
    <i name="e_fr_energy">   -499.19638407 </i>
    <i name="e_wo_entrp">   -499.10817251 </i>
    <i name="e_0_energy">   -499.15227829 </i>
   </energy>
  </scstep>
  <scstep>
   <time name="dav">    1.64    1.64</time>
   <time name="total">    1.64    1.64</time>
   <dipole>
    <v name="dipole">      0.00000000       0.00000000       0.00002242 </v>
    <i name="Tr[quadrupol]">  -8053.89060097 </i>
    <i name="Echarged">      0.00000000 </i>
    <i name="Edipol_quadrupol">      0.00000000 </i>
    <i name="Eion">      0.00000000 </i>
   </dipole>
   <energy>
    <i name="e_fr_energy">   -513.77104081 </i>
    <i name="e_wo_entrp">   -513.67032951 </i>
    <i name="e_0_energy">   -513.72068516 </i>
   </energy>
  </scstep>
  <scstep>
   <time name="dav">    1.82    1.82</time>
   <time name="total">    1.88    1.88</time>
   <dipole>
    <v name="dipole">      0.00000000       0.00000000       0.00002242 </v>
    <i name="Tr[quadrupol]">  -8053.89060097 </i>
    <i name="Echarged">      0.00000000 </i>
    <i name="Edipol_quadrupol">      0.00000000 </i>
    <i name="Eion">      0.00000000 </i>
   </dipole>
   <energy>
    <i name="e_fr_energy">   -514.36251665 </i>
    <i name="e_wo_entrp">   -514.26016502 </i>
    <i name="e_0_energy">   -514.31134083 </i>
   </energy>
  </scstep>
  <scstep>
   <time name="dav">    1.58    1.58</time>
   <time name="total">    1.66    1.66</time>
   <dipole>
    <v name="dipole">      0.00000000       0.00000000      -0.47677100 </v>
    <i name="Tr[quadrupol]">  -8055.28958868 </i>
    <i name="Echarged">      0.00000000 </i>
    <i name="Edipol_quadrupol">      0.00000000 </i>
    <i name="Eion">      0.00000000 </i>
   </dipole>
   <energy>
    <i name="e_fr_energy">   -487.27724655 </i>
    <i name="e_wo_entrp">   -487.20815341 </i>
    <i name="e_0_energy">   -487.24269998 </i>
   </energy>
  </scstep>
  <scstep>
   <time name="dav">    1.59    1.59</time>
   <time name="total">    1.67    1.68</time>
   <dipole>
    <v name="dipole">      0.00000000       0.00000000      -0.10916548 </v>
    <i name="Tr[quadrupol]">  -8055.46965214 </i>
    <i name="Echarged">      0.00000000 </i>
    <i name="Edipol_quadrupol">      0.00000000 </i>
    <i name="Eion">      0.00000000 </i>
   </dipole>
   <energy>
    <i name="e_fr_energy">   -483.70270550 </i>
    <i name="e_wo_entrp">   -483.63468245 </i>
    <i name="e_0_energy">   -483.66869397 </i>
   </energy>
  </scstep>
  <scstep>
   <time name="dav">    1.57    1.58</time>
   <time name="total">    1.65    1.66</time>
   <dipole>
    <v name="dipole">      0.00000000       0.00000000      -0.42823256 </v>
    <i name="Tr[quadrupol]">  -8056.50216329 </i>
    <i name="Echarged">      0.00000000 </i>
    <i name="Edipol_quadrupol">      0.00000000 </i>
    <i name="Eion">      0.00000000 </i>
   </dipole>
   <energy>
    <i name="e_fr_energy">   -484.01580512 </i>
    <i name="e_wo_entrp">   -483.95112140 </i>
    <i name="e_0_energy">   -483.98346326 </i>
   </energy>
  </scstep>
  <scstep>
   <time name="dav">    1.56    1.56</time>
   <time name="total">    1.65    1.65</time>
   <dipole>
    <v name="dipole">      0.00000000       0.00000000      -0.27498144 </v>
    <i name="Tr[quadrupol]">  -8056.87257000 </i>
    <i name="Echarged">      0.00000000 </i>
    <i name="Edipol_quadrupol">      0.00000000 </i>
    <i name="Eion">      0.00000000 </i>
   </dipole>
   <energy>
    <i name="e_fr_energy">   -481.38790023 </i>
    <i name="e_wo_entrp">   -481.33254394 </i>
    <i name="e_0_energy">   -481.36022209 </i>
   </energy>
  </scstep>
  <scstep>
   <time name="dav">    1.60    1.60</time>
   <time name="total">    1.68    1.68</time>
   <dipole>
    <v name="dipole">      0.00000000       0.00000000      -0.13832575 </v>
    <i name="Tr[quadrupol]">  -8056.94703309 </i>
    <i name="Echarged">      0.00000000 </i>
    <i name="Edipol_quadrupol">      0.00000000 </i>
    <i name="Eion">      0.00000000 </i>
   </dipole>
   <energy>
    <i name="e_fr_energy">   -480.75954774 </i>
    <i name="e_wo_entrp">   -480.70024727 </i>
    <i name="e_0_energy">   -480.72989751 </i>
   </energy>
  </scstep>
  <scstep>
   <time name="dav">    1.57    1.57</time>
   <time name="total">    1.64    1.64</time>
   <dipole>
    <v name="dipole">      0.00000000       0.00000000      -0.11416167 </v>
    <i name="Tr[quadrupol]">  -8056.99622227 </i>
    <i name="Echarged">      0.00000000 </i>
    <i name="Edipol_quadrupol">      0.00000000 </i>
    <i name="Eion">      0.00000000 </i>
   </dipole>
   <energy>
    <i name="e_fr_energy">   -480.69613546 </i>
    <i name="e_wo_entrp">   -480.63447777 </i>
    <i name="e_0_energy">   -480.66530662 </i>
   </energy>
  </scstep>
  <scstep>
   <time name="dav">    1.57    1.57</time>
   <time name="total">    1.65    1.65</time>
   <dipole>
    <v name="dipole">      0.00000000       0.00000000      -0.06217791 </v>
    <i name="Tr[quadrupol]">  -8057.29612821 </i>
    <i name="Echarged">      0.00000000 </i>
    <i name="Edipol_quadrupol">      0.00000000 </i>
    <i name="Eion">      0.00000000 </i>
   </dipole>
   <energy>
    <i name="e_fr_energy">   -480.65988021 </i>
    <i name="e_wo_entrp">   -480.59387234 </i>
    <i name="e_0_energy">   -480.62687628 </i>
   </energy>
  </scstep>
  <scstep>
   <time name="dav">    1.57    1.57</time>
   <time name="total">    1.65    1.65</time>
   <dipole>
    <v name="dipole">      0.00000000       0.00000000      -0.02823091 </v>
    <i name="Tr[quadrupol]">  -8057.56260577 </i>
    <i name="Echarged">      0.00000000 </i>
    <i name="Edipol_quadrupol">      0.00000000 </i>
    <i name="Eion">      0.00000000 </i>
   </dipole>
   <energy>
    <i name="e_fr_energy">   -480.65495290 </i>
    <i name="e_wo_entrp">   -480.58819104 </i>
    <i name="e_0_energy">   -480.62157197 </i>
   </energy>
  </scstep>
  <scstep>
   <time name="dav">    1.57    1.58</time>
   <time name="total">    1.65    1.65</time>
   <dipole>
    <v name="dipole">      0.00000000       0.00000000      -0.01038900 </v>
    <i name="Tr[quadrupol]">  -8057.68929780 </i>
    <i name="Echarged">      0.00000000 </i>
    <i name="Edipol_quadrupol">      0.00000000 </i>
    <i name="Eion">      0.00000000 </i>
   </dipole>
   <energy>
    <i name="e_fr_energy">   -480.65191257 </i>
    <i name="e_wo_entrp">   -480.58438819 </i>
    <i name="e_0_energy">   -480.61815038 </i>
   </energy>
  </scstep>
  <scstep>
   <time name="dav">    1.58    1.58</time>
   <time name="total">    1.66    1.66</time>
   <dipole>
    <v name="dipole">      0.00000000       0.00000000       0.00104238 </v>
    <i name="Tr[quadrupol]">  -8057.86949376 </i>
    <i name="Echarged">      0.00000000 </i>
    <i name="Edipol_quadrupol">      0.00000000 </i>
    <i name="Eion">      0.00000000 </i>
   </dipole>
   <energy>
    <i name="e_fr_energy">   -480.65466918 </i>
    <i name="e_wo_entrp">   -480.58758817 </i>
    <i name="e_0_energy">   -480.62112867 </i>
   </energy>
  </scstep>
  <scstep>
   <time name="dav">    1.58    1.58</time>
   <time name="total">    1.66    1.66</time>
   <dipole>
    <v name="dipole">      0.00000000       0.00000000       0.01968389 </v>
    <i name="Tr[quadrupol]">  -8058.17365445 </i>
    <i name="Echarged">      0.00000000 </i>
    <i name="Edipol_quadrupol">      0.00000000 </i>
    <i name="Eion">      0.00000000 </i>
   </dipole>
   <energy>
    <i name="e_fr_energy">   -480.66024823 </i>
    <i name="e_wo_entrp">   -480.59411007 </i>
    <i name="e_0_energy">   -480.62717915 </i>
   </energy>
  </scstep>
  <scstep>
   <time name="dav">    1.58    1.58</time>
   <time name="total">    1.66    1.66</time>
   <dipole>
    <v name="dipole">      0.00000000       0.00000000       0.03652761 </v>
    <i name="Tr[quadrupol]">  -8058.34431580 </i>
    <i name="Echarged">      0.00000000 </i>
    <i name="Edipol_quadrupol">      0.00000000 </i>
    <i name="Eion">      0.00000000 </i>
   </dipole>
   <energy>
    <i name="e_fr_energy">   -480.66339406 </i>
    <i name="e_wo_entrp">   -480.59630721 </i>
    <i name="e_0_energy">   -480.62985064 </i>
   </energy>
  </scstep>
  <scstep>
   <time name="dav">    1.61    1.61</time>
   <time name="total">    1.70    1.70</time>
   <dipole>
    <v name="dipole">      0.00000000       0.00000000       0.04960708 </v>
    <i name="Tr[quadrupol]">  -8058.55553616 </i>
    <i name="Echarged">      0.00000000 </i>
    <i name="Edipol_quadrupol">      0.00000000 </i>
    <i name="Eion">      0.00000000 </i>
   </dipole>
   <energy>
    <i name="e_fr_energy">   -480.66746119 </i>
    <i name="e_wo_entrp">   -480.60091215 </i>
    <i name="e_0_energy">   -480.63418667 </i>
   </energy>
  </scstep>
  <scstep>
   <time name="dav">    1.57    1.57</time>
   <time name="total">    1.65    1.66</time>
   <dipole>
    <v name="dipole">      0.00000000       0.00000000       0.07381399 </v>
    <i name="Tr[quadrupol]">  -8058.87837125 </i>
    <i name="Echarged">      0.00000000 </i>
    <i name="Edipol_quadrupol">      0.00000000 </i>
    <i name="Eion">      0.00000000 </i>
   </dipole>
   <energy>
    <i name="e_fr_energy">   -480.67343015 </i>
    <i name="e_wo_entrp">   -480.60653472 </i>
    <i name="e_0_energy">   -480.63998243 </i>
   </energy>
  </scstep>
  <scstep>
   <time name="dav">    1.51    1.52</time>
   <time name="total">    1.59    1.60</time>
   <dipole>
    <v name="dipole">      0.00000000       0.00000000       0.08174082 </v>
    <i name="Tr[quadrupol]">  -8059.04321861 </i>
    <i name="Echarged">      0.00000000 </i>
    <i name="Edipol_quadrupol">      0.00000000 </i>
    <i name="Eion">      0.00000000 </i>
   </dipole>
   <energy>
    <i name="e_fr_energy">   -480.67583445 </i>
    <i name="e_wo_entrp">   -480.60890328 </i>
    <i name="e_0_energy">   -480.64236887 </i>
   </energy>
  </scstep>
  <scstep>
   <time name="dav">    1.47    1.47</time>
   <time name="total">    1.55    1.55</time>
   <dipole>
    <v name="dipole">      0.00000000       0.00000000       0.10510222 </v>
    <i name="Tr[quadrupol]">  -8059.24801895 </i>
    <i name="Echarged">      0.00000000 </i>
    <i name="Edipol_quadrupol">      0.00000000 </i>
    <i name="Eion">      0.00000000 </i>
   </dipole>
   <energy>
    <i name="e_fr_energy">   -480.67690750 </i>
    <i name="e_wo_entrp">   -480.60979159 </i>
    <i name="e_0_energy">   -480.64334955 </i>
   </energy>
  </scstep>
  <scstep>
   <time name="dav">    1.39    1.39</time>
   <time name="total">    1.46    1.47</time>
   <dipole>
    <v name="dipole">      0.00000000       0.00000000       0.10945469 </v>
    <i name="Tr[quadrupol]">  -8059.34902796 </i>
    <i name="Echarged">      0.00000000 </i>
    <i name="Edipol_quadrupol">      0.00000000 </i>
    <i name="Eion">      0.00000000 </i>
   </dipole>
   <energy>
    <i name="e_fr_energy">   -480.67739442 </i>
    <i name="e_wo_entrp">   -480.61047660 </i>
    <i name="e_0_energy">   -480.64393551 </i>
   </energy>
  </scstep>
  <scstep>
   <time name="dav">    1.38    1.38</time>
   <time name="total">    1.45    1.46</time>
   <dipole>
    <v name="dipole">      0.00000000       0.00000000       0.10429283 </v>
    <i name="Tr[quadrupol]">  -8059.41363697 </i>
    <i name="Echarged">      0.00000000 </i>
    <i name="Edipol_quadrupol">      0.00000000 </i>
    <i name="Eion">      0.00000000 </i>
   </dipole>
   <energy>
    <i name="e_fr_energy">   -480.67792758 </i>
    <i name="e_wo_entrp">   -480.61113949 </i>
    <i name="e_0_energy">   -480.64453353 </i>
   </energy>
  </scstep>
  <scstep>
   <time name="dav">    1.28    1.28</time>
   <time name="total">    1.36    1.36</time>
   <dipole>
    <v name="dipole">      0.00000000       0.00000000       0.09875721 </v>
    <i name="Tr[quadrupol]">  -8059.44539116 </i>
    <i name="Echarged">      0.00000000 </i>
    <i name="Edipol_quadrupol">      0.00000000 </i>
    <i name="Eion">      0.00000000 </i>
   </dipole>
   <energy>
    <i name="e_fr_energy">   -480.67823536 </i>
    <i name="e_wo_entrp">   -480.61151473 </i>
    <i name="e_0_energy">   -480.64487505 </i>
   </energy>
  </scstep>
  <scstep>
   <time name="dav">    1.18    1.18</time>
   <time name="total">    1.26    1.26</time>
   <dipole>
    <v name="dipole">      0.00000000       0.00000000       0.09551875 </v>
    <i name="Tr[quadrupol]">  -8059.44539192 </i>
    <i name="Echarged">      0.00000000 </i>
    <i name="Edipol_quadrupol">      0.00000000 </i>
    <i name="Eion">      0.00000000 </i>
   </dipole>
   <energy>
    <i name="e_fr_energy">   -480.67836414 </i>
    <i name="e_wo_entrp">   -480.61155492 </i>
    <i name="e_0_energy">   -480.64495953 </i>
   </energy>
  </scstep>
  <scstep>
   <time name="dav">    1.15    1.15</time>
   <time name="total">    1.24    1.24</time>
   <dipole>
    <v name="dipole">      0.00000000       0.00000000       0.09145077 </v>
    <i name="Tr[quadrupol]">  -8059.44708262 </i>
    <i name="Echarged">      0.00000000 </i>
    <i name="Edipol_quadrupol">      0.00000000 </i>
    <i name="Eion">      0.00000000 </i>
   </dipole>
   <energy>
    <i name="e_fr_energy">   -480.67849221 </i>
    <i name="e_wo_entrp">   -480.61168293 </i>
    <i name="e_0_energy">   -480.64508757 </i>
   </energy>
  </scstep>
  <scstep>
   <time name="dav">    1.16    1.17</time>
   <time name="total">    1.24    1.25</time>
   <dipole>
    <v name="dipole">      0.00000000       0.00000000       0.08973981 </v>
    <i name="Tr[quadrupol]">  -8059.43684670 </i>
    <i name="Echarged">      0.00000000 </i>
    <i name="Edipol_quadrupol">      0.00000000 </i>
    <i name="Eion">      0.00000000 </i>
   </dipole>
   <energy>
    <i name="e_fr_energy">   -480.67853114 </i>
    <i name="e_wo_entrp">   -480.61174504 </i>
    <i name="e_0_energy">   -480.64513809 </i>
   </energy>
  </scstep>
  <scstep>
   <time name="dav">    1.13    1.13</time>
   <time name="total">    1.21    1.21</time>
   <dipole>
    <v name="dipole">      0.00000000       0.00000000       0.08760326 </v>
    <i name="Tr[quadrupol]">  -8059.41653037 </i>
    <i name="Echarged">      0.00000000 </i>
    <i name="Edipol_quadrupol">      0.00000000 </i>
    <i name="Eion">      0.00000000 </i>
   </dipole>
   <energy>
    <i name="e_fr_energy">   -480.67858580 </i>
    <i name="e_wo_entrp">   -480.61178015 </i>
    <i name="e_0_energy">   -480.64518298 </i>
   </energy>
  </scstep>
  <scstep>
   <time name="dav">    1.11    1.11</time>
   <time name="total">    1.19    1.19</time>
   <dipole>
    <v name="dipole">      0.00000000       0.00000000       0.08716705 </v>
    <i name="Tr[quadrupol]">  -8059.40328802 </i>
    <i name="Echarged">      0.00000000 </i>
    <i name="Edipol_quadrupol">      0.00000000 </i>
    <i name="Eion">      0.00000000 </i>
   </dipole>
   <energy>
    <i name="e_fr_energy">   -480.67859646 </i>
    <i name="e_wo_entrp">   -480.61177734 </i>
    <i name="e_0_energy">   -480.64518690 </i>
   </energy>
  </scstep>
  <scstep>
   <time name="dav">    1.14    1.14</time>
   <time name="total">    1.21    1.22</time>
   <dipole>
    <v name="dipole">      0.00000000       0.00000000       0.08682679 </v>
    <i name="Tr[quadrupol]">  -8059.39123337 </i>
    <i name="Echarged">      0.00000000 </i>
    <i name="Edipol_quadrupol">      0.00000000 </i>
    <i name="Eion">      0.00000000 </i>
   </dipole>
   <energy>
    <i name="e_fr_energy">   -480.67861042 </i>
    <i name="e_wo_entrp">   -480.61177910 </i>
    <i name="e_0_energy">   -480.64519476 </i>
   </energy>
  </scstep>
  <scstep>
   <time name="dav">    1.11    1.11</time>
   <time name="total">    1.15    1.15</time>
   <dipole>
    <v name="dipole">      0.00000000       0.00000000       0.08682357 </v>
    <i name="Tr[quadrupol]">  -8059.39328878 </i>
    <i name="Echarged">      0.00000000 </i>
    <i name="Edipol_quadrupol">      0.00000000 </i>
    <i name="Eion">      0.00000000 </i>
   </dipole>
   <energy>
    <i name="alphaZ">    171.62883755 </i>
    <i name="ewald">  28662.12842187 </i>
    <i name="hartreedc"> -41450.01802920 </i>
    <i name="XCdc">    918.32588998 </i>
    <i name="pawpsdc">  30768.11939733 </i>
    <i name="pawaedc"> -30670.44764233 </i>
    <i name="eentropy">     -0.06683401 </i>
    <i name="bandstr">  -3531.34831910 </i>
    <i name="atom">  14650.99966370 </i>
    <i name="e_fr_energy">   -480.67861422 </i>
    <i name="e_wo_entrp">   -480.61178021 </i>
    <i name="e_0_energy">   -480.64519722 </i>
   </energy>
  </scstep>
  <structure>
   <crystal>
    <varray name="basis" >
     <v>      13.75970367       0.00000000       0.00000000 </v>
     <v>       0.00000000      11.28669971       0.00000000 </v>
     <v>       0.00000000       0.00000000      15.00000000 </v>
    </varray>
    <i name="volume">   2329.52465126 </i>
    <varray name="rec_basis" >
     <v>       0.07267598       0.00000000       0.00000000 </v>
     <v>       0.00000000       0.08859986       0.00000000 </v>
     <v>       0.00000000       0.00000000       0.06666667 </v>
    </varray>
   </crystal>
   <varray name="positions" >
    <v>       0.07054120       0.38816457       0.22227495 </v>
    <v>       0.98151180       0.21832942       0.16785344 </v>
    <v>       0.22877304       0.39667288       0.18904348 </v>
    <v>       0.82472337       0.57572318       0.18403191 </v>
    <v>       0.14970601       0.24663792       0.12277753 </v>
    <v>       0.90758628       0.38434512       0.21811946 </v>
    <v>       0.56886571       0.39316130       0.23173729 </v>
    <v>       0.47768100       0.22391730       0.18017943 </v>
    <v>       0.73035049       0.39802658       0.19909345 </v>
    <v>       0.31101118       0.58132963       0.17977696 </v>
    <v>       0.64681854       0.25040749       0.13377315 </v>
    <v>       0.40275100       0.39355427       0.22106508 </v>
    <v>       0.81808056       0.88988957       0.05647519 </v>
    <v>       0.73319531       0.72568325       0.12448457 </v>
    <v>       0.97932824       0.89597624       0.07999408 </v>
    <v>       0.06867909       0.07698375       0.09423854 </v>
    <v>       0.90528082       0.74258583       0.14719628 </v>
    <v>       0.65472406       0.89333727       0.07691603 </v>
    <v>       0.31825350       0.89473226       0.05377466 </v>
    <v>       0.22716619       0.72126926       0.10084126 </v>
    <v>       0.47498917       0.90396535       0.09489577 </v>
    <v>       0.56592959       0.08075138       0.11024766 </v>
    <v>       0.38612516       0.76037560       0.16363174 </v>
    <v>       0.15509033       0.88950396       0.05271529 </v>
    <v>       0.98784551       0.43883046       0.24713656 </v>
    <v>       0.89991795       0.26975381       0.19549767 </v>
    <v>       0.15759857       0.43325808       0.24240148 </v>
    <v>       0.14788829       0.14353661       0.08017307 </v>
    <v>       0.98633649       0.10796021       0.13653167 </v>
    <v>       0.22915942       0.31533454       0.12527490 </v>
    <v>       0.06735802       0.28598388       0.16888911 </v>
    <v>       0.82274912       0.45552252       0.21014877 </v>
    <v>       0.48493735       0.44793349       0.25146232 </v>
    <v>       0.39648714       0.27665554       0.20625030 </v>
    <v>       0.65756919       0.43524210       0.25419888 </v>
    <v>       0.64488604       0.14640144       0.09374788 </v>
    <v>       0.48286722       0.11321356       0.15081376 </v>
    <v>       0.72606390       0.31870920       0.13454719 </v>
    <v>       0.56470606       0.29135323       0.18008364 </v>
    <v>       0.31888640       0.46086995       0.20329135 </v>
    <v>       0.73287748       0.94248397       0.03965616 </v>
    <v>       0.64891188       0.78317499       0.11254597 </v>
    <v>       0.90382696       0.93469024       0.03189926 </v>
    <v>       0.90701680       0.63807548       0.18754912 </v>
    <v>       0.73647441       0.61699787       0.15934394 </v>
    <v>       0.98321706       0.81212363       0.14197152 </v>
    <v>       0.81925020       0.78400528       0.10639513 </v>
    <v>       0.56804185       0.96074410       0.08520074 </v>
    <v>       0.23699719       0.94478449       0.02657725 </v>
    <v>       0.14820250       0.77173059       0.06843984 </v>
    <v>       0.40793432       0.93556381       0.03646331 </v>
    <v>       0.38047481       0.65838217       0.20939239 </v>
    <v>       0.23501053       0.60894863       0.12850628 </v>
    <v>       0.46527775       0.83024755       0.16578047 </v>
    <v>       0.31113112       0.79334051       0.10891910 </v>
    <v>       0.06990262       0.95754122       0.06514651 </v>
    <v>       0.57736557       0.77647674       0.24193941 </v>
    <v>       0.65582252       0.60772566       0.29790490 </v>
    <v>       0.48700699       0.61617049       0.29396059 </v>
   </varray>
  </structure>
  <varray name="forces" >
   <v>      -0.06591836      -0.04993055      -0.04971664 </v>
   <v>       0.02576276       0.13255308       0.04206122 </v>
   <v>      -0.06589995       0.01653453      -0.04672175 </v>
   <v>       0.49518826      -0.00200371       0.24424107 </v>
   <v>      -0.05213646       0.07023139       0.07083540 </v>
   <v>      -0.10482372       0.09481287      -0.04588268 </v>
   <v>       0.00875931      -0.25798339      -0.14029637 </v>
   <v>       0.07250628       0.09779579      -0.00192032 </v>
   <v>       0.31697642       0.09770501      -0.05308081 </v>
   <v>      -0.28525319      -0.12850240      -0.07435009 </v>
   <v>       0.09621243       0.31504254       0.03251051 </v>
   <v>      -0.15928943       0.02505838       0.01253623 </v>
   <v>       0.25231017       0.08472743      -0.04900273 </v>
   <v>       0.46211886       0.23727683      -0.21190774 </v>
   <v>       0.10817777      -0.04317847       0.08062451 </v>
   <v>      -0.02971456       0.06349795      -0.00199209 </v>
   <v>       0.15956648       0.05808381       0.08842017 </v>
   <v>       0.14060670       0.22473929      -0.19493075 </v>
   <v>      -0.12136381       0.00750986       0.03288072 </v>
   <v>       0.04257641       0.11225755      -0.02301284 </v>
   <v>       0.08931415       0.17519123      -0.06094475 </v>
   <v>       0.19566466       0.31971550      -0.10229974 </v>
   <v>      -0.17033175       0.17282783      -0.28163833 </v>
   <v>      -0.16175213      -0.01178652       0.02866519 </v>
   <v>       0.05378943      -0.02625309      -0.01435619 </v>
   <v>      -0.00150416      -0.02699988       0.02099128 </v>
   <v>       0.11652002       0.00046906      -0.00751655 </v>
   <v>      -0.02894898      -0.04475605      -0.01163933 </v>
   <v>       0.09454090      -0.05606363      -0.05734811 </v>
   <v>       0.04179195      -0.00983402      -0.03481482 </v>
   <v>       0.02775787      -0.00723166       0.02718206 </v>
   <v>      -0.01485651      -0.23489578      -0.05824157 </v>
   <v>      -0.30918160      -0.85579463      -0.31970108 </v>
   <v>       0.07395690      -0.03658351       0.02916129 </v>
   <v>      -0.10917498      -0.53744354       0.03217045 </v>
   <v>      -0.20296929      -0.32317897      -0.02959016 </v>
   <v>      -0.01678038      -0.08785620       0.02378254 </v>
   <v>      -0.20417517      -0.21587489      -0.05793818 </v>
   <v>      -0.13853652      -0.06961131      -0.02984118 </v>
   <v>       0.01765371      -0.02350604      -0.03814335 </v>
   <v>      -0.14098033       0.00016686       0.05817569 </v>
   <v>       0.54050677       0.05252675      -1.09338214 </v>
   <v>      -0.23299908      -0.00372876       0.01213700 </v>
   <v>      -0.15960013      -0.08593546       0.05159182 </v>
   <v>      -0.25728753      -0.06873737      -0.10446805 </v>
   <v>      -0.02347422      -0.05846359      -0.10529424 </v>
   <v>      -0.35212110      -0.23011796       0.10409560 </v>
   <v>      -0.04584360      -0.21713320      -0.05448858 </v>
   <v>       0.16927853      -0.01703113       0.04504338 </v>
   <v>      -0.04396430       0.04499147      -0.06075713 </v>
   <v>       0.11219150      -0.06521266       0.01476529 </v>
   <v>      -1.04524182       0.08225220      -0.50098417 </v>
   <v>       0.10546857       0.01364720       0.07595614 </v>
   <v>      -1.71043040       0.68645753      -1.11382953 </v>
   <v>      -0.03180482      -0.07614042       0.00708454 </v>
   <v>      -0.01381848      -0.08154946      -0.01769718 </v>
   <v>       1.03437449       3.63627843       0.78814661 </v>
   <v>       3.56254478      -1.44501944       1.55534536 </v>
   <v>      -2.11593933      -1.42401268       1.56932512 </v>
  </varray>
  <varray name="stress" >
   <v>       4.23283243       3.84848153       1.85884173 </v>
   <v>       3.84848153       1.55455750      -2.55675843 </v>
   <v>       1.85884170      -2.55675842      -8.19689692 </v>
  </varray>
  <energy>
   <i name="e_fr_energy">   -480.67861422 </i>
   <i name="e_wo_entrp">   -480.61178021 </i>
   <i name="e_0_energy">   -480.64519722 </i>
  </energy>
  <time name="totalsc">   49.22   49.32</time>
 </calculation>
 <calculation>
  <scstep>
   <time name="dav">    1.43    1.43</time>
   <time name="total">    1.51    1.51</time>
   <dipole>
    <v name="dipole">      0.00000000       0.00000000       0.08686900 </v>
    <i name="Tr[quadrupol]">  -8061.96511586 </i>
    <i name="Echarged">      0.00000000 </i>
    <i name="Edipol_quadrupol">      0.00000000 </i>
    <i name="Eion">      0.00000000 </i>
   </dipole>
   <energy>
    <i name="alphaZ">    171.39175943 </i>
    <i name="ewald">  28548.79606104 </i>
    <i name="hartreedc"> -41334.17936779 </i>
    <i name="XCdc">    917.73949067 </i>
    <i name="pawpsdc">  30768.13452464 </i>
    <i name="pawaedc"> -30670.46278964 </i>
    <i name="eentropy">     -0.07504524 </i>
    <i name="bandstr">  -3533.43787992 </i>
    <i name="atom">  14650.99966370 </i>
    <i name="e_fr_energy">   -481.09358311 </i>
    <i name="e_wo_entrp">   -481.01853787 </i>
    <i name="e_0_energy">   -481.05606049 </i>
   </energy>
  </scstep>
  <scstep>
   <time name="dav">    1.57    1.58</time>
   <time name="total">    1.65    1.66</time>
   <dipole>
    <v name="dipole">      0.00000000       0.00000000       0.10772508 </v>
    <i name="Tr[quadrupol]">  -8061.97810320 </i>
    <i name="Echarged">      0.00000000 </i>
    <i name="Edipol_quadrupol">      0.00000000 </i>
    <i name="Eion">      0.00000000 </i>
   </dipole>
   <energy>
    <i name="e_fr_energy">   -481.16876648 </i>
    <i name="e_wo_entrp">   -481.08943236 </i>
    <i name="e_0_energy">   -481.12909942 </i>
   </energy>
  </scstep>
  <scstep>
   <time name="dav">    1.54    1.54</time>
   <time name="total">    1.63    1.63</time>
   <dipole>
    <v name="dipole">      0.00000000       0.00000000       0.07702462 </v>
    <i name="Tr[quadrupol]">  -8062.02430987 </i>
    <i name="Echarged">      0.00000000 </i>
    <i name="Edipol_quadrupol">      0.00000000 </i>
    <i name="Eion">      0.00000000 </i>
   </dipole>
   <energy>
    <i name="e_fr_energy">   -481.10400036 </i>
    <i name="e_wo_entrp">   -481.03214717 </i>
    <i name="e_0_energy">   -481.06807376 </i>
   </energy>
  </scstep>
  <scstep>
   <time name="dav">    1.51    1.51</time>
   <time name="total">    1.59    1.59</time>
   <dipole>
    <v name="dipole">      0.00000000       0.00000000       0.08831634 </v>
    <i name="Tr[quadrupol]">  -8062.03210131 </i>
    <i name="Echarged">      0.00000000 </i>
    <i name="Edipol_quadrupol">      0.00000000 </i>
    <i name="Eion">      0.00000000 </i>
   </dipole>
   <energy>
    <i name="e_fr_energy">   -481.10973801 </i>
    <i name="e_wo_entrp">   -481.03380836 </i>
    <i name="e_0_energy">   -481.07177319 </i>
   </energy>
  </scstep>
  <scstep>
   <time name="dav">    1.56    1.56</time>
   <time name="total">    1.63    1.63</time>
   <dipole>
    <v name="dipole">      0.00000000       0.00000000       0.07937771 </v>
    <i name="Tr[quadrupol]">  -8062.04457220 </i>
    <i name="Echarged">      0.00000000 </i>
    <i name="Edipol_quadrupol">      0.00000000 </i>
    <i name="Eion">      0.00000000 </i>
   </dipole>
   <energy>
    <i name="e_fr_energy">   -481.10672317 </i>
    <i name="e_wo_entrp">   -481.03184511 </i>
    <i name="e_0_energy">   -481.06928414 </i>
   </energy>
  </scstep>
  <scstep>
   <time name="dav">    1.56    1.56</time>
   <time name="total">    1.64    1.64</time>
   <dipole>
    <v name="dipole">      0.00000000       0.00000000       0.07829760 </v>
    <i name="Tr[quadrupol]">  -8062.06005105 </i>
    <i name="Echarged">      0.00000000 </i>
    <i name="Edipol_quadrupol">      0.00000000 </i>
    <i name="Eion">      0.00000000 </i>
   </dipole>
   <energy>
    <i name="e_fr_energy">   -481.10272514 </i>
    <i name="e_wo_entrp">   -481.02840108 </i>
    <i name="e_0_energy">   -481.06556311 </i>
   </energy>
  </scstep>
  <scstep>
   <time name="dav">    1.54    1.54</time>
   <time name="total">    1.61    1.62</time>
   <dipole>
    <v name="dipole">      0.00000000       0.00000000       0.07648408 </v>
    <i name="Tr[quadrupol]">  -8062.06384457 </i>
    <i name="Echarged">      0.00000000 </i>
    <i name="Edipol_quadrupol">      0.00000000 </i>
    <i name="Eion">      0.00000000 </i>
   </dipole>
   <energy>
    <i name="e_fr_energy">   -481.10237227 </i>
    <i name="e_wo_entrp">   -481.02896357 </i>
    <i name="e_0_energy">   -481.06566792 </i>
   </energy>
  </scstep>
  <scstep>
   <time name="dav">    1.60    1.60</time>
   <time name="total">    1.68    1.68</time>
   <dipole>
    <v name="dipole">      0.00000000       0.00000000       0.07608865 </v>
    <i name="Tr[quadrupol]">  -8062.06575661 </i>
    <i name="Echarged">      0.00000000 </i>
    <i name="Edipol_quadrupol">      0.00000000 </i>
    <i name="Eion">      0.00000000 </i>
   </dipole>
   <energy>
    <i name="e_fr_energy">   -481.10226656 </i>
    <i name="e_wo_entrp">   -481.02885774 </i>
    <i name="e_0_energy">   -481.06556215 </i>
   </energy>
  </scstep>
  <scstep>
   <time name="dav">    1.52    1.52</time>
   <time name="total">    1.60    1.61</time>
   <dipole>
    <v name="dipole">      0.00000000       0.00000000       0.07491644 </v>
    <i name="Tr[quadrupol]">  -8062.06796029 </i>
    <i name="Echarged">      0.00000000 </i>
    <i name="Edipol_quadrupol">      0.00000000 </i>
    <i name="Eion">      0.00000000 </i>
   </dipole>
   <energy>
    <i name="e_fr_energy">   -481.10225313 </i>
    <i name="e_wo_entrp">   -481.02906121 </i>
    <i name="e_0_energy">   -481.06565717 </i>
   </energy>
  </scstep>
  <scstep>
   <time name="dav">    1.31    1.31</time>
   <time name="total">    1.34    1.34</time>
   <dipole>
    <v name="dipole">      0.00000000       0.00000000       0.07349169 </v>
    <i name="Tr[quadrupol]">  -8062.05745595 </i>
    <i name="Echarged">      0.00000000 </i>
    <i name="Edipol_quadrupol">      0.00000000 </i>
    <i name="Eion">      0.00000000 </i>
   </dipole>
   <energy>
    <i name="alphaZ">    171.65485713 </i>
    <i name="ewald">  28548.79606104 </i>
    <i name="hartreedc"> -41342.30269513 </i>
    <i name="XCdc">    918.00035549 </i>
    <i name="pawpsdc">  30686.44379760 </i>
    <i name="pawaedc"> -30587.71599537 </i>
    <i name="eentropy">     -0.07303033 </i>
    <i name="bandstr">  -3526.90527563 </i>
    <i name="atom">  14650.99966370 </i>
    <i name="e_fr_energy">   -481.10226148 </i>
    <i name="e_wo_entrp">   -481.02923115 </i>
    <i name="e_0_energy">   -481.06574632 </i>
   </energy>
  </scstep>
  <structure>
   <crystal>
    <varray name="basis" >
     <v>      13.77355228       0.00000000       0.00000000 </v>
     <v>       0.00000000      11.29087166       0.00000000 </v>
     <v>       0.00000000       0.00000000      15.00000000 </v>
    </varray>
    <i name="volume">   2332.73116684 </i>
    <varray name="rec_basis" >
     <v>       0.07260291       0.00000000       0.00000000 </v>
     <v>       0.00000000       0.08856712       0.00000000 </v>
     <v>       0.00000000       0.00000000       0.06666667 </v>
    </varray>
   </crystal>
   <varray name="positions" >
    <v>       0.07049498       0.38812189       0.22224297 </v>
    <v>       0.98152986       0.21844274       0.16788050 </v>
    <v>       0.22872683       0.39668702       0.18901343 </v>
    <v>       0.82507060       0.57572147       0.18418902 </v>
    <v>       0.14966945       0.24669795       0.12282309 </v>
    <v>       0.90751278       0.38442617       0.21808994 </v>
    <v>       0.56887185       0.39294076       0.23164705 </v>
    <v>       0.47773185       0.22400090       0.18017820 </v>
    <v>       0.73057276       0.39811010       0.19905931 </v>
    <v>       0.31081116       0.58121977       0.17972913 </v>
    <v>       0.64688601       0.25067680       0.13379406 </v>
    <v>       0.40263930       0.39357569       0.22107314 </v>
    <v>       0.81825749       0.88996200       0.05644367 </v>
    <v>       0.73351935       0.72588609       0.12434826 </v>
    <v>       0.97940409       0.89593933       0.08004594 </v>
    <v>       0.06865826       0.07703804       0.09423726 </v>
    <v>       0.90539271       0.74263548       0.14725315 </v>
    <v>       0.65482265       0.89352939       0.07679065 </v>
    <v>       0.31816839       0.89473868       0.05379581 </v>
    <v>       0.22719604       0.72136523       0.10082646 </v>
    <v>       0.47505180       0.90411512       0.09485656 </v>
    <v>       0.56606680       0.08102469       0.11018186 </v>
    <v>       0.38600572       0.76052334       0.16345058 </v>
    <v>       0.15497691       0.88949388       0.05273372 </v>
    <v>       0.98788323       0.43880802       0.24712732 </v>
    <v>       0.89991689       0.26973073       0.19551117 </v>
    <v>       0.15768027       0.43325848       0.24239664 </v>
    <v>       0.14786799       0.14349835       0.08016558 </v>
    <v>       0.98640278       0.10791229       0.13649478 </v>
    <v>       0.22918873       0.31532614       0.12525251 </v>
    <v>       0.06737748       0.28597770       0.16890660 </v>
    <v>       0.82273871       0.45532171       0.21011131 </v>
    <v>       0.48472055       0.44720191       0.25125667 </v>
    <v>       0.39653900       0.27662427       0.20626906 </v>
    <v>       0.65749263       0.43478266       0.25421958 </v>
    <v>       0.64474372       0.14612517       0.09372885 </v>
    <v>       0.48285545       0.11313846       0.15082905 </v>
    <v>       0.72592073       0.31852465       0.13450992 </v>
    <v>       0.56460892       0.29129372       0.18006444 </v>
    <v>       0.31889878       0.46084986       0.20326682 </v>
    <v>       0.73277863       0.94248411       0.03969358 </v>
    <v>       0.64929089       0.78321989       0.11184267 </v>
    <v>       0.90366357       0.93468705       0.03190707 </v>
    <v>       0.90690489       0.63800202       0.18758231 </v>
    <v>       0.73629400       0.61693910       0.15927674 </v>
    <v>       0.98320060       0.81207365       0.14190379 </v>
    <v>       0.81900329       0.78380856       0.10646209 </v>
    <v>       0.56800970       0.96055848       0.08516569 </v>
    <v>       0.23711589       0.94476993       0.02660622 </v>
    <v>       0.14817167       0.77176906       0.06840076 </v>
    <v>       0.40801299       0.93550806       0.03647281 </v>
    <v>       0.37974187       0.65845249       0.20907014 </v>
    <v>       0.23508449       0.60896030       0.12855514 </v>
    <v>       0.46407837       0.83083437       0.16506402 </v>
    <v>       0.31110882       0.79327542       0.10892366 </v>
    <v>       0.06989293       0.95747150       0.06513513 </v>
    <v>       0.57809089       0.77958524       0.24244637 </v>
    <v>       0.65832063       0.60649037       0.29890535 </v>
    <v>       0.48552325       0.61495316       0.29497003 </v>
   </varray>
  </structure>
  <varray name="forces" >
   <v>       0.01272425       0.00654390      -0.02637794 </v>
   <v>       0.01558818       0.05641340       0.01202895 </v>
   <v>      -0.02084292       0.01435977      -0.03604634 </v>
   <v>       0.06754124       0.04142616       0.13388051 </v>
   <v>       0.00107666       0.03009703       0.02395456 </v>
   <v>      -0.04014453       0.03114796      -0.03390706 </v>
   <v>      -0.08491456      -0.25107281      -0.13869472 </v>
   <v>       0.04757015       0.00310602      -0.02833232 </v>
   <v>       0.12285082      -0.01670703      -0.07171089 </v>
   <v>      -0.25931174      -0.06947243      -0.10177896 </v>
   <v>      -0.04650682       0.03332555      -0.07096070 </v>
   <v>      -0.09745306      -0.12653178      -0.03435391 </v>
   <v>      -0.02567715       0.05263856      -0.01357534 </v>
   <v>       0.23788755       0.07609639      -0.16003078 </v>
   <v>       0.01696111      -0.00148927      -0.01113298 </v>
   <v>       0.00191784       0.06676217      -0.00980202 </v>
   <v>       0.02886559       0.00209884       0.08600341 </v>
   <v>       0.12438839       0.10017349      -0.18680824 </v>
   <v>       0.03917974      -0.00542390       0.06156032 </v>
   <v>       0.03626913       0.08620137      -0.01106388 </v>
   <v>      -0.09743331       0.25516443      -0.27804976 </v>
   <v>       0.03027732       0.10362828      -0.07493459 </v>
   <v>      -0.43456919       0.03120226      -0.33312066 </v>
   <v>      -0.04112176       0.03938380       0.00309894 </v>
   <v>       0.01249529      -0.04320924      -0.04303333 </v>
   <v>       0.05244035      -0.01264952       0.01038208 </v>
   <v>       0.00061132      -0.03264581      -0.02542200 </v>
   <v>      -0.05687263      -0.00114641       0.02356618 </v>
   <v>       0.08479146       0.02933223      -0.02245924 </v>
   <v>      -0.03485273      -0.04589416      -0.02670579 </v>
   <v>       0.00561700      -0.00288438       0.03308877 </v>
   <v>       0.08107365      -0.15823164      -0.03700308 </v>
   <v>      -0.14893474      -0.62914376      -0.27333000 </v>
   <v>       0.02403891      -0.04700568       0.03107073 </v>
   <v>       0.00635085      -0.43913264       0.02488147 </v>
   <v>      -0.08023780      -0.03183245       0.03176371 </v>
   <v>       0.03067164       0.00558437       0.02698549 </v>
   <v>      -0.09689208      -0.10134530      -0.01188326 </v>
   <v>      -0.04379281      -0.08718909      -0.08826472 </v>
   <v>      -0.08931905      -0.04149993      -0.06100949 </v>
   <v>       0.07602189       0.07073405       0.01396591 </v>
   <v>       0.36803382      -0.03442580      -0.92347289 </v>
   <v>      -0.05010449      -0.00684109       0.07228842 </v>
   <v>      -0.01708915       0.00643633       0.04774708 </v>
   <v>      -0.01904421      -0.07733205      -0.03347925 </v>
   <v>      -0.02751404      -0.07912069      -0.09497420 </v>
   <v>       0.01258377      -0.05818653       0.06600411 </v>
   <v>      -0.01160885      -0.05197617      -0.03768560 </v>
   <v>      -0.00486520      -0.02801689       0.06344654 </v>
   <v>       0.00787329       0.01836802      -0.03340915 </v>
   <v>      -0.01342716      -0.03153479      -0.09617924 </v>
   <v>      -0.64701840       0.10653875      -0.31905112 </v>
   <v>      -0.03478263       0.04536529      -0.02471231 </v>
   <v>      -1.01544667       0.44108377      -0.52539980 </v>
   <v>      -0.19856018      -0.02802119      -0.14299681 </v>
   <v>      -0.01435578      -0.06817594      -0.01536481 </v>
   <v>       0.83651242       2.52666288       1.11080250 </v>
   <v>       2.43887340      -0.87667379       1.24871097 </v>
   <v>      -1.06839338      -0.79506290       1.33128654 </v>
  </varray>
  <varray name="stress" >
   <v>       1.10401351       4.29153167       2.01330131 </v>
   <v>       4.29153169      -0.68567134      -1.91816882 </v>
   <v>       2.01330128      -1.91816882      -8.46915331 </v>
  </varray>
  <energy>
   <i name="e_fr_energy">   -481.10226148 </i>
   <i name="e_wo_entrp">   -481.02923115 </i>
   <i name="e_0_energy">   -481.06574632 </i>
  </energy>
  <time name="totalsc">   17.14   17.18</time>
 </calculation>
 <calculation>
  <scstep>
   <time name="dav">    1.44    1.44</time>
   <time name="total">    1.51    1.52</time>
   <dipole>
    <v name="dipole">      0.00000000       0.00000000       0.07259289 </v>
    <i name="Tr[quadrupol]">  -8069.74260798 </i>
    <i name="Echarged">      0.00000000 </i>
    <i name="Edipol_quadrupol">      0.00000000 </i>
    <i name="Eion">      0.00000000 </i>
   </dipole>
   <energy>
    <i name="alphaZ">    170.96889374 </i>
    <i name="ewald">  28237.11234424 </i>
    <i name="hartreedc"> -41021.15660709 </i>
    <i name="XCdc">    916.41491516 </i>
    <i name="pawpsdc">  30686.43030443 </i>
    <i name="pawaedc"> -30587.70021496 </i>
    <i name="eentropy">     -0.07809318 </i>
    <i name="bandstr">  -3534.43457451 </i>
    <i name="atom">  14650.99966370 </i>
    <i name="e_fr_energy">   -481.44336846 </i>
    <i name="e_wo_entrp">   -481.36527528 </i>
    <i name="e_0_energy">   -481.40432187 </i>
   </energy>
  </scstep>
  <scstep>
   <time name="dav">    1.57    1.57</time>
   <time name="total">    1.65    1.65</time>
   <dipole>
    <v name="dipole">      0.00000000       0.00000000       0.11639586 </v>
    <i name="Tr[quadrupol]">  -8069.86929350 </i>
    <i name="Echarged">      0.00000000 </i>
    <i name="Edipol_quadrupol">      0.00000000 </i>
    <i name="Eion">      0.00000000 </i>
   </dipole>
   <energy>
    <i name="e_fr_energy">   -482.46402843 </i>
    <i name="e_wo_entrp">   -482.38196450 </i>
    <i name="e_0_energy">   -482.42299646 </i>
   </energy>
  </scstep>
  <scstep>
   <time name="dav">    1.59    1.59</time>
   <time name="total">    1.67    1.67</time>
   <dipole>
    <v name="dipole">      0.00000000       0.00000000       0.00069391 </v>
    <i name="Tr[quadrupol]">  -8069.89951444 </i>
    <i name="Echarged">      0.00000000 </i>
    <i name="Edipol_quadrupol">      0.00000000 </i>
    <i name="Eion">      0.00000000 </i>
   </dipole>
   <energy>
    <i name="e_fr_energy">   -481.56725491 </i>
    <i name="e_wo_entrp">   -481.49586375 </i>
    <i name="e_0_energy">   -481.53155933 </i>
   </energy>
  </scstep>
  <scstep>
   <time name="dav">    1.51    1.52</time>
   <time name="total">    1.59    1.61</time>
   <dipole>
    <v name="dipole">      0.00000000       0.00000000       0.03017386 </v>
    <i name="Tr[quadrupol]">  -8069.89875334 </i>
    <i name="Echarged">      0.00000000 </i>
    <i name="Edipol_quadrupol">      0.00000000 </i>
    <i name="Eion">      0.00000000 </i>
   </dipole>
   <energy>
    <i name="e_fr_energy">   -481.53790350 </i>
    <i name="e_wo_entrp">   -481.44850084 </i>
    <i name="e_0_energy">   -481.49320217 </i>
   </energy>
  </scstep>
  <scstep>
   <time name="dav">    1.63    1.63</time>
   <time name="total">    1.71    1.71</time>
   <dipole>
    <v name="dipole">      0.00000000       0.00000000       0.03986937 </v>
    <i name="Tr[quadrupol]">  -8069.91243287 </i>
    <i name="Echarged">      0.00000000 </i>
    <i name="Edipol_quadrupol">      0.00000000 </i>
    <i name="Eion">      0.00000000 </i>
   </dipole>
   <energy>
    <i name="e_fr_energy">   -481.53657718 </i>
    <i name="e_wo_entrp">   -481.43516763 </i>
    <i name="e_0_energy">   -481.48587240 </i>
   </energy>
  </scstep>
  <scstep>
   <time name="dav">    1.57    1.57</time>
   <time name="total">    1.66    1.66</time>
   <dipole>
    <v name="dipole">      0.00000000       0.00000000       0.02335190 </v>
    <i name="Tr[quadrupol]">  -8069.92459221 </i>
    <i name="Echarged">      0.00000000 </i>
    <i name="Edipol_quadrupol">      0.00000000 </i>
    <i name="Eion">      0.00000000 </i>
   </dipole>
   <energy>
    <i name="e_fr_energy">   -481.54676293 </i>
    <i name="e_wo_entrp">   -481.44885849 </i>
    <i name="e_0_energy">   -481.49781071 </i>
   </energy>
  </scstep>
  <scstep>
   <time name="dav">    1.54    1.54</time>
   <time name="total">    1.62    1.62</time>
   <dipole>
    <v name="dipole">      0.00000000       0.00000000       0.02695021 </v>
    <i name="Tr[quadrupol]">  -8069.93842246 </i>
    <i name="Echarged">      0.00000000 </i>
    <i name="Edipol_quadrupol">      0.00000000 </i>
    <i name="Eion">      0.00000000 </i>
   </dipole>
   <energy>
    <i name="e_fr_energy">   -481.51844088 </i>
    <i name="e_wo_entrp">   -481.41728270 </i>
    <i name="e_0_energy">   -481.46786179 </i>
   </energy>
  </scstep>
  <scstep>
   <time name="dav">    1.57    1.57</time>
   <time name="total">    1.64    1.65</time>
   <dipole>
    <v name="dipole">      0.00000000       0.00000000       0.01903789 </v>
    <i name="Tr[quadrupol]">  -8069.95007860 </i>
    <i name="Echarged">      0.00000000 </i>
    <i name="Edipol_quadrupol">      0.00000000 </i>
    <i name="Eion">      0.00000000 </i>
   </dipole>
   <energy>
    <i name="e_fr_energy">   -481.51545429 </i>
    <i name="e_wo_entrp">   -481.41828842 </i>
    <i name="e_0_energy">   -481.46687136 </i>
   </energy>
  </scstep>
  <scstep>
   <time name="dav">    1.58    1.58</time>
   <time name="total">    1.66    1.66</time>
   <dipole>
    <v name="dipole">      0.00000000       0.00000000       0.01650166 </v>
    <i name="Tr[quadrupol]">  -8069.95777984 </i>
    <i name="Echarged">      0.00000000 </i>
    <i name="Edipol_quadrupol">      0.00000000 </i>
    <i name="Eion">      0.00000000 </i>
   </dipole>
   <energy>
    <i name="e_fr_energy">   -481.51362109 </i>
    <i name="e_wo_entrp">   -481.41675387 </i>
    <i name="e_0_energy">   -481.46518748 </i>
   </energy>
  </scstep>
  <scstep>
   <time name="dav">    1.59    1.59</time>
   <time name="total">    1.67    1.68</time>
   <dipole>
    <v name="dipole">      0.00000000       0.00000000       0.01140488 </v>
    <i name="Tr[quadrupol]">  -8069.96771479 </i>
    <i name="Echarged">      0.00000000 </i>
    <i name="Edipol_quadrupol">      0.00000000 </i>
    <i name="Eion">      0.00000000 </i>
   </dipole>
   <energy>
    <i name="e_fr_energy">   -481.51339934 </i>
    <i name="e_wo_entrp">   -481.41826021 </i>
    <i name="e_0_energy">   -481.46582978 </i>
   </energy>
  </scstep>
  <scstep>
   <time name="dav">    1.57    1.57</time>
   <time name="total">    1.64    1.65</time>
   <dipole>
    <v name="dipole">      0.00000000       0.00000000       0.00886460 </v>
    <i name="Tr[quadrupol]">  -8069.97583193 </i>
    <i name="Echarged">      0.00000000 </i>
    <i name="Edipol_quadrupol">      0.00000000 </i>
    <i name="Eion">      0.00000000 </i>
   </dipole>
   <energy>
    <i name="e_fr_energy">   -481.51347736 </i>
    <i name="e_wo_entrp">   -481.41831848 </i>
    <i name="e_0_energy">   -481.46589792 </i>
   </energy>
  </scstep>
  <scstep>
   <time name="dav">    1.30    1.30</time>
   <time name="total">    1.37    1.38</time>
   <dipole>
    <v name="dipole">      0.00000000       0.00000000       0.00584510 </v>
    <i name="Tr[quadrupol]">  -8069.98497237 </i>
    <i name="Echarged">      0.00000000 </i>
    <i name="Edipol_quadrupol">      0.00000000 </i>
    <i name="Eion">      0.00000000 </i>
   </dipole>
   <energy>
    <i name="e_fr_energy">   -481.51354423 </i>
[...]
       <r>    1.8408    0.0000 </r>
       <r>    1.9230    0.0000 </r>
       <r>    2.0317    0.0000 </r>
       <r>    2.0489    0.0000 </r>
       <r>    2.4553    0.0000 </r>
       <r>    2.4701    0.0000 </r>
       <r>    2.5952    0.0000 </r>
       <r>    2.6895    0.0000 </r>
       <r>    2.7912    0.0000 </r>
      </set>
     </set>
    </set>
   </array>
  </eigenvalues>
  <separator name="orbital magnetization" >
   <v name="MAGDIPOLOUT">      0.00000000      0.00000000      0.00000000</v>
  </separator>
  <dos>
   <i name="efermi">     -2.06285446 </i>
   <total>
    <array>
     <dimension dim="1">gridpoints</dimension>
     <dimension dim="2">spin</dimension>
     <field>energy</field>
     <field>total</field>
     <field>integrated</field>
     <set>
      <set comment="spin 1">
       <r>   -27.7928     0.0000     0.0000 </r>
       <r>   -27.6858     0.0000     0.0000 </r>
       <r>   -27.5787     0.0000     0.0000 </r>
       <r>   -27.4717     0.0000     0.0000 </r>
       <r>   -27.3646     0.0000     0.0000 </r>
       <r>   -27.2576     0.0000     0.0000 </r>
       <r>   -27.1505     0.0000     0.0000 </r>
       <r>   -27.0434     0.0000     0.0000 </r>
       <r>   -26.9364     0.0000     0.0000 </r>
       <r>   -26.8293     0.0000     0.0000 </r>
       <r>   -26.7223     0.0000     0.0000 </r>
       <r>   -26.6152     0.0002     0.0000 </r>
       <r>   -26.5082     0.0532     0.0057 </r>
       <r>   -26.4011     1.7661     0.1948 </r>
       <r>   -26.2941     9.8101     1.2450 </r>
       <r>   -26.1870    16.2016     2.9795 </r>
       <r>   -26.0800    20.6382     5.1889 </r>
       <r>   -25.9729    19.4685     7.2730 </r>
       <r>   -25.8658     6.3329     7.9510 </r>
       <r>   -25.7588     0.4522     7.9994 </r>
       <r>   -25.6517     0.0054     8.0000 </r>
       <r>   -25.5447     0.0000     8.0000 </r>
       <r>   -25.4376     0.0015     8.0002 </r>
       <r>   -25.3306     0.1778     8.0192 </r>
       <r>   -25.2235     3.0731     8.3482 </r>
       <r>   -25.1165    11.2787     9.5556 </r>
       <r>   -25.0094    15.7103    11.2375 </r>
       <r>   -24.9024    11.9537    12.5172 </r>
       <r>   -24.7953     9.5910    13.5439 </r>
       <r>   -24.6882     9.4397    14.5545 </r>
       <r>   -24.5812     7.3269    15.3389 </r>
       <r>   -24.4741     1.4542    15.4946 </r>
       <r>   -24.3671     0.0578    15.5007 </r>
       <r>   -24.2600     0.3398    15.5371 </r>
       <r>   -24.1530     2.3537    15.7891 </r>
       <r>   -24.0459     7.0466    16.5435 </r>
       <r>   -23.9389    20.1054    18.6958 </r>
       <r>   -23.8318    27.7317    21.6646 </r>
       <r>   -23.7248    19.9785    23.8034 </r>
       <r>   -23.6177     5.9278    24.4380 </r>
       <r>   -23.5106     0.5706    24.4991 </r>
       <r>   -23.4036     0.2595    24.5269 </r>
       <r>   -23.2965     3.6238    24.9148 </r>
       <r>   -23.1895     9.9913    25.9844 </r>
       <r>   -23.0824     8.4127    26.8850 </r>
       <r>   -22.9754     7.9636    27.7376 </r>
       <r>   -22.8683    12.5576    29.0819 </r>
       <r>   -22.7613    12.9580    30.4691 </r>
       <r>   -22.6542    10.2308    31.5644 </r>
       <r>   -22.5472     3.7124    31.9618 </r>
       <r>   -22.4401     0.3510    31.9994 </r>
       <r>   -22.3330     0.0065    32.0001 </r>
       <r>   -22.2260     0.1242    32.0134 </r>
       <r>   -22.1189     2.5635    32.2878 </r>
       <r>   -22.0119    13.5417    33.7375 </r>
       <r>   -21.9048    32.3889    37.2049 </r>
       <r>   -21.7978    35.5023    41.0056 </r>
       <r>   -21.6907    27.7763    43.9791 </r>
       <r>   -21.5837    25.4700    46.7058 </r>
       <r>   -21.4766    11.0279    47.8864 </r>
       <r>   -21.3696     1.1047    48.0047 </r>
       <r>   -21.2625     1.2002    48.1331 </r>
       <r>   -21.1555     5.3191    48.7026 </r>
       <r>   -21.0484    13.8081    50.1808 </r>
       <r>   -20.9413    21.2027    52.4506 </r>
       <r>   -20.8343    19.6938    54.5589 </r>
       <r>   -20.7272    10.9026    55.7261 </r>
       <r>   -20.6202     3.4167    56.0919 </r>
       <r>   -20.5131    10.8565    57.2541 </r>
       <r>   -20.4061    20.9853    59.5007 </r>
       <r>   -20.2990    17.8907    61.4160 </r>
       <r>   -20.1920    17.3378    63.2721 </r>
       <r>   -20.0849     6.2820    63.9446 </r>
       <r>   -19.9779     0.5107    63.9992 </r>
       <r>   -19.8708     0.0070    64.0000 </r>
       <r>   -19.7637     0.0000    64.0000 </r>
       <r>   -19.6567     0.0000    64.0000 </r>
       <r>   -19.5496     0.0000    64.0000 </r>
       <r>   -19.4426     0.0000    64.0000 </r>
       <r>   -19.3355     0.0000    64.0000 </r>
       <r>   -19.2285     0.0000    64.0000 </r>
       <r>   -19.1214     0.0000    64.0000 </r>
       <r>   -19.0144     0.0000    64.0000 </r>
       <r>   -18.9073     0.0000    64.0000 </r>
       <r>   -18.8003     0.0000    64.0000 </r>
       <r>   -18.6932     0.0000    64.0000 </r>
       <r>   -18.5861     0.0000    64.0000 </r>
       <r>   -18.4791     0.0000    64.0000 </r>
       <r>   -18.3720     0.0000    64.0000 </r>
       <r>   -18.2650     0.0000    64.0000 </r>
       <r>   -18.1579     0.0000    64.0000 </r>
       <r>   -18.0509     0.0000    64.0000 </r>
       <r>   -17.9438     0.0000    64.0000 </r>
       <r>   -17.8368     0.0003    64.0000 </r>
       <r>   -17.7297     0.0606    64.0065 </r>
       <r>   -17.6227     1.7823    64.1973 </r>
       <r>   -17.5156     8.8742    65.1473 </r>
       <r>   -17.4085    13.0421    66.5436 </r>
       <r>   -17.3015    13.2896    67.9663 </r>
       <r>   -17.1944    13.1491    69.3739 </r>
       <r>   -17.0874    18.7630    71.3826 </r>
       <r>   -16.9803    20.9105    73.6212 </r>
       <r>   -16.8733    19.5111    75.7099 </r>
       <r>   -16.7662    11.8765    76.9813 </r>
       <r>   -16.6592    10.6147    78.1177 </r>
       <r>   -16.5521    10.2296    79.2128 </r>
       <r>   -16.4451     2.5824    79.4893 </r>
       <r>   -16.3380     0.1551    79.5059 </r>
       <r>   -16.2310     1.0067    79.6136 </r>
       <r>   -16.1239     2.5731    79.8891 </r>
       <r>   -16.0168     0.9831    79.9944 </r>
       <r>   -15.9098     0.0532    80.0000 </r>
       <r>   -15.8027     0.1293    80.0139 </r>
       <r>   -15.6957     3.3513    80.3727 </r>
       <r>   -15.5886    17.8829    82.2871 </r>
       <r>   -15.4816    28.8693    85.3777 </r>
       <r>   -15.3745    17.1867    87.2176 </r>
       <r>   -15.2675     4.2056    87.6678 </r>
       <r>   -15.1604     2.7863    87.9661 </r>
       <r>   -15.0534     2.5825    88.2426 </r>
       <r>   -14.9463     2.4160    88.5012 </r>
       <r>   -14.8392     2.4085    88.7591 </r>
       <r>   -14.7322     1.9835    88.9714 </r>
       <r>   -14.6251     0.9193    89.0698 </r>
       <r>   -14.5181     6.9690    89.8159 </r>
       <r>   -14.4110    14.2880    91.3455 </r>
       <r>   -14.3040    11.4317    92.5693 </r>
       <r>   -14.1969    12.3468    93.8911 </r>
       <r>   -14.0899    13.2450    95.3090 </r>
       <r>   -13.9828    18.3352    97.2719 </r>
       <r>   -13.8758    26.4855   100.1073 </r>
       <r>   -13.7687    23.7404   102.6488 </r>
       <r>   -13.6616    26.9862   105.5378 </r>
       <r>   -13.5546    29.3635   108.6813 </r>
       <r>   -13.4475    21.9469   111.0308 </r>
       <r>   -13.3405    18.0676   112.9650 </r>
       <r>   -13.2334    12.3504   114.2872 </r>
       <r>   -13.1264     5.3251   114.8572 </r>
       <r>   -13.0193     6.4540   115.5482 </r>
       <r>   -12.9123     7.9985   116.4044 </r>
       <r>   -12.8052     8.4233   117.3062 </r>
       <r>   -12.6982     7.0673   118.0628 </r>
       <r>   -12.5911     4.6230   118.5577 </r>
       <r>   -12.4840     7.1003   119.3178 </r>
       <r>   -12.3770     8.2872   120.2050 </r>
       <r>   -12.2699     5.8462   120.8309 </r>
       <r>   -12.1629     5.9948   121.4726 </r>
       <r>   -12.0558     9.8918   122.5316 </r>
       <r>   -11.9488    16.1072   124.2559 </r>
       <r>   -11.8417    17.1860   126.0958 </r>
       <r>   -11.7347    21.5128   128.3988 </r>
       <r>   -11.6276    23.5320   130.9180 </r>
       <r>   -11.5206    18.8216   132.9329 </r>
       <r>   -11.4135    17.8408   134.8429 </r>
       <r>   -11.3065    18.9931   136.8762 </r>
       <r>   -11.1994    16.1361   138.6036 </r>
       <r>   -11.0923    10.6730   139.7462 </r>
       <r>   -10.9853     8.4610   140.6520 </r>
       <r>   -10.8782     4.3735   141.1202 </r>
       <r>   -10.7712     6.4682   141.8127 </r>
       <r>   -10.6641    14.6646   143.3826 </r>
       <r>   -10.5571    19.6440   145.4855 </r>
       <r>   -10.4500    17.5303   147.3622 </r>
       <r>   -10.3430    18.0444   149.2939 </r>
       <r>   -10.2359    15.3749   150.9399 </r>
       <r>   -10.1289     8.2703   151.8253 </r>
       <r>   -10.0218     2.0726   152.0471 </r>
       <r>    -9.9147     2.7385   152.3403 </r>
       <r>    -9.8077     5.5968   152.9395 </r>
       <r>    -9.7006     9.6229   153.9696 </r>
       <r>    -9.5936    11.3054   155.1799 </r>
       <r>    -9.4865    19.7392   157.2931 </r>
       <r>    -9.3795    19.4341   159.3736 </r>
       <r>    -9.2724    17.4360   161.2402 </r>
       <r>    -9.1654    27.0754   164.1388 </r>
       <r>    -9.0583    30.5631   167.4107 </r>
       <r>    -8.9513    19.4337   169.4911 </r>
       <r>    -8.8442     4.5533   169.9786 </r>
       <r>    -8.7371     1.5670   170.1463 </r>
       <r>    -8.6301     8.5179   171.0582 </r>
       <r>    -8.5230    10.3388   172.1650 </r>
       <r>    -8.4160     8.4865   173.0736 </r>
       <r>    -8.3089    13.5898   174.5284 </r>
       <r>    -8.2019    17.5478   176.4070 </r>
       <r>    -8.0948    15.6532   178.0827 </r>
       <r>    -7.9878    14.6027   179.6460 </r>
       <r>    -7.8807    15.8841   181.3465 </r>
       <r>    -7.7737     5.6288   181.9490 </r>
       <r>    -7.6666     0.8075   182.0355 </r>
       <r>    -7.5595     6.6133   182.7435 </r>
       <r>    -7.4525    27.3217   185.6684 </r>
       <r>    -7.3454    37.0774   189.6377 </r>
       <r>    -7.2384    32.5902   193.1266 </r>
       <r>    -7.1313    33.5660   196.7200 </r>
       <r>    -7.0243    33.4018   200.2958 </r>
       <r>    -6.9172    24.6534   202.9351 </r>
       <r>    -6.8102    15.2128   204.5636 </r>
       <r>    -6.7031    10.8258   205.7226 </r>
       <r>    -6.5961    12.1624   207.0246 </r>
       <r>    -6.4890    22.7590   209.4611 </r>
       <r>    -6.3819    23.1325   211.9375 </r>
       <r>    -6.2749    17.6256   213.8244 </r>
       <r>    -6.1678    13.3207   215.2505 </r>
       <r>    -6.0608     7.2025   216.0215 </r>
       <r>    -5.9537     9.9627   217.0881 </r>
       <r>    -5.8467    23.8801   219.6445 </r>
       <r>    -5.7396    18.6643   221.6426 </r>
       <r>    -5.6326    10.4225   222.7584 </r>
       <r>    -5.5255    22.4806   225.1651 </r>
       <r>    -5.4185    32.8976   228.6869 </r>
       <r>    -5.3114    38.4983   232.8083 </r>
       <r>    -5.2044    37.7929   236.8542 </r>
       <r>    -5.0973    40.2977   241.1682 </r>
       <r>    -4.9902    32.5643   244.6544 </r>
       <r>    -4.8832    36.2164   248.5315 </r>
       <r>    -4.7761    42.3762   253.0681 </r>
       <r>    -4.6691    34.8765   256.8018 </r>
       <r>    -4.5620    25.0065   259.4788 </r>
       <r>    -4.4550    17.3022   261.3311 </r>
       <r>    -4.3479    12.7363   262.6946 </r>
       <r>    -4.2409    18.9176   264.7198 </r>
       <r>    -4.1338    26.0784   267.5116 </r>
       <r>    -4.0268    18.3057   269.4713 </r>
       <r>    -3.9197    10.6159   270.6078 </r>
       <r>    -3.8126    10.3275   271.7134 </r>
       <r>    -3.7056     2.5973   271.9914 </r>
       <r>    -3.5985     0.9221   272.0902 </r>
       <r>    -3.4915     7.1539   272.8560 </r>
       <r>    -3.3844     9.1156   273.8319 </r>
       <r>    -3.2774     5.2146   274.3901 </r>
       <r>    -3.1703    17.3645   276.2491 </r>
       <r>    -3.0633    25.1125   278.9375 </r>
       <r>    -2.9562     9.8215   279.9889 </r>
       <r>    -2.8492     7.2627   280.7664 </r>
       <r>    -2.7421    17.4478   282.6343 </r>
       <r>    -2.6350    14.0192   284.1351 </r>
       <r>    -2.5280    11.5929   285.3761 </r>
       <r>    -2.4209     5.4119   285.9555 </r>
       <r>    -2.3139     0.4159   286.0000 </r>
       <r>    -2.2068     0.4118   286.0441 </r>
       <r>    -2.0998     5.2093   286.6018 </r>
       <r>    -1.9927    10.8681   287.7653 </r>
       <r>    -1.8857    10.6783   288.9084 </r>
       <r>    -1.7786    13.1457   290.3157 </r>
       <r>    -1.6716    12.4002   291.6432 </r>
       <r>    -1.5645    12.5536   292.9871 </r>
       <r>    -1.4574    10.5591   294.1175 </r>
       <r>    -1.3504    10.0001   295.1881 </r>
       <r>    -1.2433    13.5658   296.6404 </r>
       <r>    -1.1363    21.9268   298.9877 </r>
       <r>    -1.0292    24.7981   301.6425 </r>
       <r>    -0.9222    16.9263   303.4545 </r>
       <r>    -0.8151     6.8020   304.1827 </r>
       <r>    -0.7081     6.1160   304.8374 </r>
       <r>    -0.6010    12.5517   306.1811 </r>
       <r>    -0.4940    21.3771   308.4696 </r>
       <r>    -0.3869    21.5583   310.7776 </r>
       <r>    -0.2799    10.0439   311.8528 </r>
       <r>    -0.1728     1.3420   311.9965 </r>
       <r>    -0.0657     0.0329   312.0000 </r>
       <r>     0.0413     0.0040   312.0004 </r>
       <r>     0.1484     0.3196   312.0346 </r>
       <r>     0.2554     3.6333   312.4236 </r>
       <r>     0.3625     8.3506   313.3176 </r>
       <r>     0.4695     5.6420   313.9216 </r>
       <r>     0.5766     3.7109   314.3188 </r>
       <r>     0.6836     9.6697   315.3540 </r>
       <r>     0.7907     5.8619   315.9816 </r>
       <r>     0.8977     3.3491   316.3401 </r>
       <r>     1.0048     9.3348   317.3394 </r>
       <r>     1.1119    17.4442   319.2069 </r>
       <r>     1.2189    18.6324   321.2016 </r>
       <r>     1.3260    19.9663   323.3391 </r>
       <r>     1.4330    22.5480   325.7529 </r>
       <r>     1.5401    19.2444   327.8131 </r>
       <r>     1.6471    22.9416   330.2691 </r>
       <r>     1.7542    23.3954   332.7737 </r>
       <r>     1.8612    20.3929   334.9569 </r>
       <r>     1.9683    23.5052   337.4732 </r>
       <r>     2.0753    23.7891   340.0199 </r>
       <r>     2.1824    13.6037   341.4763 </r>
       <r>     2.2895     8.6901   342.4066 </r>
       <r>     2.3965    11.2132   343.6070 </r>
       <r>     2.5036    17.2678   345.4556 </r>
       <r>     2.6106    19.2941   347.5211 </r>
       <r>     2.7177    18.0552   349.4540 </r>
       <r>     2.8247    15.5711   351.1210 </r>
       <r>     2.9318     7.1131   351.8824 </r>
       <r>     3.0388     1.0639   351.9963 </r>
       <r>     3.1459     0.0340   352.0000 </r>
       <r>     3.2529     0.0002   352.0000 </r>
       <r>     3.3600     0.0000   352.0000 </r>
       <r>     3.4671     0.0000   352.0000 </r>
       <r>     3.5741     0.0000   352.0000 </r>
       <r>     3.6812     0.0000   352.0000 </r>
       <r>     3.7882     0.0000   352.0000 </r>
       <r>     3.8953     0.0000   352.0000 </r>
       <r>     4.0023     0.0000   352.0000 </r>
       <r>     4.1094     0.0000   352.0000 </r>
       <r>     4.2164     0.0000   352.0000 </r>
       <r>     4.3235     0.0000   352.0000 </r>
      </set>
     </set>
    </array>
   </total>
  </dos>
 </calculation>
 <structure name="finalpos" >
  <crystal>
   <varray name="basis" >
    <v>      13.69685827       0.00000000       0.00000000 </v>
    <v>       0.00000000      10.88106698       0.00000000 </v>
    <v>       0.00000000       0.00000000      15.00000000 </v>
   </varray>
   <i name="volume">   2235.54648339 </i>
   <varray name="rec_basis" >
    <v>       0.07300944       0.00000000       0.00000000 </v>
    <v>       0.00000000       0.09190275       0.00000000 </v>
    <v>       0.00000000       0.00000000       0.06666667 </v>
   </varray>
  </crystal>
  <varray name="positions" >
   <v>       0.07106580       0.38895055       0.22945518 </v>
   <v>       0.98045539       0.21953423       0.16830009 </v>
   <v>       0.22984810       0.39637343       0.19771340 </v>
   <v>       0.81805915       0.58079339       0.18829973 </v>
   <v>       0.14889400       0.25124043       0.12288459 </v>
   <v>       0.90745215       0.38730525       0.22566141 </v>
   <v>       0.57091489       0.38912174       0.23321368 </v>
   <v>       0.47904371       0.22013445       0.17432627 </v>
   <v>       0.73152758       0.39571548       0.20441939 </v>
   <v>       0.31263751       0.58449620       0.18763425 </v>
   <v>       0.64822152       0.25233611       0.12813387 </v>
   <v>       0.40528041       0.39206622       0.22482823 </v>
   <v>       0.81595982       0.88949694       0.04535213 </v>
   <v>       0.72767977       0.72005160       0.11006166 </v>
   <v>       0.97583689       0.89767863       0.07309031 </v>
   <v>       0.06664797       0.08037056       0.08651969 </v>
   <v>       0.89715620       0.75312088       0.15059535 </v>
   <v>       0.65202590       0.88746497       0.05416325 </v>
   <v>       0.31596286       0.89158291       0.04238818 </v>
   <v>       0.22567804       0.72111900       0.10346333 </v>
   <v>       0.47422199       0.90153655       0.07791884 </v>
   <v>       0.56633645       0.08127696       0.09276186 </v>
   <v>       0.38959124       0.76398851       0.15579110 </v>
   <v>       0.15208731       0.88738355       0.04527905 </v>
   <v>       0.98846515       0.44262810       0.25436478 </v>
   <v>       0.89949634       0.26873839       0.20123249 </v>
   <v>       0.15912504       0.42991795       0.25333424 </v>
   <v>       0.14620556       0.14897931       0.07457591 </v>
   <v>       0.98426789       0.10907088       0.13014908 </v>
   <v>       0.22940775       0.31989209       0.12889971 </v>
   <v>       0.06691562       0.28813087       0.17157197 </v>
   <v>       0.82143042       0.45781823       0.21978614 </v>
   <v>       0.48800290       0.44946671       0.24982110 </v>
   <v>       0.39878744       0.27066403       0.20765269 </v>
   <v>       0.65958718       0.42627679       0.26233489 </v>
   <v>       0.64585611       0.14951906       0.08069644 </v>
   <v>       0.48314418       0.11017262       0.13598453 </v>
   <v>       0.72764006       0.32216717       0.13416628 </v>
   <v>       0.56639989       0.28811330       0.17712332 </v>
   <v>       0.31991728       0.46100087       0.21370946 </v>
   <v>       0.73221618       0.94174335       0.02196861 </v>
   <v>       0.64485910       0.76987357       0.08122674 </v>
   <v>       0.90348733       0.93030889       0.01888643 </v>
   <v>       0.89720684       0.65032784       0.19846020 </v>
   <v>       0.73389366       0.60871284       0.14699477 </v>
   <v>       0.97681351       0.82288830       0.14293485 </v>
   <v>       0.81377562       0.78900484       0.10385087 </v>
   <v>       0.56680123       0.95914208       0.06152161 </v>
   <v>       0.23334449       0.94196338       0.01496361 </v>
   <v>       0.14491109       0.76822610       0.06916652 </v>
   <v>       0.40514769       0.93100414       0.01953542 </v>
   <v>       0.38543345       0.66355825       0.20832963 </v>
   <v>       0.23309907       0.60964471       0.13975979 </v>
   <v>       0.46990997       0.83129351       0.15068420 </v>
   <v>       0.31054361       0.79356304       0.10314908 </v>
   <v>       0.06717779       0.95831054       0.05473581 </v>
   <v>       0.59951286       0.79475752       0.39130606 </v>
   <v>       0.66548629       0.56975073       0.35582012 </v>
   <v>       0.50630766       0.62932079       0.29222545 </v>
  </varray>
 </structure>
</modeling>
