slab_Cel1-OPT                           
           1
    13.759704    0.000000    0.000000
     0.000000   11.286700    0.000000
     0.000000    0.000000   15.000000
   C    N    Ag   Pd
    24    32     1     2
Direct configuration=     1
   0.07054120  0.38816457  0.22227495
   0.98151180  0.21832942  0.16785344
   0.22877304  0.39667288  0.18904348
   0.82472337  0.57572318  0.18403191
   0.14970601  0.24663792  0.12277753
   0.90758628  0.38434512  0.21811946
   0.56886571  0.39316130  0.23173729
   0.47768100  0.22391730  0.18017943
   0.73035049  0.39802658  0.19909345
   0.31101118  0.58132963  0.17977696
   0.64681854  0.25040749  0.13377315
   0.40275100  0.39355427  0.22106508
   0.81808056  0.88988957  0.05647519
   0.73319531  0.72568325  0.12448457
   0.97932824  0.89597624  0.07999408
   0.06867909  0.07698375  0.09423854
   0.90528082  0.74258583  0.14719628
   0.65472406  0.89333727  0.07691603
   0.31825350  0.89473226  0.05377466
   0.22716619  0.72126926  0.10084126
   0.47498917  0.90396535  0.09489577
   0.56592959  0.08075138  0.11024766
   0.38612516  0.76037560  0.16363174
   0.15509033  0.88950396  0.05271529
   0.98784551  0.43883046  0.24713656
   0.89991795  0.26975381  0.19549767
   0.15759857  0.43325808  0.24240148
   0.14788829  0.14353661  0.08017307
   0.98633649  0.10796021  0.13653167
   0.22915942  0.31533454  0.12527490
   0.06735802  0.28598388  0.16888911
   0.82274912  0.45552252  0.21014877
   0.48493735  0.44793349  0.25146232
   0.39648714  0.27665554  0.20625030
   0.65756919  0.43524210  0.25419888
   0.64488604  0.14640144  0.09374788
   0.48286722  0.11321356  0.15081376
   0.72606390  0.31870920  0.13454719
   0.56470606  0.29135323  0.18008364
   0.31888640  0.46086995  0.20329135
   0.73287748  0.94248397  0.03965616
   0.64891188  0.78317499  0.11254597
   0.90382696  0.93469024  0.03189926
   0.90701680  0.63807548  0.18754912
   0.73647441  0.61699787  0.15934394
   0.98321706  0.81212363  0.14197152
   0.81925020  0.78400528  0.10639513
   0.56804185  0.96074410  0.08520074
   0.23699719  0.94478449  0.02657725
   0.14820250  0.77173059  0.06843984
   0.40793432  0.93556381  0.03646331
   0.38047481  0.65838217  0.20939239
   0.23501053  0.60894863  0.12850628
   0.46527775  0.83024755  0.16578047
   0.31113112  0.79334051  0.10891910
   0.06990262  0.95754122  0.06514651
   0.57736557  0.77647674  0.24193941
   0.65582252  0.60772566  0.29790490
   0.48700699  0.61617049  0.29396059
slab_Cel1-OPT                           
           1
    13.773552    0.000000    0.000000
     0.000000   11.290872    0.000000
     0.000000    0.000000   15.000000
   C    N    Ag   Pd
    24    32     1     2
Direct configuration=     2
   0.07049498  0.38812189  0.22224297
   0.98152986  0.21844274  0.16788050
   0.22872683  0.39668702  0.18901343
   0.82507060  0.57572147  0.18418902
   0.14966945  0.24669795  0.12282309
   0.90751278  0.38442617  0.21808994
   0.56887185  0.39294076  0.23164705
   0.47773185  0.22400090  0.18017820
   0.73057276  0.39811010  0.19905931
   0.31081116  0.58121977  0.17972913
   0.64688601  0.25067680  0.13379406
   0.40263930  0.39357569  0.22107314
   0.81825749  0.88996200  0.05644367
   0.73351935  0.72588609  0.12434826
   0.97940409  0.89593933  0.08004594
   0.06865826  0.07703804  0.09423726
   0.90539271  0.74263548  0.14725315
   0.65482265  0.89352939  0.07679065
   0.31816839  0.89473868  0.05379581
   0.22719604  0.72136523  0.10082646
   0.47505180  0.90411512  0.09485656
   0.56606680  0.08102469  0.11018186
   0.38600572  0.76052334  0.16345058
   0.15497691  0.88949388  0.05273372
   0.98788323  0.43880802  0.24712732
   0.89991689  0.26973073  0.19551117
   0.15768027  0.43325848  0.24239664
   0.14786799  0.14349835  0.08016558
   0.98640278  0.10791229  0.13649478
   0.22918873  0.31532614  0.12525251
   0.06737748  0.28597770  0.16890660
   0.82273871  0.45532171  0.21011131
   0.48472055  0.44720191  0.25125667
   0.39653900  0.27662427  0.20626906
   0.65749263  0.43478266  0.25421958
   0.64474372  0.14612517  0.09372885
   0.48285545  0.11313846  0.15082905
   0.72592073  0.31852465  0.13450992
   0.56460892  0.29129372  0.18006444
   0.31889878  0.46084986  0.20326682
   0.73277863  0.94248411  0.03969358
   0.64929089  0.78321989  0.11184267
   0.90366357  0.93468705  0.03190707
   0.90690489  0.63800202  0.18758231
   0.73629400  0.61693910  0.15927674
   0.98320060  0.81207365  0.14190379
   0.81900329  0.78380856  0.10646209
   0.56800970  0.96055848  0.08516569
   0.23711589  0.94476993  0.02660622
   0.14817167  0.77176906  0.06840076
   0.40801299  0.93550806  0.03647281
   0.37974187  0.65845249  0.20907014
   0.23508449  0.60896030  0.12855514
   0.46407837  0.83083437  0.16506402
   0.31110882  0.79327542  0.10892366
   0.06989293  0.95747150  0.06513513
   0.57809089  0.77958524  0.24244637
   0.65832063  0.60649037  0.29890535
   0.48552325  0.61495316  0.29497003
slab_Cel1-OPT                           
           1
    13.813302    0.000000    0.000000
     0.000000   11.302847    0.000000
     0.000000    0.000000   15.000000
   C    N    Ag   Pd
    24    32     1     2
Direct configuration=     3
   0.07036244  0.38799942  0.22215118
   0.98158167  0.21876787  0.16795815
   0.22859432  0.39672757  0.18892717
   0.82606628  0.57571655  0.18463996
   0.14956462  0.24687022  0.12295387
   0.90730201  0.38465873  0.21800523
   0.56888947  0.39230797  0.23138802
   0.47787763  0.22424077  0.18017465
   0.73121011  0.39834976  0.19896131
   0.31023760  0.58090458  0.17959186
   0.64707946  0.25144955  0.13385408
   0.40231902  0.39363715  0.22109629
   0.81876481  0.89016982  0.05635320
   0.73444854  0.72646808  0.12395702
   0.97962161  0.89583342  0.08019480
   0.06859851  0.07719378  0.09423358
   0.90571355  0.74277795  0.14741640
   0.65510537  0.89408064  0.07643075
   0.31792437  0.89475710  0.05385652
   0.22728165  0.72164057  0.10078397
   0.47523138  0.90454483  0.09474404
   0.56646022  0.08180890  0.10999298
   0.38566323  0.76094726  0.16293059
   0.15465167  0.88946497  0.05278665
   0.98799139  0.43874362  0.24710082
   0.89991387  0.26966451  0.19554993
   0.15791456  0.43325963  0.24238277
   0.14780978  0.14338857  0.08014409
   0.98659288  0.10777477  0.13638890
   0.22927276  0.31530201  0.12518823
   0.06743329  0.28595996  0.16895678
   0.82270883  0.45474555  0.21000378
   0.48409887  0.44510279  0.25066641
   0.39668771  0.27653453  0.20632290
   0.65727311  0.43346440  0.25427897
   0.64433561  0.14533247  0.09367422
   0.48282171  0.11292296  0.15087296
   0.72551019  0.31799515  0.13440295
   0.56433036  0.29112298  0.18000934
   0.31893428  0.46079220  0.20319639
   0.73249516  0.94248452  0.03980099
   0.65037769  0.78334873  0.10982395
   0.90319508  0.93467791  0.03192948
   0.90658398  0.63779123  0.18767756
   0.73577667  0.61677050  0.15908386
   0.98315340  0.81193025  0.14170939
   0.81829527  0.78324412  0.10665428
   0.56791752  0.96002589  0.08506508
   0.23745626  0.94472816  0.02668939
   0.14808327  0.77187941  0.06828858
   0.40823858  0.93534811  0.03650007
   0.37764020  0.65865424  0.20814517
   0.23529655  0.60899377  0.12869538
   0.46063920  0.83251813  0.16300755
   0.31104487  0.79308866  0.10893674
   0.06986515  0.95727148  0.06510245
   0.58017071  0.78850441  0.24390153
   0.66548386  0.60294599  0.30177699
   0.48126872  0.61146030  0.29786749
slab_Cel1-OPT                           
           1
    13.795771    0.000000    0.000000
     0.000000   11.284187    0.000000
     0.000000    0.000000   15.000000
   C    N    Ag   Pd
    24    32     1     2
Direct configuration=     4
   0.07058508  0.38818631  0.22216690
   0.98158330  0.21865910  0.16790792
   0.22868409  0.39675133  0.18889664
   0.82509951  0.57587478  0.18464104
   0.14970298  0.24680836  0.12288498
   0.90740310  0.38452367  0.21798083
   0.56851284  0.39183236  0.23116693
   0.47789161  0.22395132  0.18007798
   0.73088113  0.39796518  0.19882479
   0.30988040  0.58091554  0.17937042
   0.64662949  0.25068145  0.13353079
   0.40226405  0.39286192  0.22092051
   0.81799597  0.89015636  0.05642274
   0.73414654  0.72603960  0.12382279
   0.97943961  0.89596202  0.07998077
   0.06868500  0.07734458  0.09419600
   0.90541881  0.74261130  0.14753157
   0.65523026  0.89389010  0.07617855
   0.31839096  0.89470339  0.05402534
   0.22733841  0.72172674  0.10078618
   0.47464098  0.90537574  0.09375359
   0.56601338  0.08133442  0.10996298
   0.38423602  0.76052521  0.16231718
   0.15488592  0.88968503  0.05273807
   0.98791311  0.43860207  0.24696704
   0.90014005  0.26968065  0.19554133
   0.15762551  0.43309115  0.24230458
   0.14764010  0.14351452  0.08026287
   0.98670946  0.10809191  0.13643590
   0.22901665  0.31509020  0.12516570
   0.06738410  0.28596596  0.16902061
   0.82311118  0.45465366  0.21000638
   0.48434570  0.44447594  0.25037964
   0.39660070  0.27641675  0.20635812
   0.65756760  0.43278116  0.25425007
   0.64457175  0.14616728  0.09382933
   0.48300582  0.11320818  0.15091110
   0.72564140  0.31814543  0.13448333
   0.56449666  0.29087768  0.17974098
   0.31849571  0.46063858  0.20305787
   0.73319852  0.94287605  0.03969541
   0.65061258  0.78303769  0.10878307
   0.90358863  0.93466720  0.03216703
   0.90695982  0.63808992  0.18773614
   0.73630543  0.61664246  0.15916296
   0.98310062  0.81170431  0.14159153
   0.81937183  0.78373047  0.10665517
   0.56800250  0.96038985  0.08503989
   0.23700994  0.94465533  0.02681869
   0.14822709  0.77183941  0.06830095
   0.40789966  0.93544198  0.03606796
   0.37751795  0.65902682  0.20808831
   0.23485976  0.60918800  0.12839216
   0.46057829  0.83272654  0.16354367
   0.31023021  0.79316041  0.10834753
   0.06983706  0.95716140  0.06508205
   0.58128019  0.79184222  0.24585166
   0.66809785  0.60218676  0.30337411
   0.48067802  0.61095566  0.29967901
slab_Cel1-OPT                           
           1
    13.787643    0.000000    0.000000
     0.000000   11.275538    0.000000
     0.000000    0.000000   15.000000
   C    N    Ag   Pd
    24    32     1     2
Direct configuration=     5
   0.07068841  0.38827308  0.22217419
   0.98158406  0.21860859  0.16788464
   0.22872575  0.39676236  0.18888249
   0.82465078  0.57594824  0.18464155
   0.14976721  0.24677964  0.12285305
   0.90745001  0.38446096  0.21796952
   0.56833803  0.39161153  0.23106444
   0.47789809  0.22381692  0.18003316
   0.73072843  0.39778662  0.19876151
   0.30971461  0.58092063  0.17926778
   0.64642063  0.25032480  0.13338093
   0.40223854  0.39250196  0.22083903
   0.81763911  0.89015010  0.05645498
   0.73400637  0.72584065  0.12376057
   0.97935514  0.89602173  0.07988155
   0.06872515  0.07741459  0.09417858
   0.90528201  0.74253392  0.14758496
   0.65528823  0.89380163  0.07606164
   0.31860752  0.89467845  0.05410360
   0.22736476  0.72176674  0.10078721
   0.47436695  0.90576154  0.09329446
   0.56580598  0.08111411  0.10994907
   0.38357359  0.76032925  0.16203283
   0.15499465  0.88978721  0.05271555
   0.98787678  0.43853635  0.24690502
   0.90024503  0.26968815  0.19553735
   0.15749134  0.43301292  0.24226833
   0.14756134  0.14357301  0.08031793
   0.98676357  0.10823916  0.13645769
   0.22889777  0.31499185  0.12515526
   0.06736126  0.28596874  0.16905021
   0.82329793  0.45461099  0.21000758
   0.48446026  0.44418488  0.25024671
   0.39656031  0.27636206  0.20637445
   0.65770428  0.43246392  0.25423667
   0.64468136  0.14655491  0.09390123
   0.48309127  0.11334061  0.15092878
   0.72570230  0.31821521  0.13452059
   0.56457384  0.29076378  0.17961658
   0.31829215  0.46056725  0.20299365
   0.73352498  0.94305785  0.03964646
   0.65072160  0.78289327  0.10830056
   0.90377130  0.93466223  0.03227715
   0.90713427  0.63822861  0.18776329
   0.73655085  0.61658301  0.15919963
   0.98307612  0.81159940  0.14153689
   0.81987151  0.78395629  0.10665558
   0.56804194  0.96055884  0.08502821
   0.23680279  0.94462152  0.02687863
   0.14829384  0.77182083  0.06830668
   0.40774236  0.93548556  0.03586766
   0.37746122  0.65919981  0.20806195
   0.23465703  0.60927818  0.12825160
   0.46055003  0.83282331  0.16379219
   0.30985209  0.79319373  0.10807439
   0.06982403  0.95711030  0.06507259
   0.58179515  0.79339204  0.24675565
   0.66931111  0.60183423  0.30411446
   0.48040384  0.61072134  0.30051875
slab_Cel1-OPT                           
           1
    13.761818    0.000000    0.000000
     0.000000   11.258801    0.000000
     0.000000    0.000000   15.000000
   C    N    Ag   Pd
    24    32     1     2
Direct configuration=     6
   0.07046346  0.38822767  0.22209955
   0.98172579  0.21872133  0.16788950
   0.22857579  0.39661261  0.18884212
   0.82457443  0.57612131  0.18490326
   0.14955262  0.24675177  0.12291345
   0.90773335  0.38431697  0.21794355
   0.56859552  0.39120893  0.23084428
   0.47780419  0.22386690  0.18004370
   0.73044278  0.39717310  0.19868969
   0.30938300  0.58096134  0.17906723
   0.64637649  0.25063357  0.13334155
   0.40220938  0.39215305  0.22066059
   0.81825093  0.89012333  0.05659337
   0.73424100  0.72537737  0.12353595
   0.97914742  0.89577261  0.07985846
   0.06863034  0.07734479  0.09415620
   0.90530729  0.74283825  0.14749879
   0.65546552  0.89367521  0.07550045
   0.31787383  0.89495033  0.05377098
   0.22674604  0.72191329  0.10045814
   0.47403203  0.90545598  0.09345066
   0.56583774  0.08094753  0.10984620
   0.38325994  0.76064233  0.16169210
   0.15491870  0.88974013  0.05276819
   0.98793225  0.43859204  0.24685849
   0.90028212  0.26948563  0.19553572
   0.15759644  0.43307139  0.24223842
   0.14759976  0.14356828  0.08025911
   0.98683314  0.10821477  0.13642517
   0.22892032  0.31500467  0.12514296
   0.06747559  0.28597750  0.16904371
   0.82320518  0.45474804  0.20994120
   0.48463414  0.44423878  0.24998701
   0.39633856  0.27537718  0.20631142
   0.65779077  0.43190094  0.25433058
   0.64457078  0.14612199  0.09371258
   0.48313047  0.11304942  0.15081581
   0.72572113  0.31807648  0.13431436
   0.56451097  0.29029295  0.17919327
   0.31795475  0.46043367  0.20281348
   0.73366488  0.94385105  0.03952701
   0.65035759  0.78223191  0.10740354
   0.90375272  0.93480081  0.03231342
   0.90700410  0.63780546  0.18796823
   0.73660307  0.61676918  0.15899115
   0.98327026  0.81152748  0.14147806
   0.81997002  0.78417189  0.10671781
   0.56806569  0.96094083  0.08482623
   0.23705067  0.94473258  0.02702042
   0.14823173  0.77178884  0.06822989
   0.40708572  0.93607485  0.03473885
   0.37757574  0.65918686  0.20818592
   0.23410868  0.60910072  0.12794365
   0.46071512  0.83298824  0.16414584
   0.30933425  0.79338395  0.10738319
   0.06986867  0.95729017  0.06502058
   0.58291646  0.79564418  0.24953268
   0.67098048  0.60188884  0.30589947
   0.48096109  0.61122815  0.30256044
slab_Cel1-OPT                           
           1
    13.738123    0.000000    0.000000
     0.000000   11.243445    0.000000
     0.000000    0.000000   15.000000
   C    N    Ag   Pd
    24    32     1     2
Direct configuration=     7
   0.07025667  0.38818595  0.22203107
   0.98185608  0.21882491  0.16789395
   0.22843795  0.39647501  0.18880509
   0.82450424  0.57628033  0.18514338
   0.14935536  0.24672616  0.12296888
   0.90799379  0.38418466  0.21791972
   0.56883222  0.39083900  0.23064229
   0.47771787  0.22391283  0.18005337
   0.73018020  0.39660937  0.19862378
   0.30907818  0.58099874  0.17888322
   0.64633592  0.25091728  0.13330542
   0.40218258  0.39183244  0.22049687
   0.81881332  0.89009872  0.05672034
   0.73445668  0.72495168  0.12332986
   0.97895647  0.89554370  0.07983728
   0.06854319  0.07728065  0.09413567
   0.90533053  0.74311788  0.14741974
   0.65562848  0.89355906  0.07498556
   0.31719941  0.89520015  0.05346581
   0.22617730  0.72204795  0.10015622
   0.47372416  0.90517521  0.09359397
   0.56586693  0.08079446  0.10975181
   0.38297163  0.76093001  0.16137949
   0.15484890  0.88969687  0.05281648
   0.98798324  0.43864322  0.24681579
   0.90031622  0.26929955  0.19553423
   0.15769304  0.43312512  0.24221097
   0.14763507  0.14356394  0.08020513
   0.98689708  0.10819235  0.13639533
   0.22894104  0.31501645  0.12513168
   0.06758068  0.28598555  0.16903776
   0.82311993  0.45487396  0.20988030
   0.48479398  0.44428830  0.24974874
   0.39613472  0.27447222  0.20625359
   0.65787028  0.43138364  0.25441675
   0.64446913  0.14572419  0.09353949
   0.48316650  0.11278185  0.15071216
   0.72573844  0.31794901  0.13412514
   0.56445319  0.28986032  0.17880489
   0.31764460  0.46031092  0.20264817
   0.73379348  0.94457989  0.03941742
   0.65002298  0.78162421  0.10658052
   0.90373565  0.93492815  0.03234668
   0.90688444  0.63741664  0.18815627
   0.73665107  0.61694024  0.15879987
   0.98344871  0.81146140  0.14142409
   0.82006058  0.78437000  0.10677491
   0.56808753  0.96129183  0.08464093
   0.23727853  0.94483464  0.02715051
   0.14817464  0.77175944  0.06815944
   0.40648213  0.93661633  0.03370319
   0.37768102  0.65917496  0.20829967
   0.23360463  0.60893766  0.12766111
   0.46086687  0.83313978  0.16447030
   0.30885824  0.79355874  0.10674902
   0.06990970  0.95745545  0.06497286
   0.58394718  0.79771357  0.25208058
   0.67251499  0.60193901  0.30753719
   0.48147331  0.61169383  0.30443367
slab_Cel1-OPT                           
           1
    13.731765    0.000000    0.000000
     0.000000   11.233917    0.000000
     0.000000    0.000000   15.000000
   C    N    Ag   Pd
    24    32     1     2
Direct configuration=     8
   0.07041026  0.38818095  0.22199757
   0.98199561  0.21874684  0.16786532
   0.22833533  0.39634334  0.18873811
   0.82460195  0.57618362  0.18548280
   0.14934548  0.24672501  0.12295377
   0.90783400  0.38426043  0.21787509
   0.56893000  0.39066347  0.23053158
   0.47770649  0.22334829  0.17986637
   0.73031242  0.39644406  0.19872410
   0.30890672  0.58108871  0.17877448
   0.64630866  0.25057086  0.13298229
   0.40211784  0.39178580  0.22036188
   0.81889125  0.89030720  0.05674883
   0.73434176  0.72502465  0.12284785
   0.97920579  0.89549907  0.07984242
   0.06854965  0.07720120  0.09405697
   0.90541429  0.74290914  0.14754305
   0.65561983  0.89341885  0.07449003
   0.31711210  0.89529982  0.05309120
   0.22591193  0.72169341  0.09996247
   0.47321521  0.90512689  0.09348818
   0.56595127  0.08079331  0.10965305
   0.38315886  0.76117012  0.16142473
   0.15466612  0.88982159  0.05278238
   0.98801058  0.43887832  0.24689981
   0.90020452  0.26910531  0.19558298
   0.15761019  0.43321994  0.24229001
   0.14774194  0.14350334  0.08006714
   0.98676771  0.10804785  0.13641573
   0.22900041  0.31496325  0.12502366
   0.06755808  0.28600933  0.16904847
   0.82290453  0.45469135  0.20984461
   0.48486193  0.44451344  0.24945903
   0.39570003  0.27385269  0.20635551
   0.65797421  0.43102868  0.25457824
   0.64457958  0.14559601  0.09332135
   0.48300064  0.11239972  0.15066513
   0.72581385  0.31776372  0.13374101
   0.56435675  0.28986147  0.17856477
   0.31769209  0.46019811  0.20249722
   0.73407552  0.94506077  0.03937904
   0.64967360  0.78101638  0.10587070
   0.90391532  0.93520742  0.03221347
   0.90689978  0.63748907  0.18822906
   0.73641113  0.61685433  0.15859873
   0.98375592  0.81143782  0.14144690
   0.81991051  0.78443948  0.10689841
   0.56792714  0.96096570  0.08432462
   0.23658324  0.94546395  0.02699597
   0.14737693  0.77204382  0.06778719
   0.40656932  0.93674592  0.03323970
   0.37773784  0.65920815  0.20825536
   0.23315422  0.60872472  0.12742968
   0.46090248  0.83329988  0.16452375
   0.30893548  0.79347284  0.10642945
   0.06984761  0.95742188  0.06490141
   0.58494222  0.79933818  0.25477311
   0.67362732  0.60221991  0.30922377
   0.48229541  0.61244001  0.30621815
slab_Cel1-OPT                           
           1
    13.717979    0.000000    0.000000
     0.000000   11.213261    0.000000
     0.000000    0.000000   15.000000
   C    N    Ag   Pd
    24    32     1     2
Direct configuration=     9
   0.07074340  0.38817010  0.22192494
   0.98229828  0.21857744  0.16780326
   0.22811275  0.39605762  0.18859291
   0.82481388  0.57597377  0.18621868
   0.14932405  0.24672251  0.12292101
   0.90748740  0.38442484  0.21777831
   0.56914208  0.39028259  0.23029157
   0.47768182  0.22212331  0.17946094
   0.73059919  0.39608537  0.19894157
   0.30853480  0.58128392  0.17853871
   0.64624951  0.24981917  0.13228173
   0.40197742  0.39168461  0.22006920
   0.81906028  0.89075957  0.05681059
   0.73409251  0.72518298  0.12180282
   0.97974656  0.89540221  0.07985356
   0.06856367  0.07702882  0.09388634
   0.90559597  0.74245621  0.14781041
   0.65560105  0.89311463  0.07341570
   0.31692273  0.89551610  0.05227903
   0.22533635  0.72092408  0.09954242
   0.47211128  0.90502204  0.09325881
   0.56613418  0.08079082  0.10943893
   0.38356498  0.76169111  0.16152280
   0.15426968  0.89009223  0.05270843
   0.98806990  0.43938846  0.24708196
   0.89996225  0.26868384  0.19568867
   0.15743049  0.43342571  0.24246136
   0.14797374  0.14337186  0.07976797
   0.98648712  0.10773429  0.13645996
   0.22912921  0.31484783  0.12478947
   0.06750907  0.28606093  0.16907171
   0.82243732  0.45429509  0.20976724
   0.48500933  0.44500196  0.24883091
   0.39475717  0.27250839  0.20657647
   0.65819964  0.43025845  0.25492835
   0.64481914  0.14531787  0.09284842
   0.48264089  0.11157055  0.15056317
   0.72597741  0.31736165  0.13290820
   0.56414759  0.28986397  0.17804419
   0.31779509  0.45995331  0.20216997
   0.73468726  0.94610422  0.03929584
   0.64891578  0.77969745  0.10433178
   0.90430503  0.93581340  0.03192465
   0.90693304  0.63764623  0.18838688
   0.73589070  0.61666790  0.15816263
   0.98442227  0.81138666  0.14149637
   0.81958499  0.78459023  0.10716617
   0.56757926  0.96025805  0.08363887
   0.23507516  0.94682948  0.02666093
   0.14564666  0.77266087  0.06698014
   0.40675843  0.93702714  0.03223484
   0.37786110  0.65928017  0.20815929
   0.23217728  0.60826269  0.12692794
   0.46097972  0.83364728  0.16463964
   0.30910301  0.79328646  0.10573659
   0.06971292  0.95734903  0.06474649
   0.58710050  0.80286338  0.26061059
   0.67604002  0.60282942  0.31288032
   0.48407859  0.61405912  0.31008698
slab_Cel1-OPT                           
           1
    13.706460    0.000000    0.000000
     0.000000   11.200463    0.000000
     0.000000    0.000000   15.000000
   C    N    Ag   Pd
    24    32     1     2
Direct configuration=    10
   0.07052186  0.38843534  0.22211724
   0.98193800  0.21843102  0.16791938
   0.22825145  0.39618139  0.18862360
   0.82401484  0.57611269  0.18638442
   0.14953347  0.24654203  0.12267268
   0.90727891  0.38446663  0.21783057
   0.56883097  0.39058156  0.23031774
   0.47694950  0.22195995  0.17952292
   0.73063980  0.39564831  0.19873474
   0.30871010  0.58135276  0.17856005
   0.64649783  0.24978525  0.13188279
   0.40210485  0.39142293  0.21992273
   0.81894182  0.89128106  0.05675485
   0.73335321  0.72491158  0.12119287
   0.98002092  0.89559541  0.07975054
   0.06854316  0.07698079  0.09375880
   0.90573862  0.74253805  0.14788943
   0.65520747  0.89262187  0.07292089
   0.31650076  0.89592468  0.05144116
   0.22458492  0.72110984  0.09882907
   0.47214219  0.90537534  0.09290263
   0.56600260  0.07996248  0.10907701
   0.38380649  0.76144835  0.16187227
   0.15358551  0.89045714  0.05244761
   0.98792231  0.43951215  0.24709999
   0.89992632  0.26858488  0.19579048
   0.15764226  0.43349638  0.24252522
   0.14798452  0.14333282  0.07959785
   0.98644272  0.10735229  0.13641630
   0.22912561  0.31476090  0.12457518
   0.06756482  0.28599342  0.16898442
   0.82256445  0.45392572  0.20991023
   0.48502032  0.44550683  0.24838006
   0.39467555  0.27231387  0.20683784
   0.65847696  0.43011149  0.25521412
   0.64500847  0.14490961  0.09234344
   0.48264600  0.11048794  0.15029242
   0.72605776  0.31750861  0.13263095
   0.56404483  0.28980760  0.17768068
   0.31795051  0.46012468  0.20189184
   0.73469958  0.94616924  0.03943628
   0.64854863  0.77958864  0.10324314
   0.90484184  0.93594337  0.03182201
   0.90721879  0.63770153  0.18862116
   0.73590946  0.61613548  0.15805596
   0.98455315  0.81115043  0.14167316
   0.81969955  0.78495033  0.10729270
   0.56734515  0.95966923  0.08307727
   0.23491467  0.94754074  0.02639343
   0.14524120  0.77214766  0.06664723
   0.40694864  0.93654925  0.03229099
   0.37786669  0.65922529  0.20795562
   0.23184920  0.60787094  0.12692431
   0.46115921  0.83402382  0.16448589
   0.30944609  0.79293964  0.10549211
   0.06942659  0.95751463  0.06465495
   0.58831543  0.80477785  0.26426709
   0.67713461  0.60323051  0.31515492
   0.48528972  0.61510514  0.31219240
slab_Cel1-OPT                           
           1
    13.701268    0.000000    0.000000
     0.000000   11.194695    0.000000
     0.000000    0.000000   15.000000
   C    N    Ag   Pd
    24    32     1     2
Direct configuration=    11
   0.07042191  0.38855502  0.22220392
   0.98177547  0.21836495  0.16797172
   0.22831401  0.39623725  0.18863743
   0.82365438  0.57617538  0.18645912
   0.14962795  0.24646059  0.12256075
   0.90718485  0.38448549  0.21785412
   0.56869062  0.39071647  0.23032953
   0.47661914  0.22188624  0.17955086
   0.73065812  0.39545108  0.19864151
   0.30878919  0.58138382  0.17856967
   0.64660985  0.24976995  0.13170297
   0.40216234  0.39130485  0.21985670
   0.81888838  0.89151639  0.05672973
   0.73301970  0.72478910  0.12091795
   0.98014468  0.89568259  0.07970411
   0.06853390  0.07695912  0.09370131
   0.90580297  0.74257498  0.14792505
   0.65502993  0.89239951  0.07269786
   0.31631040  0.89610906  0.05106350
   0.22424594  0.72119367  0.09850754
   0.47215614  0.90553477  0.09274208
   0.56594325  0.07958870  0.10891389
   0.38391544  0.76133880  0.16202979
   0.15327688  0.89062180  0.05233005
   0.98785573  0.43956797  0.24710811
   0.89991011  0.26854022  0.19583637
   0.15773779  0.43352827  0.24255400
   0.14798938  0.14331521  0.07952117
   0.98642270  0.10717992  0.13639662
   0.22912399  0.31472168  0.12447859
   0.06758997  0.28596296  0.16894507
   0.82262180  0.45375905  0.20997468
   0.48502529  0.44573465  0.24817684
   0.39463872  0.27222609  0.20695565
   0.65860206  0.43004518  0.25534293
   0.64509388  0.14472539  0.09211584
   0.48264831  0.10999942  0.15017039
   0.72609401  0.31757492  0.13250599
   0.56399848  0.28978217  0.17751684
   0.31802062  0.46020201  0.20176648
   0.73470513  0.94619858  0.03949958
   0.64838301  0.77953955  0.10275245
   0.90508400  0.93600202  0.03177575
   0.90734770  0.63772648  0.18872675
   0.73591793  0.61589523  0.15800788
   0.98461219  0.81104383  0.14175284
   0.81975123  0.78511282  0.10734973
   0.56723954  0.95940352  0.08282414
   0.23484227  0.94786169  0.02627287
   0.14505829  0.77191607  0.06649717
   0.40703444  0.93633361  0.03231630
   0.37786921  0.65920053  0.20786381
   0.23170120  0.60769416  0.12692267
   0.46124018  0.83419374  0.16441659
   0.30960085  0.79278314  0.10538192
   0.06929742  0.95758936  0.06461370
   0.58886351  0.80564175  0.26591519
   0.67762839  0.60341151  0.31618016
   0.48583608  0.61557715  0.31314138
slab_Cel1-OPT                           
           1
    13.690414    0.000000    0.000000
     0.000000   11.182083    0.000000
     0.000000    0.000000   15.000000
   C    N    Ag   Pd
    24    32     1     2
Direct configuration=    12
   0.07032982  0.38865813  0.22231815
   0.98157301  0.21812644  0.16802347
   0.22854363  0.39640416  0.18855275
   0.82347420  0.57657206  0.18648356
   0.14970543  0.24648485  0.12242019
   0.90725934  0.38440157  0.21802234
   0.56876081  0.39109130  0.23029136
   0.47638210  0.22138906  0.17943182
   0.73046074  0.39531900  0.19854813
   0.30887275  0.58154247  0.17845258
   0.64653909  0.24965482  0.13144976
   0.40228827  0.39164585  0.21986911
   0.81908757  0.89172419  0.05676609
   0.73274559  0.72417650  0.12075055
   0.97986536  0.89547979  0.07987470
   0.06841547  0.07733993  0.09368331
   0.90564887  0.74280746  0.14790915
   0.65461105  0.89221271  0.07244283
   0.31645303  0.89585840  0.05089893
   0.22456342  0.72096725  0.09833378
   0.47265163  0.90535323  0.09279868
   0.56593618  0.07898177  0.10846464
   0.38398105  0.76142145  0.16192425
   0.15305565  0.89062674  0.05186619
   0.98754860  0.43954859  0.24712619
   0.89975012  0.26860779  0.19601251
   0.15796095  0.43348765  0.24261130
   0.14786058  0.14304904  0.07930144
   0.98643191  0.10696347  0.13640410
   0.22924761  0.31494029  0.12441588
   0.06751080  0.28588976  0.16889870
   0.82268812  0.45377764  0.21016060
   0.48479035  0.44635830  0.24795591
   0.39475841  0.27254346  0.20729373
   0.65869616  0.43015297  0.25542748
   0.64506576  0.14439046  0.09176011
   0.48262012  0.10967854  0.15013492
   0.72620704  0.31791518  0.13240491
   0.56383755  0.28980338  0.17738481
   0.31828390  0.46020759  0.20161533
   0.73417370  0.94586570  0.03963996
   0.64818443  0.77942741  0.10207912
   0.90523360  0.93586433  0.03169689
   0.90709298  0.63734156  0.18897294
   0.73564560  0.61581905  0.15771137
   0.98468446  0.81131147  0.14175946
   0.81960595  0.78539844  0.10737264
   0.56735158  0.95914960  0.08224926
   0.23485241  0.94797101  0.02602675
   0.14498736  0.77179302  0.06608256
   0.40675932  0.93588658  0.03235260
   0.37813523  0.65882139  0.20800852
   0.23181802  0.60781896  0.12709983
   0.46159330  0.83436894  0.16435355
   0.30941482  0.79267104  0.10505071
   0.06925070  0.95774038  0.06447870
   0.58942791  0.80667956  0.26812574
   0.67797710  0.60350235  0.31757708
   0.48651037  0.61610534  0.31405573
slab_Cel1-OPT                           
           1
    13.685013    0.000000    0.000000
     0.000000   11.175808    0.000000
     0.000000    0.000000   15.000000
   C    N    Ag   Pd