  59  59   0   0
  0.3948347E+02  0.1375970E-08  0.1128670E-08  0.1500000E-08  0.1000000E-15
  1.000000000000000E-004
  CAR 
 slab_Cel1-OPT                           
      4.16533822    -27.54744171  301     -1.79389387      1.00000000
    -27.547  0.0000E+00  0.0000E+00
    -27.442  0.0000E+00  0.0000E+00
    -27.336  0.0000E+00  0.0000E+00
    -27.230  0.0000E+00  0.0000E+00
    -27.125  0.0000E+00  0.0000E+00
    -27.019  0.0000E+00  0.0000E+00
    -26.913  0.0000E+00  0.0000E+00
    -26.807  0.0000E+00  0.0000E+00
    -26.702  0.0000E+00  0.0000E+00
    -26.596  0.1035E-13  0.1094E-14
    -26.490  0.1416E-09  0.1497E-10
    -26.385  0.2316E-06  0.2450E-07
    -26.279  0.4926E-04  0.5232E-05
    -26.173  0.1567E-02  0.1709E-03
    -26.068  0.9500E-02  0.1175E-02
    -25.962  0.1787E-01  0.3064E-02
    -25.856  0.2306E-01  0.5502E-02
    -25.750  0.1885E-01  0.7495E-02
    -25.645  0.4539E-02  0.7975E-02
    -25.539  0.2320E-03  0.8000E-02
    -25.433  0.2020E-05  0.8000E-02
    -25.328  0.1172E-07  0.8000E-02
    -25.222  0.5964E-05  0.8001E-02
    -25.116  0.4812E-03  0.8051E-02
    -25.010  0.5605E-02  0.8644E-02
    -24.905  0.1305E-01  0.1002E-01
    -24.799  0.1387E-01  0.1149E-01
    -24.693  0.1139E-01  0.1269E-01
    -24.588  0.8973E-02  0.1364E-01
    -24.482  0.9304E-02  0.1463E-01
    -24.376  0.6950E-02  0.1536E-01
    -24.270  0.1272E-02  0.1550E-01
    -24.165  0.4555E-04  0.1550E-01
    -24.059  0.3601E-03  0.1554E-01
    -23.953  0.2356E-02  0.1579E-01
    -23.848  0.7069E-02  0.1654E-01
    -23.742  0.2296E-01  0.1896E-01
    -23.636  0.2954E-01  0.2209E-01
    -23.530  0.1782E-01  0.2397E-01
    -23.425  0.4648E-02  0.2446E-01
    -23.319  0.3662E-03  0.2450E-01
    -23.213  0.2946E-03  0.2453E-01
    -23.108  0.3970E-02  0.2495E-01
    -23.002  0.1006E-01  0.2601E-01
    -22.896  0.8334E-02  0.2689E-01
    -22.791  0.8456E-02  0.2779E-01
    -22.685  0.1312E-01  0.2918E-01
    -22.579  0.1310E-01  0.3056E-01
    -22.473  0.1001E-01  0.3162E-01
    -22.368  0.3268E-02  0.3197E-01
    -22.262  0.3241E-03  0.3200E-01
    -22.156  0.6261E-05  0.3200E-01
    -22.051  0.6387E-04  0.3201E-01
    -21.945  0.1873E-02  0.3220E-01
    -21.839  0.1256E-01  0.3353E-01
    -21.733  0.3040E-01  0.3675E-01
    -21.628  0.3483E-01  0.4043E-01
    -21.522  0.3077E-01  0.4368E-01
    -21.416  0.2715E-01  0.4655E-01
    -21.311  0.1222E-01  0.4784E-01
    -21.205  0.1492E-02  0.4800E-01
    -21.099  0.8707E-03  0.4809E-01
    -20.993  0.4694E-02  0.4859E-01
    -20.888  0.1252E-01  0.4991E-01
    -20.782  0.2056E-01  0.5209E-01
    -20.676  0.1910E-01  0.5410E-01
    -20.571  0.1327E-01  0.5551E-01
    -20.465  0.5306E-02  0.5607E-01
    -20.359  0.9180E-02  0.5704E-01
    -20.254  0.1706E-01  0.5884E-01
    -20.148  0.1886E-01  0.6084E-01
    -20.042  0.1997E-01  0.6295E-01
    -19.936  0.8924E-02  0.6389E-01
    -19.831  0.1014E-02  0.6400E-01
    -19.725  0.2322E-04  0.6400E-01
    -19.619  0.8243E-07  0.6400E-01
    -19.514  0.3772E-10  0.6400E-01
    -19.408  0.2033E-14  0.6400E-01
    -19.302  0.0000E+00  0.6400E-01
    -19.196  0.0000E+00  0.6400E-01
    -19.091  0.0000E+00  0.6400E-01
    -18.985  0.0000E+00  0.6400E-01
    -18.879  0.0000E+00  0.6400E-01
    -18.774  0.0000E+00  0.6400E-01
    -18.668  0.0000E+00  0.6400E-01
    -18.562  0.0000E+00  0.6400E-01
    -18.456  0.0000E+00  0.6400E-01
    -18.351  0.0000E+00  0.6400E-01
    -18.245  0.0000E+00  0.6400E-01
    -18.139  0.0000E+00  0.6400E-01
    -18.034  0.0000E+00  0.6400E-01
    -17.928  0.2153E-16  0.6400E-01
    -17.822  0.1024E-11  0.6400E-01
    -17.716  0.5644E-08  0.6400E-01
    -17.611  0.3756E-05  0.6400E-01
    -17.505  0.3255E-03  0.6403E-01
    -17.399  0.4283E-02  0.6449E-01
    -17.294  0.1172E-01  0.6573E-01
    -17.188  0.1262E-01  0.6706E-01
    -17.082  0.1222E-01  0.6835E-01
    -16.977  0.1515E-01  0.6995E-01
    -16.871  0.2016E-01  0.7208E-01
    -16.765  0.2150E-01  0.7436E-01
    -16.659  0.1576E-01  0.7602E-01
    -16.554  0.1115E-01  0.7720E-01
    -16.448  0.1186E-01  0.7845E-01
    -16.342  0.8293E-02  0.7933E-01
    -16.237  0.1550E-02  0.7950E-01
    -16.131  0.1579E-03  0.7951E-01
    -16.025  0.1363E-02  0.7966E-01
    -15.919  0.2510E-02  0.7992E-01
    -15.814  0.7171E-03  0.8000E-01
    -15.708  0.3061E-04  0.8000E-01
    -15.602  0.1639E-03  0.8002E-01
    -15.497  0.3447E-02  0.8038E-01
    -15.391  0.1743E-01  0.8222E-01
    -15.285  0.3033E-01  0.8543E-01
    -15.179  0.1753E-01  0.8728E-01
    -15.074  0.4510E-02  0.8776E-01
    -14.968  0.2340E-02  0.8801E-01
    -14.862  0.2375E-02  0.8826E-01
    -14.757  0.2424E-02  0.8851E-01
    -14.651  0.2530E-02  0.8878E-01
    -14.545  0.1843E-02  0.8898E-01
    -14.439  0.8919E-03  0.8907E-01
    -14.334  0.6664E-02  0.8978E-01
    -14.228  0.1395E-01  0.9125E-01
    -14.122  0.1105E-01  0.9242E-01
    -14.017  0.1309E-01  0.9380E-01
    -13.911  0.1512E-01  0.9540E-01
    -13.805  0.1664E-01  0.9716E-01
    -13.700  0.2354E-01  0.9965E-01
    -13.594  0.2375E-01  0.1022E+00
    -13.488  0.2480E-01  0.1048E+00
    -13.382  0.3030E-01  0.1080E+00
    -13.277  0.2350E-01  0.1105E+00
    -13.171  0.1955E-01  0.1125E+00
    -13.065  0.1486E-01  0.1141E+00
    -12.960  0.6559E-02  0.1148E+00
    -12.854  0.6194E-02  0.1155E+00
    -12.748  0.7550E-02  0.1163E+00
    -12.642  0.8859E-02  0.1172E+00
    -12.537  0.7108E-02  0.1179E+00
    -12.431  0.5203E-02  0.1185E+00
    -12.325  0.6378E-02  0.1192E+00
    -12.220  0.8551E-02  0.1201E+00
    -12.114  0.4513E-02  0.1205E+00
    -12.008  0.4690E-02  0.1210E+00
    -11.902  0.8977E-02  0.1220E+00
    -11.797  0.1445E-01  0.1235E+00
    -11.691  0.1785E-01  0.1254E+00
    -11.585  0.2106E-01  0.1276E+00
    -11.480  0.2493E-01  0.1303E+00
    -11.374  0.1910E-01  0.1323E+00
    -11.268  0.1800E-01  0.1342E+00
    -11.163  0.1987E-01  0.1363E+00
    -11.057  0.1909E-01  0.1383E+00
    -10.951  0.1159E-01  0.1395E+00
    -10.845  0.8157E-02  0.1404E+00
    -10.740  0.5773E-02  0.1410E+00
    -10.634  0.6337E-02  0.1417E+00
    -10.528  0.1204E-01  0.1429E+00
    -10.423  0.1738E-01  0.1448E+00
    -10.317  0.1776E-01  0.1467E+00
    -10.211  0.1760E-01  0.1485E+00
    -10.105  0.1649E-01  0.1503E+00
    -10.000  0.1184E-01  0.1515E+00
     -9.894  0.4274E-02  0.1520E+00
     -9.788  0.1851E-02  0.1522E+00
     -9.683  0.4430E-02  0.1526E+00
     -9.577  0.8594E-02  0.1535E+00
     -9.471  0.1181E-01  0.1548E+00
     -9.365  0.1892E-01  0.1568E+00
     -9.260  0.1961E-01  0.1589E+00
     -9.154  0.1550E-01  0.1605E+00
     -9.048  0.2388E-01  0.1630E+00
     -8.943  0.3167E-01  0.1664E+00
     -8.837  0.2633E-01  0.1692E+00
     -8.731  0.9760E-02  0.1702E+00
     -8.625  0.9895E-02  0.1712E+00
     -8.520  0.6601E-02  0.1719E+00
     -8.414  0.1645E-02  0.1721E+00
     -8.308  0.2636E-02  0.1724E+00
     -8.203  0.2934E-02  0.1727E+00
     -8.097  0.1301E-01  0.1741E+00
     -7.991  0.2301E-01  0.1765E+00
     -7.886  0.1672E-01  0.1783E+00
     -7.780  0.1915E-01  0.1803E+00
     -7.674  0.1359E-01  0.1817E+00
     -7.568  0.2507E-02  0.1820E+00
     -7.463  0.1655E-02  0.1822E+00
     -7.357  0.1339E-01  0.1836E+00
     -7.251  0.3050E-01  0.1868E+00
     -7.146  0.3411E-01  0.1904E+00
     -7.040  0.3070E-01  0.1937E+00
     -6.934  0.3475E-01  0.1973E+00
     -6.828  0.3623E-01  0.2012E+00
     -6.723  0.2330E-01  0.2036E+00
     -6.617  0.1314E-01  0.2050E+00
     -6.511  0.1031E-01  0.2061E+00
     -6.406  0.1533E-01  0.2077E+00
     -6.300  0.2712E-01  0.2106E+00
     -6.194  0.3005E-01  0.2138E+00
     -6.088  0.2264E-01  0.2162E+00
     -5.983  0.2195E-01  0.2185E+00
     -5.877  0.1527E-01  0.2201E+00
     -5.771  0.1754E-01  0.2219E+00
     -5.666  0.2361E-01  0.2244E+00
     -5.560  0.2735E-01  0.2273E+00
     -5.454  0.3676E-01  0.2312E+00
     -5.348  0.2686E-01  0.2341E+00
     -5.243  0.2673E-01  0.2369E+00
     -5.137  0.2671E-01  0.2397E+00
     -5.031  0.2617E-01  0.2425E+00
     -4.926  0.3089E-01  0.2457E+00
     -4.820  0.2683E-01  0.2486E+00
     -4.714  0.2459E-01  0.2512E+00
     -4.609  0.2880E-01  0.2542E+00
     -4.503  0.3108E-01  0.2575E+00
     -4.397  0.2386E-01  0.2600E+00
     -4.291  0.1601E-01  0.2617E+00
     -4.186  0.1831E-01  0.2637E+00
     -4.080  0.3335E-01  0.2672E+00
     -3.974  0.2924E-01  0.2703E+00
     -3.869  0.1806E-01  0.2722E+00
     -3.763  0.2550E-01  0.2749E+00
     -3.657  0.2960E-01  0.2780E+00
     -3.551  0.2935E-01  0.2811E+00
     -3.446  0.2056E-01  0.2833E+00
     -3.340  0.7657E-02  0.2841E+00
     -3.234  0.8817E-02  0.2850E+00
     -3.129  0.8015E-02  0.2859E+00
     -3.023  0.1177E-02  0.2860E+00
     -2.917  0.4574E-03  0.2860E+00
     -2.811  0.5417E-02  0.2866E+00
     -2.706  0.1005E-01  0.2877E+00
     -2.600  0.2893E-02  0.2880E+00
     -2.494  0.1194E-03  0.2880E+00
     -2.389  0.6314E-06  0.2880E+00
     -2.283  0.3974E-09  0.2880E+00
     -2.177  0.2743E-08  0.2880E+00
     -2.072  0.1928E-05  0.2880E+00
     -1.966  0.1867E-03  0.2880E+00
     -1.860  0.3090E-02  0.2883E+00
     -1.754  0.1113E-01  0.2895E+00
     -1.649  0.1268E-01  0.2909E+00
     -1.543  0.1168E-01  0.2921E+00
     -1.437  0.1252E-01  0.2934E+00
     -1.332  0.1026E-01  0.2945E+00
     -1.226  0.9152E-02  0.2955E+00
     -1.120  0.1178E-01  0.2967E+00
     -1.014  0.1692E-01  0.2985E+00
     -0.909  0.2244E-01  0.3009E+00
     -0.803  0.2055E-01  0.3031E+00
     -0.697  0.9446E-02  0.3040E+00
     -0.592  0.5628E-02  0.3046E+00
     -0.486  0.1176E-01  0.3059E+00
     -0.380  0.2619E-01  0.3087E+00
     -0.274  0.3230E-01  0.3121E+00
     -0.169  0.1915E-01  0.3141E+00
     -0.063  0.1212E-01  0.3154E+00
      0.043  0.5434E-02  0.3159E+00
      0.148  0.4672E-03  0.3160E+00
      0.254  0.6009E-05  0.3160E+00
      0.360  0.3392E-04  0.3160E+00
      0.466  0.1361E-02  0.3161E+00
      0.571  0.8153E-02  0.3170E+00
      0.677  0.8038E-02  0.3179E+00
      0.783  0.1342E-02  0.3180E+00
      0.888  0.8697E-03  0.3181E+00
      0.994  0.2889E-02  0.3184E+00
      1.100  0.5054E-02  0.3189E+00
      1.205  0.1180E-01  0.3202E+00
      1.311  0.1482E-01  0.3217E+00
      1.417  0.1464E-01  0.3233E+00
      1.523  0.2130E-01  0.3255E+00
      1.628  0.2500E-01  0.3282E+00
      1.734  0.2261E-01  0.3306E+00
      1.840  0.1965E-01  0.3327E+00
      1.945  0.2416E-01  0.3352E+00
      2.051  0.2845E-01  0.3382E+00
      2.157  0.2528E-01  0.3409E+00
      2.263  0.2040E-01  0.3430E+00
      2.368  0.1428E-01  0.3446E+00
      2.474  0.1831E-01  0.3465E+00
      2.580  0.2321E-01  0.3489E+00
      2.685  0.1826E-01  0.3509E+00
      2.791  0.8845E-02  0.3518E+00
      2.897  0.1718E-02  0.3520E+00
      3.003  0.6850E-04  0.3520E+00
      3.108  0.3791E-06  0.3520E+00
      3.214  0.2530E-09  0.3520E+00
      3.320  0.1931E-13  0.3520E+00
      3.425  0.0000E+00  0.3520E+00
      3.531  0.0000E+00  0.3520E+00
      3.637  0.0000E+00  0.3520E+00
      3.743  0.0000E+00  0.3520E+00
      3.848  0.0000E+00  0.3520E+00
      3.954  0.0000E+00  0.3520E+00
      4.060  0.0000E+00  0.3520E+00
      4.165  0.0000E+00  0.3520E+00
