 running on   48 total cores
 distrk:  each k-point on   48 cores,    1 groups
 distr:  one band on   12 cores,    4 groups
 vasp.6.3.2 27Jun22 (build May 04 2024 18:40:40) complex                        
  
 POSCAR found type information on POSCAR C N AgCu
 POSCAR found :  4 types and      59 ions
 Reading from existing POTCAR
 scaLAPACK will be used
 Reading from existing POTCAR
 LDA part: xc-table for Pade appr. of Perdew
 POSCAR found type information on POSCAR C N AgCu
 POSCAR found :  4 types and      59 ions
 POSCAR, INCAR and KPOINTS ok, starting setup
 FFT: planning ... GRIDC
 FFT: planning ... GRID_SOFT
 FFT: planning ... GRID
 WAVECAR not read
 entering main loop
       N       E                     dE             d eps       ncg     rms          rms(c)
DAV:   1     0.279218790799E+04    0.27922E+04   -0.10130E+05  1520   0.106E+03
DAV:   2     0.881186394005E+02   -0.27041E+04   -0.25247E+04  1920   0.305E+02
DAV:   3    -0.479045614273E+03   -0.56716E+03   -0.55836E+03  1792   0.158E+02
DAV:   4    -0.518587252389E+03   -0.39542E+02   -0.37709E+02  2152   0.621E+01
DAV:   5    -0.519996465512E+03   -0.14092E+01   -0.13054E+01  2208   0.875E+00    0.735E+01
DAV:   6    -0.636331285215E+03   -0.11633E+03   -0.89970E+02  2320   0.245E+02    0.530E+01
DAV:   7    -0.518399954498E+03    0.11793E+03   -0.26563E+02  2080   0.594E+01    0.334E+01
DAV:   8    -0.484986579954E+03    0.33413E+02   -0.10094E+02  2024   0.887E+01    0.170E+01
DAV:   9    -0.510293555578E+03   -0.25307E+02   -0.96713E+01  2376   0.147E+02    0.950E+01
DAV:  10    -0.482289441814E+03    0.28004E+02   -0.49051E+01  2208   0.361E+01    0.726E+00
DAV:  11    -0.481481149917E+03    0.80829E+00   -0.73328E+00  2304   0.246E+01    0.327E+00
DAV:  12    -0.481066604203E+03    0.41455E+00   -0.11160E+00  2128   0.448E+00    0.295E+00
DAV:  13    -0.480837182284E+03    0.22942E+00   -0.47124E-01  1808   0.231E+00    0.365E+00
DAV:  14    -0.480713676806E+03    0.12351E+00   -0.11020E-01  2168   0.308E+00    0.350E+00
DAV:  15    -0.480634357334E+03    0.79319E-01   -0.37637E-02  2216   0.205E+00    0.332E+00
DAV:  16    -0.480458598009E+03    0.17576E+00   -0.11586E-01  2368   0.488E+00    0.229E+00
DAV:  17    -0.480335747683E+03    0.12285E+00   -0.80502E-02  2416   0.349E+00    0.158E+00
DAV:  18    -0.480302122016E+03    0.33626E-01   -0.46183E-02  2232   0.129E+00    0.123E+00
DAV:  19    -0.480285265493E+03    0.16857E-01   -0.90263E-03  2368   0.805E-01    0.993E-01
DAV:  20    -0.480262482321E+03    0.22783E-01   -0.15049E-02  2424   0.154E+00    0.556E-01
DAV:  21    -0.480260629710E+03    0.18526E-02   -0.21361E-02  2312   0.987E-01    0.133E-01
DAV:  22    -0.480262868079E+03   -0.22384E-02   -0.50026E-03  2104   0.176E-01    0.118E-01
DAV:  23    -0.480263560537E+03   -0.69246E-03   -0.67565E-04  2160   0.178E-01    0.445E-02
DAV:  24    -0.480264833979E+03   -0.12734E-02   -0.32865E-04  1728   0.111E-01    0.427E-02
DAV:  25    -0.480265874285E+03   -0.10403E-02   -0.19517E-04  1504   0.575E-02    0.266E-02
DAV:  26    -0.480266149459E+03   -0.27517E-03   -0.13228E-04  1408   0.111E-01    0.759E-02
DAV:  27    -0.480266678121E+03   -0.52866E-03   -0.18232E-04  1184   0.131E-01    0.205E-02
DAV:  28    -0.480266854797E+03   -0.17668E-03   -0.54641E-05  1328   0.456E-02    0.333E-02
DAV:  29    -0.480266997114E+03   -0.14232E-03   -0.41446E-05  1272   0.388E-02    0.189E-02
DAV:  30    -0.480267060527E+03   -0.63412E-04   -0.18655E-05  1184   0.155E-02    0.142E-02
DAV:  31    -0.480267096503E+03   -0.35976E-04   -0.56806E-06  1048   0.971E-03    0.153E-02
DAV:  32    -0.480267110829E+03   -0.14326E-04   -0.46398E-06  1008   0.182E-02    0.740E-03
DAV:  33    -0.480267117621E+03   -0.67925E-05   -0.42404E-06  1032   0.693E-03
   1 F= -.48026712E+03 E0= -.48023280E+03  d E =-.480267E+03
 curvature:   0.00 expect dE= 0.000E+00 dE for cont linesearch  0.000E+00
 trial: gam= 0.00000 g(F)=  0.181E+00 g(S)=  0.853E-02 ort = 0.000E+00 (trialstep = 0.100E+01)
 search vector abs. value=  0.189E+00
 bond charge predicted
       N       E                     dE             d eps       ncg     rms          rms(c)
DAV:   1    -0.480411730101E+03   -0.14462E+00   -0.97904E+00  1408   0.663E+00    0.111E+00
DAV:   2    -0.480429359050E+03   -0.17629E-01   -0.20944E-01  2096   0.162E+00    0.731E-01
DAV:   3    -0.480432219041E+03   -0.28600E-02   -0.38699E-02  2192   0.158E+00    0.663E-01
DAV:   4    -0.480428359333E+03    0.38597E-02   -0.21727E-02  2112   0.124E+00    0.230E-01
DAV:   5    -0.480428112492E+03    0.24684E-03   -0.22989E-03  2072   0.371E-01    0.773E-02
DAV:   6    -0.480428130385E+03   -0.17893E-04   -0.87350E-04  1928   0.322E-01    0.618E-02
DAV:   7    -0.480428081360E+03    0.49025E-04   -0.26978E-04  1528   0.185E-01    0.150E-02
DAV:   8    -0.480428085593E+03   -0.42338E-05   -0.41219E-05  1088   0.191E-02
   2 F= -.48042809E+03 E0= -.48039418E+03  d E =-.160968E+00
 trial-energy change:   -0.160968  1 .order   -0.161331   -0.189300   -0.133362
 step:   3.7980(harm=  3.3841)  dis= 0.07724  next Energy=  -480.606704 (dE=-0.340E+00)
 bond charge predicted
       N       E                     dE             d eps       ncg     rms          rms(c)
DAV:   1    -0.480500441723E+03   -0.72360E-01   -0.77642E+01  1408   0.183E+01    0.261E+00
DAV:   2    -0.480618276043E+03   -0.11783E+00   -0.14656E+00  2072   0.507E+00    0.195E+00
DAV:   3    -0.480613664005E+03    0.46120E-02   -0.30237E-01  2232   0.460E+00    0.145E+00
DAV:   4    -0.480600640209E+03    0.13024E-01   -0.89259E-02  2048   0.240E+00    0.489E-01
DAV:   5    -0.480599805321E+03    0.83489E-03   -0.15713E-02  2016   0.112E+00    0.218E-01
DAV:   6    -0.480599477358E+03    0.32796E-03   -0.51105E-03  2128   0.783E-01    0.115E-01
DAV:   7    -0.480599399681E+03    0.77677E-04   -0.80672E-04  2112   0.247E-01    0.399E-02
DAV:   8    -0.480599417930E+03   -0.18249E-04   -0.16774E-04  1608   0.329E-02    0.183E-02
DAV:   9    -0.480599433962E+03   -0.16032E-04   -0.35074E-05  1256   0.175E-02    0.813E-03
DAV:  10    -0.480599446973E+03   -0.13012E-04   -0.58782E-06   968   0.120E-02    0.384E-03
DAV:  11    -0.480599461588E+03   -0.14615E-04   -0.37141E-06   968   0.973E-03    0.180E-03
DAV:  12    -0.480599475063E+03   -0.13475E-04   -0.24934E-06   968   0.832E-03    0.159E-03
DAV:  13    -0.480599483169E+03   -0.81060E-05   -0.15877E-06   984   0.590E-03
   3 F= -.48059948E+03 E0= -.48056675E+03  d E =-.332366E+00
 curvature:  -1.64 expect dE=-0.267E+00 dE for cont linesearch -0.452E-03
 trial: gam= 0.89780 g(F)=  0.157E+00 g(S)=  0.606E-02 ort =-0.722E-02 (trialstep = 0.976E+00)
 search vector abs. value=  0.302E+00
 bond charge predicted
       N       E                     dE             d eps       ncg     rms          rms(c)
DAV:   1    -0.480704677952E+03   -0.10520E+00   -0.15335E+01  1432   0.773E+00    0.748E-01
DAV:   2    -0.480727600791E+03   -0.22923E-01   -0.26191E-01  2064   0.188E+00    0.602E-01
DAV:   3    -0.480726011711E+03    0.15891E-02   -0.19478E-02  2096   0.106E+00    0.393E-01
DAV:   4    -0.480725228674E+03    0.78304E-03   -0.82397E-03  2088   0.756E-01    0.268E-01
DAV:   5    -0.480724766935E+03    0.46174E-03   -0.21049E-03  2024   0.353E-01    0.970E-02
DAV:   6    -0.480724809982E+03   -0.43047E-04   -0.77787E-04  2072   0.221E-01    0.504E-02
DAV:   7    -0.480724793298E+03    0.16684E-04   -0.25430E-04  1584   0.175E-01    0.298E-02
DAV:   8    -0.480724790850E+03    0.24480E-05   -0.42047E-05  1088   0.644E-02
   4 F= -.48072479E+03 E0= -.48069195E+03  d E =-.125308E+00
 trial-energy change:   -0.125308  1 .order   -0.125417   -0.152571   -0.098262
 step:   2.7431(harm=  2.7431)  dis= 0.08252  next Energy=  -480.813795 (dE=-0.214E+00)
 bond charge predicted
       N       E                     dE             d eps       ncg     rms          rms(c)
DAV:   1    -0.480742512476E+03   -0.17719E-01   -0.50526E+01  1432   0.141E+01    0.128E+00
DAV:   2    -0.480827798682E+03   -0.85286E-01   -0.95912E-01  2088   0.354E+00    0.106E+00
DAV:   3    -0.480822055520E+03    0.57432E-02   -0.61752E-02  2152   0.181E+00    0.679E-01
DAV:   4    -0.480819977466E+03    0.20781E-02   -0.23324E-02  2168   0.121E+00    0.492E-01
DAV:   5    -0.480818428790E+03    0.15487E-02   -0.75373E-03  2032   0.667E-01    0.188E-01
DAV:   6    -0.480818529932E+03   -0.10114E-03   -0.32302E-03  2104   0.554E-01    0.105E-01
DAV:   7    -0.480818445104E+03    0.84828E-04   -0.93935E-04  1856   0.345E-01    0.530E-02
DAV:   8    -0.480818455970E+03   -0.10866E-04   -0.15763E-04  1776   0.802E-02    0.250E-02
DAV:   9    -0.480818486004E+03   -0.30034E-04   -0.47979E-05  1360   0.194E-02    0.879E-03
DAV:  10    -0.480818506283E+03   -0.20279E-04   -0.85803E-06   968   0.120E-02    0.464E-03
DAV:  11    -0.480818525208E+03   -0.18925E-04   -0.39188E-06   952   0.105E-02    0.245E-03
DAV:  12    -0.480818548220E+03   -0.23012E-04   -0.36765E-06  1032   0.720E-03    0.156E-03
DAV:  13    -0.480818563047E+03   -0.14827E-04   -0.21159E-06   960   0.671E-03    0.129E-03
DAV:  14    -0.480818576422E+03   -0.13376E-04   -0.22222E-06   976   0.522E-03    0.762E-04
DAV:  15    -0.480818583136E+03   -0.67138E-05   -0.15997E-06   968   0.559E-03
   5 F= -.48081858E+03 E0= -.48078548E+03  d E =-.219100E+00
 curvature:  -2.65 expect dE=-0.273E+00 dE for cont linesearch -0.354E-03
 trial: gam= 0.61201 g(F)=  0.102E+00 g(S)=  0.134E-02 ort = 0.635E-02 (trialstep = 0.133E+01)
 search vector abs. value=  0.224E+00
 bond charge predicted
       N       E                     dE             d eps       ncg     rms          rms(c)
DAV:   1    -0.480896667387E+03   -0.78091E-01   -0.20954E+01  1432   0.947E+00    0.749E-01
DAV:   2    -0.480925327168E+03   -0.28660E-01   -0.33892E-01  2064   0.226E+00    0.574E-01
DAV:   3    -0.480923455581E+03    0.18716E-02   -0.26417E-02  2192   0.132E+00    0.393E-01
DAV:   4    -0.480922424067E+03    0.10315E-02   -0.62196E-03  2096   0.730E-01    0.264E-01
DAV:   5    -0.480922126634E+03    0.29743E-03   -0.18930E-03  1984   0.279E-01    0.101E-01
DAV:   6    -0.480922153176E+03   -0.26542E-04   -0.53692E-04  1968   0.103E-01    0.343E-02
DAV:   7    -0.480922157896E+03   -0.47205E-05   -0.15035E-04  1672   0.101E-01    0.251E-02
DAV:   8    -0.480922162173E+03   -0.42761E-05   -0.37058E-05  1096   0.684E-02
   6 F= -.48092216E+03 E0= -.48088940E+03  d E =-.103579E+00
 trial-energy change:   -0.103579  1 .order   -0.103604   -0.142082   -0.065125
 step:   2.4551(harm=  2.4551)  dis= 0.06755  next Energy=  -480.949743 (dE=-0.131E+00)
 bond charge predicted
       N       E                     dE             d eps       ncg     rms          rms(c)
DAV:   1    -0.480933023952E+03   -0.10866E-01   -0.14994E+01  1432   0.802E+00    0.624E-01
DAV:   2    -0.480952800545E+03   -0.19777E-01   -0.23428E-01  2072   0.190E+00    0.464E-01
DAV:   3    -0.480951545935E+03    0.12546E-02   -0.18061E-02  2128   0.114E+00    0.320E-01
DAV:   4    -0.480950865965E+03    0.67997E-03   -0.42497E-03  2032   0.628E-01    0.214E-01
DAV:   5    -0.480950681667E+03    0.18430E-03   -0.13075E-03  2024   0.233E-01    0.864E-02
DAV:   6    -0.480950718912E+03   -0.37245E-04   -0.55747E-04  2096   0.200E-01    0.463E-02
DAV:   7    -0.480950707130E+03    0.11782E-04   -0.22396E-04  1608   0.156E-01    0.215E-02
DAV:   8    -0.480950719405E+03   -0.12275E-04   -0.26508E-05  1064   0.422E-02    0.117E-02
DAV:   9    -0.480950739926E+03   -0.20521E-04   -0.14829E-05   976   0.157E-02    0.496E-03
DAV:  10    -0.480950754978E+03   -0.15053E-04   -0.70063E-06   976   0.152E-02    0.330E-03
DAV:  11    -0.480950766779E+03   -0.11801E-04   -0.34831E-06  1000   0.120E-02    0.183E-03
DAV:  12    -0.480950783534E+03   -0.16755E-04   -0.32022E-06   960   0.717E-03    0.111E-03
DAV:  13    -0.480950793348E+03   -0.98142E-05   -0.25348E-06   992   0.618E-03
   7 F= -.48095079E+03 E0= -.48091830E+03  d E =-.132210E+00
 curvature:  -2.57 expect dE=-0.181E+00 dE for cont linesearch -0.425E-04
 trial: gam= 0.75882 g(F)=  0.681E-01 g(S)=  0.232E-02 ort = 0.192E-02 (trialstep = 0.155E+01)
 search vector abs. value=  0.202E+00
 bond charge predicted
       N       E                     dE             d eps       ncg     rms          rms(c)
DAV:   1    -0.481007710604E+03   -0.56927E-01   -0.25766E+01  1416   0.102E+01    0.793E-01
DAV:   2    -0.481038343534E+03   -0.30633E-01   -0.36690E-01  2064   0.202E+00    0.455E-01
DAV:   3    -0.481037533490E+03    0.81004E-03   -0.20986E-02  2160   0.100E+00    0.360E-01
DAV:   4    -0.481036850495E+03    0.68300E-03   -0.74090E-03  2056   0.745E-01    0.224E-01
DAV:   5    -0.481036598959E+03    0.25154E-03   -0.16417E-03  2160   0.341E-01    0.831E-02
DAV:   6    -0.481036640343E+03   -0.41383E-04   -0.42033E-04  2088   0.833E-02    0.302E-02
DAV:   7    -0.481036646311E+03   -0.59680E-05   -0.59710E-05  1216   0.608E-02
   8 F= -.48103665E+03 E0= -.48100416E+03  d E =-.858530E-01
 trial-energy change:   -0.085853  1 .order   -0.085901   -0.111761   -0.060042
 step:   3.3599(harm=  3.3599)  dis= 0.09852  next Energy=  -481.071547 (dE=-0.121E+00)
 bond charge predicted
       N       E                     dE             d eps       ncg     rms          rms(c)
DAV:   1    -0.481033963658E+03    0.26767E-02   -0.34808E+01  1408   0.119E+01    0.917E-01
DAV:   2    -0.481075141199E+03   -0.41178E-01   -0.49551E-01  2080   0.244E+00    0.542E-01
DAV:   3    -0.481073919685E+03    0.12215E-02   -0.32526E-02  2216   0.137E+00    0.434E-01
DAV:   4    -0.481072633801E+03    0.12859E-02   -0.96308E-03  2048   0.862E-01    0.253E-01
DAV:   5    -0.481072414292E+03    0.21951E-03   -0.18982E-03  2160   0.309E-01    0.959E-02
DAV:   6    -0.481072482703E+03   -0.68411E-04   -0.52555E-04  2080   0.122E-01    0.388E-02
DAV:   7    -0.481072489685E+03   -0.69820E-05   -0.14078E-04  1520   0.115E-01    0.238E-02
DAV:   8    -0.481072499879E+03   -0.10194E-04   -0.31863E-05  1072   0.666E-02    0.109E-02
DAV:   9    -0.481072519685E+03   -0.19806E-04   -0.23512E-05  1176   0.199E-02    0.375E-03
DAV:  10    -0.481072528338E+03   -0.86532E-05   -0.40228E-06   984   0.109E-02
   9 F= -.48107253E+03 E0= -.48104007E+03  d E =-.121735E+00
 curvature:  -4.73 expect dE=-0.295E+00 dE for cont linesearch -0.389E-04
 trial: gam= 0.88317 g(F)=  0.618E-01 g(S)=  0.700E-03 ort = 0.129E-02 (trialstep = 0.174E+01)
 search vector abs. value=  0.223E+00
 bond charge predicted
       N       E                     dE             d eps       ncg     rms          rms(c)
DAV:   1    -0.481114074166E+03   -0.41554E-01   -0.36470E+01  1416   0.119E+01    0.957E-01
DAV:   2    -0.481156408065E+03   -0.42334E-01   -0.53464E-01  2048   0.244E+00    0.522E-01
DAV:   3    -0.481155255080E+03    0.11530E-02   -0.36155E-02  2224   0.129E+00    0.441E-01
DAV:   4    -0.481153638924E+03    0.16162E-02   -0.11509E-02  2088   0.780E-01    0.229E-01
DAV:   5    -0.481153426274E+03    0.21265E-03   -0.22238E-03  2112   0.321E-01    0.963E-02
DAV:   6    -0.481153505117E+03   -0.78844E-04   -0.89370E-04  2144   0.285E-01    0.609E-02
DAV:   7    -0.481153477966E+03    0.27151E-04   -0.33358E-04  1648   0.211E-01    0.257E-02
DAV:   8    -0.481153490105E+03   -0.12139E-04   -0.49246E-05  1064   0.563E-02    0.122E-02
DAV:   9    -0.481153507482E+03   -0.17377E-04   -0.24599E-05  1136   0.195E-02    0.417E-03
DAV:  10    -0.481153517491E+03   -0.10009E-04   -0.47795E-06   984   0.107E-02    0.248E-03
DAV:  11    -0.481153529777E+03   -0.12286E-04   -0.27335E-06   928   0.819E-03    0.148E-03
DAV:  12    -0.481153538403E+03   -0.86259E-05   -0.15823E-06   976   0.754E-03
  10 F= -.48115354E+03 E0= -.48112138E+03  d E =-.810101E-01
 trial-energy change:   -0.081010  1 .order   -0.081127   -0.110814   -0.051440
 step:   3.2502(harm=  3.2502)  dis= 0.10651  next Energy=  -481.175939 (dE=-0.103E+00)
 bond charge predicted
       N       E                     dE             d eps       ncg     rms          rms(c)
DAV:   1    -0.481146583361E+03    0.69464E-02   -0.27329E+01  1416   0.103E+01    0.815E-01
DAV:   2    -0.481178271236E+03   -0.31688E-01   -0.40015E-01  2048   0.209E+00    0.435E-01
DAV:   3    -0.481177456037E+03    0.81520E-03   -0.25973E-02  2232   0.105E+00    0.364E-01
DAV:   4    -0.481176395125E+03    0.10609E-02   -0.82777E-03  2088   0.648E-01    0.194E-01
DAV:   5    -0.481176215563E+03    0.17956E-03   -0.15864E-03  2120   0.259E-01    0.798E-02
DAV:   6    -0.481176270831E+03   -0.55268E-04   -0.52459E-04  2056   0.178E-01    0.436E-02
DAV:   7    -0.481176265285E+03    0.55460E-05   -0.19297E-04  1592   0.151E-01    0.229E-02
DAV:   8    -0.481176272429E+03   -0.71442E-05   -0.32974E-05  1048   0.611E-02
  11 F= -.48117627E+03 E0= -.48114437E+03  d E =-.103744E+00
 curvature:  -5.68 expect dE=-0.299E+00 dE for cont linesearch -0.567E-05
 trial: gam= 0.87827 g(F)=  0.521E-01 g(S)=  0.488E-03 ort = 0.471E-03 (trialstep = 0.202E+01)
 search vector abs. value=  0.225E+00
 bond charge predicted
       N       E                     dE             d eps       ncg     rms          rms(c)
DAV:   1    -0.481194219277E+03   -0.17954E-01   -0.50724E+01  1408   0.138E+01    0.101E+00
DAV:   2    -0.481252483732E+03   -0.58264E-01   -0.70410E-01  2064   0.295E+00    0.622E-01
DAV:   3    -0.481250306650E+03    0.21771E-02   -0.52134E-02  2208   0.166E+00    0.486E-01
DAV:   4    -0.481248212126E+03    0.20945E-02   -0.11814E-02  2136   0.779E-01    0.250E-01
DAV:   5    -0.481248068411E+03    0.14372E-03   -0.24884E-03  2048   0.226E-01    0.947E-02
DAV:   6    -0.481248165911E+03   -0.97501E-04   -0.73513E-04  1992   0.145E-01    0.429E-02
DAV:   7    -0.481248177834E+03   -0.11923E-04   -0.19031E-04  1600   0.126E-01    0.257E-02
DAV:   8    -0.481248196323E+03   -0.18489E-04   -0.52726E-05  1184   0.827E-02    0.146E-02
DAV:   9    -0.481248218231E+03   -0.21908E-04   -0.20651E-05  1088   0.399E-02    0.503E-03
DAV:  10    -0.481248236414E+03   -0.18184E-04   -0.10299E-05  1040   0.151E-02    0.292E-03
DAV:  11    -0.481248251806E+03   -0.15392E-04   -0.50322E-06   984   0.121E-02    0.210E-03
DAV:  12    -0.481248264964E+03   -0.13158E-04   -0.31499E-06   968   0.106E-02    0.122E-03
DAV:  13    -0.481248274773E+03   -0.98088E-05   -0.35050E-06  1032   0.703E-03
  12 F= -.48124827E+03 E0= -.48121615E+03  d E =-.720023E-01
 trial-energy change:   -0.072002  1 .order   -0.071990   -0.107113   -0.036867
 step:   3.0802(harm=  3.0802)  dis= 0.10386  next Energy=  -481.257937 (dE=-0.817E-01)
 bond charge predicted
       N       E                     dE             d eps       ncg     rms          rms(c)
DAV:   1    -0.481242682638E+03    0.55823E-02   -0.13857E+01  1416   0.721E+00    0.494E-01
DAV:   2    -0.481258801402E+03   -0.16119E-01   -0.19052E-01  2024   0.145E+00    0.269E-01
DAV:   3    -0.481258313638E+03    0.48776E-03   -0.78070E-03  2160   0.517E-01    0.190E-01
DAV:   4    -0.481258188431E+03    0.12521E-03   -0.27910E-03  2104   0.465E-01    0.124E-01
DAV:   5    -0.481258068062E+03    0.12037E-03   -0.94312E-04  2224   0.322E-01    0.520E-02
DAV:   6    -0.481258088324E+03   -0.20262E-04   -0.22813E-04  1752   0.829E-02    0.226E-02
DAV:   7    -0.481258094289E+03   -0.59646E-05   -0.50197E-05  1112   0.546E-02
  13 F= -.48125809E+03 E0= -.48122587E+03  d E =-.818219E-01
 curvature:  -6.54 expect dE=-0.286E+00 dE for cont linesearch -0.658E-05
 trial: gam= 0.86811 g(F)=  0.435E-01 g(S)=  0.310E-03 ort = 0.476E-03 (trialstep = 0.223E+01)
 search vector abs. value=  0.214E+00
 bond charge predicted
       N       E                     dE             d eps       ncg     rms          rms(c)
DAV:   1    -0.481254419328E+03    0.36690E-02   -0.59941E+01  1440   0.149E+01    0.956E-01
DAV:   2    -0.481335109066E+03   -0.80690E-01   -0.90993E-01  2080   0.364E+00    0.842E-01
DAV:   3    -0.481327562347E+03    0.75467E-02   -0.67329E-02  2224   0.193E+00    0.448E-01
DAV:   4    -0.481325985720E+03    0.15766E-02   -0.81769E-03  2160   0.532E-01    0.273E-01
DAV:   5    -0.481325742029E+03    0.24369E-03   -0.33527E-03  1920   0.214E-01    0.908E-02
DAV:   6    -0.481325827589E+03   -0.85559E-04   -0.69850E-04  2112   0.162E-01    0.461E-02
DAV:   7    -0.481325841574E+03   -0.13985E-04   -0.21410E-04  1792   0.139E-01    0.338E-02
DAV:   8    -0.481325856330E+03   -0.14757E-04   -0.50141E-05  1136   0.805E-02    0.181E-02
DAV:   9    -0.481325883202E+03   -0.26872E-04   -0.32109E-05  1272   0.371E-02    0.645E-03
DAV:  10    -0.481325905405E+03   -0.22203E-04   -0.89465E-06  1008   0.158E-02    0.360E-03
DAV:  11    -0.481325924619E+03   -0.19214E-04   -0.50413E-06   984   0.111E-02    0.233E-03
DAV:  12    -0.481325943630E+03   -0.19011E-04   -0.31137E-06   984   0.110E-02    0.147E-03
DAV:  13    -0.481325958330E+03   -0.14700E-04   -0.38605E-06  1040   0.796E-03    0.117E-03
DAV:  14    -0.481325969898E+03   -0.11568E-04   -0.20059E-06   984   0.559E-03    0.651E-04
DAV:  15    -0.481325979422E+03   -0.95245E-05   -0.20776E-06   968   0.473E-03
  14 F= -.48132598E+03 E0= -.48129396E+03  d E =-.678851E-01
 trial-energy change:   -0.067885  1 .order   -0.068071   -0.098659   -0.037482
 step:   3.6415(harm=  3.5996)  dis= 0.12069  next Energy=  -481.337766 (dE=-0.797E-01)
 bond charge predicted
       N       E                     dE             d eps       ncg     rms          rms(c)
DAV:   1    -0.481312217830E+03    0.13752E-01   -0.23731E+01  1440   0.933E+00    0.549E-01
DAV:   2    -0.481339384402E+03   -0.27167E-01   -0.30405E-01  2080   0.192E+00    0.376E-01
DAV:   3    -0.481338418105E+03    0.96630E-03   -0.15081E-02  2216   0.837E-01    0.268E-01
DAV:   4    -0.481337873730E+03    0.54437E-03   -0.38474E-03  2144   0.470E-01    0.159E-01
DAV:   5    -0.481337781378E+03    0.92352E-04   -0.12001E-03  2080   0.202E-01    0.555E-02
DAV:   6    -0.481337815705E+03   -0.34327E-04   -0.27554E-04  1968   0.678E-02    0.246E-02
DAV:   7    -0.481337819582E+03   -0.38762E-05   -0.50866E-05  1184   0.461E-02
  15 F= -.48133782E+03 E0= -.48130592E+03  d E =-.797253E-01
 curvature:  -8.72 expect dE=-0.391E+00 dE for cont linesearch -0.693E-06
 trial: gam= 1.06606 g(F)=  0.428E-01 g(S)=  0.209E-02 ort =-0.131E-03 (trialstep = 0.187E+01)
 search vector abs. value=  0.288E+00
 bond charge predicted
       N       E                     dE             d eps       ncg     rms          rms(c)
DAV:   1    -0.481316402011E+03    0.21414E-01   -0.56296E+01  1440   0.146E+01    0.823E-01
DAV:   2    -0.481402600676E+03   -0.86199E-01   -0.94942E-01  2096   0.358E+00    0.801E-01
DAV:   3    -0.481396692377E+03    0.59083E-02   -0.44498E-02  2224   0.147E+00    0.441E-01
DAV:   4    -0.481395455797E+03    0.12366E-02   -0.61448E-03  2216   0.517E-01    0.327E-01
DAV:   5    -0.481394890149E+03    0.56565E-03   -0.45516E-03  2072   0.352E-01    0.101E-01
DAV:   6    -0.481394983779E+03   -0.93630E-04   -0.89261E-04  2112   0.201E-01    0.542E-02
DAV:   7    -0.481394996719E+03   -0.12940E-04   -0.23867E-04  1648   0.163E-01    0.388E-02
DAV:   8    -0.481395008777E+03   -0.12057E-04   -0.55538E-05  1128   0.845E-02    0.174E-02
DAV:   9    -0.481395036213E+03   -0.27436E-04   -0.43374E-05  1344   0.257E-02    0.603E-03
DAV:  10    -0.481395050043E+03   -0.13830E-04   -0.61053E-06   992   0.133E-02    0.345E-03
DAV:  11    -0.481395066641E+03   -0.16598E-04   -0.34658E-06   952   0.849E-03    0.182E-03
DAV:  12    -0.481395078905E+03   -0.12264E-04   -0.17835E-06   992   0.686E-03    0.117E-03
DAV:  13    -0.481395089970E+03   -0.11066E-04   -0.17981E-06   968   0.509E-03    0.868E-04
DAV:  14    -0.481395102570E+03   -0.12599E-04   -0.20375E-06  1024   0.502E-03    0.677E-04
DAV:  15    -0.481395105993E+03   -0.34237E-05   -0.12239E-06   968   0.445E-03
  16 F= -.48139511E+03 E0= -.48136373E+03  d E =-.572864E-01
 trial-energy change:   -0.057286  1 .order   -0.057107   -0.083593   -0.030622
 step:   2.9176(harm=  2.9508)  dis= 0.11150  next Energy=  -481.403717 (dE=-0.659E-01)
 bond charge predicted
       N       E                     dE             d eps       ncg     rms          rms(c)
DAV:   1    -0.481382850110E+03    0.12252E-01   -0.17539E+01  1440   0.810E+00    0.448E-01
DAV:   2    -0.481406316352E+03   -0.23466E-01   -0.26229E-01  2096   0.193E+00    0.437E-01
DAV:   3    -0.481404477984E+03    0.18384E-02   -0.13659E-02  2200   0.797E-01    0.236E-01
DAV:   4    -0.481404078692E+03    0.39929E-03   -0.18523E-03  2216   0.267E-01    0.166E-01
DAV:   5    -0.481403955151E+03    0.12354E-03   -0.12862E-03  2000   0.165E-01    0.489E-02
DAV:   6    -0.481403982694E+03   -0.27543E-04   -0.21533E-04  1904   0.940E-02    0.274E-02
DAV:   7    -0.481403985732E+03   -0.30376E-05   -0.54644E-05  1200   0.822E-02
  17 F= -.48140399E+03 E0= -.48137289E+03  d E =-.661662E-01
 curvature:  -9.50 expect dE=-0.298E+00 dE for cont linesearch -0.840E-05
 trial: gam= 0.72119 g(F)=  0.311E-01 g(S)=  0.314E-03 ort = 0.505E-03 (trialstep = 0.208E+01)
 search vector abs. value=  0.182E+00
 bond charge predicted
       N       E                     dE             d eps       ncg     rms          rms(c)
DAV:   1    -0.481394960512E+03    0.90222E-02   -0.43230E+01  1424   0.128E+01    0.773E-01
DAV:   2    -0.481453462595E+03   -0.58502E-01   -0.65805E-01  2104   0.321E+00    0.721E-01
DAV:   3    -0.481448208722E+03    0.52539E-02   -0.43736E-02  2232   0.154E+00    0.374E-01
DAV:   4    -0.481447180474E+03    0.10282E-02   -0.50668E-03  2160   0.434E-01    0.244E-01
DAV:   5    -0.481446974351E+03    0.20612E-03   -0.26054E-03  2016   0.275E-01    0.845E-02
DAV:   6    -0.481447046038E+03   -0.71688E-04   -0.87694E-04  2144   0.273E-01    0.565E-02
DAV:   7    -0.481447025740E+03    0.20299E-04   -0.22232E-04  1600   0.162E-01    0.298E-02
DAV:   8    -0.481447043533E+03   -0.17793E-04   -0.44673E-05  1224   0.287E-02    0.125E-02
DAV:   9    -0.481447065017E+03   -0.21484E-04   -0.11861E-05  1016   0.209E-02    0.509E-03
DAV:  10    -0.481447078193E+03   -0.13176E-04   -0.68526E-06   992   0.148E-02    0.348E-03
DAV:  11    -0.481447091356E+03   -0.13163E-04   -0.43168E-06   984   0.979E-03    0.186E-03
DAV:  12    -0.481447106507E+03   -0.15151E-04   -0.28130E-06  1000   0.855E-03    0.113E-03
DAV:  13    -0.481447114210E+03   -0.77027E-05   -0.15711E-06   992   0.570E-03
  18 F= -.48144711E+03 E0= -.48141616E+03  d E =-.431285E-01
 trial-energy change:   -0.043128  1 .order   -0.042847   -0.066057   -0.019636
 step:   2.9162(harm=  2.9590)  dis= 0.08805  next Energy=  -481.451084 (dE=-0.471E-01)
 bond charge predicted
       N       E                     dE             d eps       ncg     rms          rms(c)
DAV:   1    -0.481444121526E+03    0.29850E-02   -0.69519E+00  1424   0.509E+00    0.284E-01
DAV:   2    -0.481451682486E+03   -0.75610E-02   -0.84743E-02  2096   0.103E+00    0.196E-01
DAV:   3    -0.481451432354E+03    0.25013E-03   -0.35188E-03  2192   0.400E-01    0.135E-01
DAV:   4    -0.481451330460E+03    0.10189E-03   -0.10570E-03  2104   0.293E-01    0.902E-02
DAV:   5    -0.481451286981E+03    0.43478E-04   -0.38235E-04  2120   0.157E-01    0.306E-02
DAV:   6    -0.481451299940E+03   -0.12959E-04   -0.75386E-05  1560   0.347E-02    0.129E-02
DAV:   7    -0.481451302091E+03   -0.21510E-05   -0.10161E-05   960   0.236E-02
  19 F= -.48145130E+03 E0= -.48142040E+03  d E =-.473164E-01
 curvature:  -8.45 expect dE=-0.218E+00 dE for cont linesearch -0.138E-04
 trial: gam= 0.82031 g(F)=  0.246E-01 g(S)=  0.123E-02 ort = 0.546E-03 (trialstep = 0.225E+01)
 search vector abs. value=  0.149E+00
 bond charge predicted
       N       E                     dE             d eps       ncg     rms          rms(c)
DAV:   1    -0.481444899681E+03    0.64003E-02   -0.41011E+01  1416   0.124E+01    0.810E-01
DAV:   2    -0.481492322542E+03   -0.47423E-01   -0.55531E-01  2104   0.282E+00    0.525E-01
DAV:   3    -0.481490489763E+03    0.18328E-02   -0.36031E-02  2200   0.160E+00    0.378E-01
DAV:   4    -0.481489330289E+03    0.11595E-02   -0.71891E-03  2160   0.725E-01    0.204E-01
DAV:   5    -0.481489234536E+03    0.95754E-04   -0.20059E-03  2088   0.241E-01    0.747E-02
DAV:   6    -0.481489286793E+03   -0.52257E-04   -0.51420E-04  2016   0.885E-02    0.299E-02
DAV:   7    -0.481489296683E+03   -0.98905E-05   -0.94824E-05  1472   0.296E-02
  20 F= -.48148930E+03 E0= -.48145853E+03  d E =-.379946E-01
 trial-energy change:   -0.037995  1 .order   -0.037597   -0.058939   -0.016255
 step:   3.0421(harm=  3.1024)  dis= 0.08329  next Energy=  -481.492191 (dE=-0.409E-01)
 bond charge predicted
       N       E                     dE             d eps       ncg     rms          rms(c)
DAV:   1    -0.481486449290E+03    0.28375E-02   -0.50973E+00  1408   0.436E+00    0.273E-01
DAV:   2    -0.481492591888E+03   -0.61426E-02   -0.70047E-02  2048   0.862E-01    0.158E-01
DAV:   3    -0.481492533698E+03    0.58190E-04   -0.34408E-03  2144   0.290E-01    0.116E-01
DAV:   4    -0.481492487867E+03    0.45831E-04   -0.98068E-04  2136   0.251E-01    0.736E-02
DAV:   5    -0.481492456848E+03    0.31020E-04   -0.35219E-04  1824   0.183E-01    0.310E-02
DAV:   6    -0.481492470136E+03   -0.13288E-04   -0.90920E-05  1464   0.671E-02    0.117E-02
DAV:   7    -0.481492479220E+03   -0.90842E-05   -0.15668E-05  1000   0.207E-02
  21 F= -.48149248E+03 E0= -.48146176E+03  d E =-.411771E-01
 curvature:  -8.77 expect dE=-0.181E+00 dE for cont linesearch -0.168E-04
 trial: gam= 0.78688 g(F)=  0.197E-01 g(S)=  0.942E-03 ort = 0.534E-03 (trialstep = 0.241E+01)
 search vector abs. value=  0.114E+00
 bond charge predicted
       N       E                     dE             d eps       ncg     rms          rms(c)
DAV:   1    -0.481485739974E+03    0.67302E-02   -0.35557E+01  1424   0.117E+01    0.739E-01
DAV:   2    -0.481525397565E+03   -0.39658E-01   -0.47004E-01  2104   0.272E+00    0.537E-01
DAV:   3    -0.481523312053E+03    0.20855E-02   -0.32570E-02  2272   0.153E+00    0.358E-01
DAV:   4    -0.481522242380E+03    0.10697E-02   -0.57000E-03  2192   0.667E-01    0.206E-01
DAV:   5    -0.481522152811E+03    0.89569E-04   -0.18309E-03  2048   0.241E-01    0.675E-02
DAV:   6    -0.481522214957E+03   -0.62145E-04   -0.32737E-04  2080   0.999E-02    0.298E-02
DAV:   7    -0.481522227261E+03   -0.12304E-04   -0.75709E-05  1280   0.787E-02    0.202E-02
DAV:   8    -0.481522238710E+03   -0.11450E-04   -0.28568E-05  1096   0.530E-02    0.938E-03
DAV:   9    -0.481522253629E+03   -0.14919E-04   -0.12568E-05  1000   0.204E-02    0.429E-03
DAV:  10    -0.481522264251E+03   -0.10623E-04   -0.54238E-06   992   0.131E-02    0.271E-03
DAV:  11    -0.481522277207E+03   -0.12955E-04   -0.34406E-06   968   0.966E-03    0.149E-03
DAV:  12    -0.481522288435E+03   -0.11229E-04   -0.24245E-06  1008   0.748E-03    0.108E-03
DAV:  13    -0.481522295959E+03   -0.75240E-05   -0.13784E-06   960   0.525E-03
  22 F= -.48152230E+03 E0= -.48149143E+03  d E =-.298167E-01
 trial-energy change:   -0.029817  1 .order   -0.029753   -0.050679   -0.008827
 step:   2.9132(harm=  2.9132)  dis= 0.06995  next Energy=  -481.523163 (dE=-0.307E-01)
 bond charge predicted
       N       E                     dE             d eps       ncg     rms          rms(c)
DAV:   1    -0.481521590547E+03    0.69789E-03   -0.15697E+00  1416   0.245E+00    0.145E-01
DAV:   2    -0.481523290532E+03   -0.17000E-02   -0.19793E-02  2096   0.476E-01    0.940E-02
DAV:   3    -0.481523229475E+03    0.61057E-04   -0.74756E-04  2128   0.146E-01    0.607E-02
DAV:   4    -0.481523217647E+03    0.11828E-04   -0.23438E-04  1968   0.138E-01    0.429E-02
DAV:   5    -0.481523204987E+03    0.12659E-04   -0.11073E-04  1368   0.108E-01    0.160E-02
DAV:   6    -0.481523208217E+03   -0.32297E-05   -0.25051E-05  1136   0.336E-02
  23 F= -.48152321E+03 E0= -.48149232E+03  d E =-.307290E-01
 curvature:  -7.87 expect dE=-0.143E+00 dE for cont linesearch -0.308E-06
 trial: gam= 0.87995 g(F)=  0.179E-01 g(S)=  0.269E-03 ort =-0.668E-04 (trialstep = 0.251E+01)
 search vector abs. value=  0.106E+00
 bond charge predicted
       N       E                     dE             d eps       ncg     rms          rms(c)
DAV:   1    -0.481509957901E+03    0.13247E-01   -0.35532E+01  1408   0.118E+01    0.724E-01
DAV:   2    -0.481552746321E+03   -0.42788E-01   -0.50197E-01  2096   0.273E+00    0.590E-01
DAV:   3    -0.481549932330E+03    0.28140E-02   -0.33837E-02  2248   0.129E+00    0.357E-01
DAV:   4    -0.481549056307E+03    0.87602E-03   -0.50174E-03  2232   0.516E-01    0.231E-01
DAV:   5    -0.481548954596E+03    0.10171E-03   -0.24300E-03  2080   0.347E-01    0.907E-02
DAV:   6    -0.481548998939E+03   -0.44343E-04   -0.10732E-03  2232   0.335E-01    0.534E-02
DAV:   7    -0.481548982462E+03    0.16477E-04   -0.22083E-04  1528   0.164E-01    0.224E-02
DAV:   8    -0.481548995479E+03   -0.13017E-04   -0.42178E-05  1104   0.235E-02    0.108E-02
DAV:   9    -0.481549010949E+03   -0.15471E-04   -0.11474E-05   992   0.148E-02    0.451E-03
DAV:  10    -0.481549020700E+03   -0.97507E-05   -0.46486E-06   960   0.101E-02
  24 F= -.48154902E+03 E0= -.48151825E+03  d E =-.258125E-01
 trial-energy change:   -0.025812  1 .order   -0.025707   -0.045319   -0.006095
 step:   2.8898(harm=  2.8970)  dis= 0.06763  next Energy=  -481.549486 (dE=-0.263E-01)
 bond charge predicted
       N       E                     dE             d eps       ncg     rms          rms(c)
DAV:   1    -0.481548752544E+03    0.25841E-03   -0.82165E-01  1408   0.178E+00    0.103E-01
DAV:   2    -0.481549559320E+03   -0.80678E-03   -0.95678E-03  2088   0.341E-01    0.665E-02
DAV:   3    -0.481549539278E+03    0.20042E-04   -0.43196E-04  2152   0.962E-02    0.444E-02
DAV:   4    -0.481549535883E+03    0.33951E-05   -0.10478E-04  1392   0.789E-02    0.309E-02
DAV:   5    -0.481549533544E+03    0.23391E-05   -0.56581E-05  1216   0.653E-02
  25 F= -.48154953E+03 E0= -.48151879E+03  d E =-.263253E-01
 curvature:  -8.50 expect dE=-0.130E+00 dE for cont linesearch -0.131E-04
 trial: gam= 0.80281 g(F)=  0.148E-01 g(S)=  0.497E-03 ort = 0.404E-03 (trialstep = 0.258E+01)
 search vector abs. value=  0.844E-01
 bond charge predicted
       N       E                     dE             d eps       ncg     rms          rms(c)
DAV:   1    -0.481545010671E+03    0.45252E-02   -0.29665E+01  1408   0.107E+01    0.655E-01
DAV:   2    -0.481575828568E+03   -0.30818E-01   -0.37328E-01  2096   0.202E+00    0.392E-01
DAV:   3    -0.481574747299E+03    0.10813E-02   -0.13952E-02  2192   0.510E-01    0.247E-01
DAV:   4    -0.481574608985E+03    0.13831E-03   -0.32548E-03  2104   0.496E-01    0.158E-01
DAV:   5    -0.481574521995E+03    0.86990E-04   -0.20434E-03  2248   0.506E-01    0.844E-02
DAV:   6    -0.481574500901E+03    0.21094E-04   -0.50169E-04  2168   0.213E-01    0.241E-02
DAV:   7    -0.481574518986E+03   -0.18085E-04   -0.77604E-05  1352   0.289E-02    0.153E-02
DAV:   8    -0.481574534271E+03   -0.15285E-04   -0.15608E-05  1072   0.376E-02    0.928E-03
DAV:   9    -0.481574544125E+03   -0.98548E-05   -0.83462E-06  1024   0.243E-02
  26 F= -.48157454E+03 E0= -.48154368E+03  d E =-.250106E-01
 trial-energy change:   -0.025011  1 .order   -0.025363   -0.040392   -0.010334
 step:   3.5679(harm=  3.4722)  dis= 0.07467  next Energy=  -481.576493 (dE=-0.270E-01)
 bond charge predicted
       N       E                     dE             d eps       ncg     rms          rms(c)
DAV:   1    -0.481571844472E+03    0.26898E-02   -0.42775E+00  1408   0.405E+00    0.243E-01
DAV:   2    -0.481576488505E+03   -0.46440E-02   -0.55582E-02  2088   0.773E-01    0.154E-01
DAV:   3    -0.481576344014E+03    0.14449E-03   -0.23202E-03  2200   0.216E-01    0.957E-02
DAV:   4    -0.481576342621E+03    0.13930E-05   -0.71451E-04  2232   0.227E-01    0.764E-02
DAV:   5    -0.481576298201E+03    0.44421E-04   -0.34096E-04  1704   0.178E-01    0.279E-02
DAV:   6    -0.481576310236E+03   -0.12035E-04   -0.60486E-05  1280   0.502E-02    0.102E-02
DAV:   7    -0.481576316674E+03   -0.64380E-05   -0.19151E-05  1104   0.348E-02
  27 F= -.48157632E+03 E0= -.48154542E+03  d E =-.267831E-01
 curvature:  -9.26 expect dE=-0.144E+00 dE for cont linesearch -0.124E-04
 trial: gam= 1.04662 g(F)=  0.153E-01 g(S)=  0.231E-03 ort =-0.336E-03 (trialstep = 0.219E+01)
 search vector abs. value=  0.107E+00
 bond charge predicted
       N       E                     dE             d eps       ncg     rms          rms(c)
DAV:   1    -0.481568527428E+03    0.77828E-02   -0.27426E+01  1408   0.101E+01    0.652E-01
DAV:   2    -0.481598744389E+03   -0.30217E-01   -0.36827E-01  2080   0.194E+00    0.388E-01
DAV:   3    -0.481597601694E+03    0.11427E-02   -0.14063E-02  2184   0.628E-01    0.255E-01
DAV:   4    -0.481597383106E+03    0.21859E-03   -0.52133E-03  2128   0.597E-01    0.164E-01
DAV:   5    -0.481597169547E+03    0.21356E-03   -0.22031E-03  2200   0.483E-01    0.680E-02
DAV:   6    -0.481597191868E+03   -0.22321E-04   -0.45050E-04  2176   0.156E-01    0.277E-02
DAV:   7    -0.481597206776E+03   -0.14908E-04   -0.80571E-05  1216   0.444E-02    0.158E-02
DAV:   8    -0.481597223892E+03   -0.17116E-04   -0.23830E-05  1160   0.367E-02    0.885E-03
DAV:   9    -0.481597235889E+03   -0.11998E-04   -0.88583E-06  1016   0.312E-02    0.479E-03
DAV:  10    -0.481597246560E+03   -0.10670E-04   -0.42371E-06   960   0.149E-02    0.230E-03
DAV:  11    -0.481597256345E+03   -0.97852E-05   -0.39508E-06   976   0.774E-03
  28 F= -.48159726E+03 E0= -.48156638E+03  d E =-.209397E-01
 trial-energy change:   -0.020940  1 .order   -0.021041   -0.033269   -0.008813
 step:   3.0027(harm=  2.9748)  dis= 0.07178  next Energy=  -481.598895 (dE=-0.226E-01)
 bond charge predicted
       N       E                     dE             d eps       ncg     rms          rms(c)
DAV:   1    -0.481594653058E+03    0.25935E-02   -0.37967E+00  1408   0.374E+00    0.240E-01
DAV:   2    -0.481599038052E+03   -0.43850E-02   -0.52875E-02  2016   0.726E-01    0.144E-01
DAV:   3    -0.481598916177E+03    0.12188E-03   -0.22255E-03  2168   0.199E-01    0.928E-02
DAV:   4    -0.481598891655E+03    0.24521E-04   -0.68537E-04  2120   0.194E-01    0.576E-02
DAV:   5    -0.481598868962E+03    0.22694E-04   -0.29849E-04  1720   0.178E-01    0.269E-02
DAV:   6    -0.481598872141E+03   -0.31793E-05   -0.63576E-05  1312   0.715E-02
  29 F= -.48159887E+03 E0= -.48156801E+03  d E =-.225555E-01
 curvature: -10.48 expect dE=-0.143E+00 dE for cont linesearch -0.329E-06
 trial: gam= 0.83227 g(F)=  0.134E-01 g(S)=  0.299E-03 ort =-0.580E-04 (trialstep = 0.235E+01)
 search vector abs. value=  0.879E-01
 bond charge predicted
       N       E                     dE             d eps       ncg     rms          rms(c)
DAV:   1    -0.481594013659E+03    0.48553E-02   -0.26518E+01  1456   0.974E+00    0.561E-01
DAV:   2    -0.481621892969E+03   -0.27879E-01   -0.32182E-01  2072   0.189E+00    0.359E-01
DAV:   3    -0.481621052877E+03    0.84009E-03   -0.11433E-02  2200   0.725E-01    0.240E-01
DAV:   4    -0.481620983847E+03    0.69030E-04   -0.42759E-03  2192   0.687E-01    0.172E-01
DAV:   5    -0.481620799257E+03    0.18459E-03   -0.18006E-03  2232   0.476E-01    0.590E-02
DAV:   6    -0.481620867007E+03   -0.67750E-04   -0.44872E-04  2048   0.119E-01    0.314E-02
DAV:   7    -0.481620868406E+03   -0.13994E-05   -0.97901E-05  1424   0.718E-02
  30 F= -.48162087E+03 E0= -.48159007E+03  d E =-.219963E-01
 trial-energy change:   -0.021996  1 .order   -0.021919   -0.032049   -0.011790
 step:   3.6706(harm=  3.7175)  dis= 0.07998  next Energy=  -481.624195 (dE=-0.253E-01)
 bond charge predicted
       N       E                     dE             d eps       ncg     rms          rms(c)
DAV:   1    -0.481615912491E+03    0.49545E-02   -0.83403E+00  1456   0.545E+00    0.311E-01
DAV:   2    -0.481624743040E+03   -0.88305E-02   -0.10162E-01  2088   0.106E+00    0.208E-01
DAV:   3    -0.481624423145E+03    0.31990E-03   -0.33021E-03  2192   0.345E-01    0.132E-01
DAV:   4    -0.481624396658E+03    0.26487E-04   -0.11741E-03  2112   0.299E-01    0.958E-02
DAV:   5    -0.481624360399E+03    0.36259E-04   -0.54587E-04  1992   0.195E-01    0.283E-02
DAV:   6    -0.481624387713E+03   -0.27315E-04   -0.87727E-05  1392   0.331E-02    0.134E-02
DAV:   7    -0.481624400561E+03   -0.12847E-04   -0.11404E-05   976   0.180E-02    0.724E-03
DAV:   8    -0.481624415288E+03   -0.14728E-04   -0.86078E-06  1000   0.179E-02    0.414E-03
DAV:   9    -0.481624424322E+03   -0.90335E-05   -0.33345E-06   976   0.179E-02
  31 F= -.48162442E+03 E0= -.48159367E+03  d E =-.255522E-01
 curvature: -11.97 expect dE=-0.209E+00 dE for cont linesearch -0.228E-05
 trial: gam= 1.29354 g(F)=  0.169E-01 g(S)=  0.513E-03 ort = 0.129E-03 (trialstep = 0.139E+01)
 search vector abs. value=  0.165E+00
 bond charge predicted
       N       E                     dE             d eps       ncg     rms          rms(c)
DAV:   1    -0.481626033673E+03   -0.16184E-02   -0.17687E+01  1472   0.784E+00    0.436E-01
DAV:   2    -0.481644563584E+03   -0.18530E-01   -0.21091E-01  2080   0.159E+00    0.326E-01
DAV:   3    -0.481643760045E+03    0.80354E-03   -0.99065E-03  2216   0.689E-01    0.216E-01
DAV:   4    -0.481643543613E+03    0.21643E-03   -0.21031E-03  2184   0.349E-01    0.141E-01
DAV:   5    -0.481643580658E+03   -0.37045E-04   -0.92983E-04  2096   0.204E-01    0.523E-02
DAV:   6    -0.481643628032E+03   -0.47373E-04   -0.35887E-04  1832   0.191E-01    0.326E-02
DAV:   7    -0.481643624548E+03    0.34835E-05   -0.89030E-05  1280   0.110E-01
  32 F= -.48164362E+03 E0= -.48161286E+03  d E =-.192002E-01
 trial-energy change:   -0.019200  1 .order   -0.019196   -0.024559   -0.013832
 step:   3.1909(harm=  3.1909)  dis= 0.09604  next Energy=  -481.652538 (dE=-0.281E-01)
 bond charge predicted
       N       E                     dE             d eps       ncg     rms          rms(c)
DAV:   1    -0.481621130554E+03    0.22497E-01   -0.29471E+01  1472   0.101E+01    0.579E-01
DAV:   2    -0.481654803210E+03   -0.33673E-01   -0.38030E-01  2080   0.219E+00    0.458E-01
DAV:   3    -0.481653029469E+03    0.17737E-02   -0.19423E-02  2232   0.101E+00    0.285E-01
DAV:   4    -0.481652613502E+03    0.41597E-03   -0.33486E-03  2192   0.447E-01    0.188E-01
DAV:   5    -0.481652684536E+03   -0.71034E-04   -0.17188E-03  2096   0.316E-01    0.777E-02
DAV:   6    -0.481652744041E+03   -0.59505E-04   -0.80864E-04  2040   0.298E-01    0.433E-02
DAV:   7    -0.481652745260E+03   -0.12190E-05   -0.15535E-04  1560   0.135E-01    0.190E-02
DAV:   8    -0.481652763099E+03   -0.17839E-04   -0.28689E-05  1088   0.185E-02    0.868E-03
DAV:   9    -0.481652780719E+03   -0.17620E-04   -0.77514E-06   968   0.130E-02    0.361E-03
DAV:  10    -0.481652793297E+03   -0.12579E-04   -0.38705E-06   960   0.891E-03    0.229E-03
DAV:  11    -0.481652805402E+03   -0.12105E-04   -0.20739E-06   960   0.646E-03    0.119E-03
DAV:  12    -0.481652817971E+03   -0.12569E-04   -0.18757E-06   960   0.490E-03    0.927E-04
DAV:  13    -0.481652824808E+03   -0.68367E-05   -0.10520E-06  1024   0.445E-03
  33 F= -.48165282E+03 E0= -.48162203E+03  d E =-.284005E-01
 curvature: -14.93 expect dE=-0.212E+00 dE for cont linesearch -0.233E-06
 trial: gam= 0.84137 g(F)=  0.142E-01 g(S)=  0.615E-04 ort = 0.507E-04 (trialstep = 0.175E+01)
 search vector abs. value=  0.131E+00
 bond charge predicted
       N       E                     dE             d eps       ncg     rms          rms(c)
DAV:   1    -0.481647422245E+03    0.53957E-02   -0.22489E+01  1472   0.871E+00    0.473E-01
DAV:   2    -0.481671372919E+03   -0.23951E-01   -0.26871E-01  2080   0.169E+00    0.318E-01
DAV:   3    -0.481670661309E+03    0.71161E-03   -0.88937E-03  2176   0.605E-01    0.218E-01
DAV:   4    -0.481670513342E+03    0.14797E-03   -0.26202E-03  2120   0.422E-01    0.140E-01
DAV:   5    -0.481670493217E+03    0.20125E-04   -0.10249E-03  2064   0.244E-01    0.480E-02
DAV:   6    -0.481670546013E+03   -0.52796E-04   -0.23471E-04  1928   0.615E-02    0.206E-02
DAV:   7    -0.481670550336E+03   -0.43228E-05   -0.34259E-05  1112   0.402E-02
  34 F= -.48167055E+03 E0= -.48163994E+03  d E =-.177255E-01
 trial-energy change:   -0.017726  1 .order   -0.017812   -0.025016   -0.010609
 step:   3.1329(harm=  3.0441)  dis= 0.08484  next Energy=  -481.674683 (dE=-0.219E-01)
 bond charge predicted
       N       E                     dE             d eps       ncg     rms          rms(c)
DAV:   1    -0.481660406675E+03    0.10139E-01   -0.13902E+01  1472   0.683E+00    0.368E-01
DAV:   2    -0.481674760369E+03   -0.14354E-01   -0.16092E-01  2072   0.127E+00    0.239E-01
DAV:   3    -0.481674346531E+03    0.41384E-03   -0.40900E-03  2184   0.276E-01    0.158E-01
DAV:   4    -0.481674332650E+03    0.13881E-04   -0.13070E-03  2048   0.245E-01    0.956E-02
DAV:   5    -0.481674331787E+03    0.86295E-06   -0.70406E-04  2072   0.223E-01    0.436E-02
DAV:   6    -0.481674350713E+03   -0.18926E-04   -0.15545E-04  1512   0.889E-02    0.161E-02
DAV:   7    -0.481674359744E+03   -0.90309E-05   -0.28280E-05  1104   0.336E-02
  35 F= -.48167436E+03 E0= -.48164391E+03  d E =-.215349E-01
 curvature: -13.91 expect dE=-0.226E+00 dE for cont linesearch -0.288E-04
 trial: gam= 1.17419 g(F)=  0.159E-01 g(S)=  0.322E-03 ort =-0.521E-03 (trialstep = 0.136E+01)
 search vector abs. value=  0.196E+00
 bond charge predicted
       N       E                     dE             d eps       ncg     rms          rms(c)
DAV:   1    -0.481669840550E+03    0.45102E-02   -0.20147E+01  1440   0.806E+00    0.438E-01
DAV:   2    -0.481691680698E+03   -0.21840E-01   -0.24281E-01  2088   0.155E+00    0.290E-01
DAV:   3    -0.481691072935E+03    0.60776E-03   -0.57281E-03  2192   0.389E-01    0.189E-01
DAV:   4    -0.481691128794E+03   -0.55859E-04   -0.24348E-03  2216   0.393E-01    0.149E-01
DAV:   5    -0.481691022490E+03    0.10630E-03   -0.13081E-03  2184   0.302E-01    0.489E-02
DAV:   6    -0.481691069407E+03   -0.46918E-04   -0.25471E-04  1680   0.124E-01    0.251E-02
DAV:   7    -0.481691075398E+03   -0.59902E-05   -0.72339E-05  1160   0.916E-02
  36 F= -.48169108E+03 E0= -.48166059E+03  d E =-.167157E-01
 trial-energy change:   -0.016716  1 .order   -0.016709   -0.021261   -0.012158
 step:   3.1732(harm=  3.1732)  dis= 0.10589  next Energy=  -481.699188 (dE=-0.248E-01)
 bond charge predicted
       N       E                     dE             d eps       ncg     rms          rms(c)
DAV:   1    -0.481659577868E+03    0.31492E-01   -0.36072E+01  1440   0.108E+01    0.599E-01
DAV:   2    -0.481700061907E+03   -0.40484E-01   -0.44862E-01  2088   0.207E+00    0.378E-01
DAV:   3    -0.481699092724E+03    0.96918E-03   -0.10491E-02  2160   0.569E-01    0.253E-01
DAV:   4    -0.481699123417E+03   -0.30692E-04   -0.39412E-03  2136   0.631E-01    0.171E-01
DAV:   5    -0.481699012194E+03    0.11122E-03   -0.21665E-03  2240   0.531E-01    0.692E-02
DAV:   6    -0.481699067713E+03   -0.55518E-04   -0.43506E-04  2064   0.165E-01    0.278E-02
DAV:   7    -0.481699081596E+03   -0.13883E-04   -0.92025E-05  1304   0.729E-02    0.200E-02
DAV:   8    -0.481699090863E+03   -0.92675E-05   -0.34691E-05  1160   0.433E-02
  37 F= -.48169909E+03 E0= -.48166855E+03  d E =-.247311E-01
 curvature: -19.84 expect dE=-0.256E+00 dE for cont linesearch -0.126E-04
 trial: gam= 0.69670 g(F)=  0.129E-01 g(S)=  0.558E-04 ort =-0.352E-03 (trialstep = 0.172E+01)
 search vector abs. value=  0.107E+00
 bond charge predicted
       N       E                     dE             d eps       ncg     rms          rms(c)
DAV:   1    -0.481695165631E+03    0.39160E-02   -0.17582E+01  1440   0.759E+00    0.439E-01
DAV:   2    -0.481714984381E+03   -0.19819E-01   -0.22590E-01  2072   0.149E+00    0.287E-01
DAV:   3    -0.481714279439E+03    0.70494E-03   -0.58308E-03  2200   0.419E-01    0.178E-01
DAV:   4    -0.481714252170E+03    0.27268E-04   -0.20745E-03  2080   0.390E-01    0.122E-01
DAV:   5    -0.481714183247E+03    0.68923E-04   -0.10163E-03  2088   0.304E-01    0.432E-02
DAV:   6    -0.481714209985E+03   -0.26738E-04   -0.16345E-04  1608   0.760E-02    0.196E-02
DAV:   7    -0.481714222396E+03   -0.12411E-04   -0.33066E-05  1104   0.292E-02    0.115E-02
DAV:   8    -0.481714234245E+03   -0.11849E-04   -0.10963E-05  1008   0.319E-02    0.656E-03
DAV:   9    -0.481714244345E+03   -0.10100E-04   -0.54855E-06   960   0.223E-02    0.400E-03
DAV:  10    -0.481714251792E+03   -0.74475E-05   -0.32779E-06   984   0.127E-02
  38 F= -.48171425E+03 E0= -.48168374E+03  d E =-.151609E-01
 trial-energy change:   -0.015161  1 .order   -0.015122   -0.021811   -0.008432
 step:   2.8067(harm=  2.8067)  dis= 0.06874  next Energy=  -481.716870 (dE=-0.178E-01)
 bond charge predicted
       N       E                     dE             d eps       ncg     rms          rms(c)
DAV:   1    -0.481709390567E+03    0.48538E-02   -0.69672E+00  1440   0.477E+00    0.274E-01
DAV:   2    -0.481717018671E+03   -0.76281E-02   -0.87336E-02  2048   0.942E-01    0.181E-01
DAV:   3    -0.481716843982E+03    0.17469E-03   -0.31700E-03  2208   0.307E-01    0.114E-01
DAV:   4    -0.481716826562E+03    0.17420E-04   -0.91377E-04  2088   0.271E-01    0.801E-02
DAV:   5    -0.481716794141E+03    0.32421E-04   -0.41047E-04  1944   0.191E-01    0.265E-02
DAV:   6    -0.481716807346E+03   -0.13205E-04   -0.62068E-05  1248   0.423E-02    0.121E-02
DAV:   7    -0.481716813120E+03   -0.57738E-05   -0.15093E-05  1000   0.269E-02
  39 F= -.48171681E+03 E0= -.48168631E+03  d E =-.177223E-01
 curvature: -11.90 expect dE=-0.110E+00 dE for cont linesearch -0.416E-05
 trial: gam= 0.72792 g(F)=  0.923E-02 g(S)=  0.764E-05 ort =-0.194E-03 (trialstep = 0.194E+01)
 search vector abs. value=  0.659E-01
 bond charge predicted
       N       E                     dE             d eps       ncg     rms          rms(c)
DAV:   1    -0.481714255580E+03    0.25518E-02   -0.13533E+01  1424   0.667E+00    0.385E-01
DAV:   2    -0.481730221148E+03   -0.15966E-01   -0.17877E-01  2096   0.136E+00    0.261E-01
DAV:   3    -0.481729644389E+03    0.57676E-03   -0.47506E-03  2192   0.418E-01    0.166E-01
DAV:   4    -0.481729602232E+03    0.42157E-04   -0.17817E-03  2136   0.367E-01    0.121E-01
DAV:   5    -0.481729532237E+03    0.69995E-04   -0.82981E-04  2096   0.241E-01    0.366E-02
DAV:   6    -0.481729559854E+03   -0.27617E-04   -0.12768E-04  1520   0.400E-02    0.165E-02
DAV:   7    -0.481729568580E+03   -0.87256E-05   -0.16455E-05  1016   0.314E-02
  40 F= -.48172957E+03 E0= -.48169905E+03  d E =-.127555E-01
 trial-energy change:   -0.012755  1 .order   -0.012708   -0.017628   -0.007788
 step:   3.3985(harm=  3.4729)  dis= 0.06407  next Energy=  -481.732521 (dE=-0.157E-01)
 bond charge predicted
       N       E                     dE             d eps       ncg     rms          rms(c)
DAV:   1    -0.481724142241E+03    0.54176E-02   -0.76643E+00  1424   0.502E+00    0.290E-01
DAV:   2    -0.481732989381E+03   -0.88471E-02   -0.99349E-02  2072   0.103E+00    0.195E-01
DAV:   3    -0.481732777388E+03    0.21199E-03   -0.36363E-03  2152   0.356E-01    0.126E-01
DAV:   4    -0.481732742381E+03    0.35007E-04   -0.10146E-03  2120   0.299E-01    0.889E-02
DAV:   5    -0.481732712358E+03    0.30023E-04   -0.45859E-04  1960   0.197E-01    0.271E-02
DAV:   6    -0.481732732803E+03   -0.20445E-04   -0.79473E-05  1304   0.443E-02    0.130E-02
DAV:   7    -0.481732740477E+03   -0.76740E-05   -0.20459E-05  1112   0.390E-02
  41 F= -.48173274E+03 E0= -.48170222E+03  d E =-.159274E-01
 curvature: -12.55 expect dE=-0.125E+00 dE for cont linesearch -0.165E-04
 trial: gam= 1.02909 g(F)=  0.999E-02 g(S)=  0.126E-05 ort = 0.294E-03 (trialstep = 0.183E+01)
 search vector abs. value=  0.804E-01
 bond charge predicted
       N       E                     dE             d eps       ncg     rms          rms(c)
DAV:   1    -0.481728022932E+03    0.47099E-02   -0.14529E+01  1424   0.703E+00    0.422E-01
DAV:   2    -0.481745586471E+03   -0.17564E-01   -0.19815E-01  2104   0.148E+00    0.287E-01
DAV:   3    -0.481744921090E+03    0.66538E-03   -0.62662E-03  2128   0.501E-01    0.184E-01
DAV:   4    -0.481744838193E+03    0.82897E-04   -0.21776E-03  2208   0.388E-01    0.136E-01
DAV:   5    -0.481744753490E+03    0.84703E-04   -0.88536E-04  2160   0.217E-01    0.437E-02
DAV:   6    -0.481744791335E+03   -0.37845E-04   -0.17180E-04  1760   0.710E-02    0.199E-02
DAV:   7    -0.481744798002E+03   -0.66670E-05   -0.46062E-05  1152   0.747E-02
  42 F= -.48174480E+03 E0= -.48171411E+03  d E =-.120575E-01
 trial-energy change:   -0.012058  1 .order   -0.012035   -0.018828   -0.005241
 step:   2.5337(harm=  2.5337)  dis= 0.05138  next Energy=  -481.745786 (dE=-0.130E-01)
 bond charge predicted
       N       E                     dE             d eps       ncg     rms          rms(c)
DAV:   1    -0.481743381554E+03    0.14098E-02   -0.21563E+00  1424   0.272E+00    0.163E-01
DAV:   2    -0.481745916516E+03   -0.25350E-02   -0.28648E-02  2072   0.574E-01    0.110E-01
DAV:   3    -0.481745859250E+03    0.57266E-04   -0.12629E-03  2128   0.214E-01    0.715E-02
DAV:   4    -0.481745845248E+03    0.14002E-04   -0.31191E-04  2008   0.154E-01    0.512E-02
DAV:   5    -0.481745843045E+03    0.22032E-05   -0.12923E-04  1432   0.862E-02    0.156E-02
DAV:   6    -0.481745855573E+03   -0.12528E-04   -0.29799E-05  1168   0.204E-02    0.638E-03
DAV:   7    -0.481745862058E+03   -0.64850E-05   -0.56633E-06   976   0.137E-02
  43 F= -.48174586E+03 E0= -.48171511E+03  d E =-.131216E-01
 curvature:  -9.88 expect dE=-0.633E-01 dE for cont linesearch -0.156E-05
 trial: gam= 0.69493 g(F)=  0.637E-02 g(S)=  0.357E-04 ort = 0.113E-03 (trialstep = 0.197E+01)
 search vector abs. value=  0.454E-01
 bond charge predicted
       N       E                     dE             d eps       ncg     rms          rms(c)
DAV:   1    -0.481743779588E+03    0.20760E-02   -0.94392E+00  1408   0.571E+00    0.343E-01
DAV:   2    -0.481755343310E+03   -0.11564E-01   -0.13082E-01  2088   0.120E+00    0.234E-01
DAV:   3    -0.481754979751E+03    0.36356E-03   -0.47784E-03  2096   0.448E-01    0.154E-01
DAV:   4    -0.481754921739E+03    0.58011E-04   -0.14090E-03  2160   0.308E-01    0.111E-01
DAV:   5    -0.481754899593E+03    0.22146E-04   -0.51090E-04  2032   0.160E-01    0.376E-02
DAV:   6    -0.481754927904E+03   -0.28311E-04   -0.11786E-04  1616   0.522E-02    0.162E-02
DAV:   7    -0.481754932134E+03   -0.42303E-05   -0.27169E-05  1136   0.564E-02
  44 F= -.48175493E+03 E0= -.48172434E+03  d E =-.907008E-02
 trial-energy change:   -0.009070  1 .order   -0.009111   -0.012776   -0.005447
 step:   3.5268(harm=  3.4330)  dis= 0.05249  next Energy=  -481.757065 (dE=-0.112E-01)
 bond charge predicted
       N       E                     dE             d eps       ncg     rms          rms(c)
DAV:   1    -0.481750059404E+03    0.48685E-02   -0.58980E+00  1408   0.452E+00    0.272E-01
DAV:   2    -0.481757198197E+03   -0.71388E-02   -0.80812E-02  2072   0.950E-01    0.183E-01
DAV:   3    -0.481757034031E+03    0.16417E-03   -0.33617E-03  2088   0.361E-01    0.121E-01
DAV:   4    -0.481756995668E+03    0.38362E-04   -0.86443E-04  2168   0.244E-01    0.871E-02
DAV:   5    -0.481756987354E+03    0.83145E-05   -0.32649E-04  1920   0.130E-01    0.293E-02
DAV:   6    -0.481757006923E+03   -0.19569E-04   -0.66583E-05  1368   0.335E-02    0.117E-02
DAV:   7    -0.481757011954E+03   -0.50308E-05   -0.13319E-05  1072   0.376E-02
  45 F= -.48175701E+03 E0= -.48172653E+03  d E =-.111499E-01
 curvature: -11.96 expect dE=-0.861E-01 dE for cont linesearch -0.243E-05
 trial: gam= 1.13955 g(F)=  0.720E-02 g(S)=  0.561E-05 ort =-0.960E-04 (trialstep = 0.157E+01)
 search vector abs. value=  0.659E-01
 bond charge predicted
       N       E                     dE             d eps       ncg     rms          rms(c)
DAV:   1    -0.481754899700E+03    0.21072E-02   -0.87275E+00  1408   0.555E+00    0.330E-01
DAV:   2    -0.481765598001E+03   -0.10698E-01   -0.12058E-01  2088   0.117E+00    0.225E-01
DAV:   3    -0.481765275827E+03    0.32217E-03   -0.45947E-03  2088   0.429E-01    0.151E-01
DAV:   4    -0.481765225219E+03    0.50608E-04   -0.13327E-03  2144   0.292E-01    0.112E-01
DAV:   5    -0.481765210129E+03    0.15089E-04   -0.46763E-04  2080   0.154E-01    0.419E-02
DAV:   6    -0.481765242572E+03   -0.32443E-04   -0.15651E-04  1480   0.111E-01    0.218E-02
DAV:   7    -0.481765241712E+03    0.86092E-06   -0.56085E-05  1208   0.871E-02
  46 F= -.48176524E+03 E0= -.48173470E+03  d E =-.822976E-02
 trial-energy change:   -0.008230  1 .order   -0.008268   -0.011142   -0.005394
 step:   3.0440(harm=  3.0440)  dis= 0.05398  next Energy=  -481.767811 (dE=-0.108E-01)
 bond charge predicted
       N       E                     dE             d eps       ncg     rms          rms(c)
DAV:   1    -0.481758384310E+03    0.68583E-02   -0.76846E+00  1408   0.521E+00    0.311E-01
DAV:   2    -0.481767842059E+03   -0.94577E-02   -0.10654E-01  2088   0.111E+00    0.213E-01
DAV:   3    -0.481767546735E+03    0.29532E-03   -0.42139E-03  2104   0.420E-01    0.143E-01
DAV:   4    -0.481767497612E+03    0.49123E-04   -0.11650E-03  2152   0.273E-01    0.104E-01
DAV:   5    -0.481767491379E+03    0.62327E-05   -0.40153E-04  2016   0.138E-01    0.389E-02
DAV:   6    -0.481767519862E+03   -0.28482E-04   -0.13645E-04  1456   0.105E-01    0.206E-02
DAV:   7    -0.481767519517E+03    0.34496E-06   -0.48565E-05  1176   0.818E-02
  47 F= -.48176752E+03 E0= -.48173692E+03  d E =-.105076E-01
 curvature: -14.14 expect dE=-0.827E-01 dE for cont linesearch -0.523E-05
 trial: gam= 0.77572 g(F)=  0.580E-02 g(S)=  0.482E-04 ort =-0.156E-03 (trialstep = 0.187E+01)
 search vector abs. value=  0.453E-01
 bond charge predicted
       N       E                     dE             d eps       ncg     rms          rms(c)
DAV:   1    -0.481765247173E+03    0.22727E-02   -0.82888E+00  1408   0.550E+00    0.324E-01
DAV:   2    -0.481775265181E+03   -0.10018E-01   -0.11294E-01  2072   0.116E+00    0.213E-01
DAV:   3    -0.481775040170E+03    0.22501E-03   -0.40365E-03  2128   0.465E-01    0.149E-01
DAV:   4    -0.481775003339E+03    0.36830E-04   -0.12632E-03  2216   0.383E-01    0.109E-01
DAV:   5    -0.481774978702E+03    0.24638E-04   -0.51191E-04  2128   0.231E-01    0.421E-02
DAV:   6    -0.481775007543E+03   -0.28842E-04   -0.13572E-04  1584   0.517E-02    0.144E-02
DAV:   7    -0.481775010976E+03   -0.34329E-05   -0.19411E-05  1080   0.306E-02
  48 F= -.48177501E+03 E0= -.48174431E+03  d E =-.749146E-02
 trial-energy change:   -0.007491  1 .order   -0.007495   -0.010680   -0.004310
 step:   3.1272(harm=  3.1272)  dis= 0.04502  next Energy=  -481.776473 (dE=-0.895E-02)
 bond charge predicted
       N       E                     dE             d eps       ncg     rms          rms(c)
DAV:   1    -0.481772044586E+03    0.29630E-02   -0.37933E+00  1408   0.372E+00    0.219E-01
DAV:   2    -0.481776632115E+03   -0.45875E-02   -0.51684E-02  2064   0.792E-01    0.150E-01
DAV:   3    -0.481776540467E+03    0.91649E-04   -0.23013E-03  2104   0.285E-01    0.104E-01
DAV:   4    -0.481776509736E+03    0.30731E-04   -0.57471E-04  2144   0.196E-01    0.749E-02
DAV:   5    -0.481776507199E+03    0.25364E-05   -0.22185E-04  1664   0.118E-01    0.297E-02
DAV:   6    -0.481776521864E+03   -0.14665E-04   -0.85230E-05  1376   0.881E-02    0.150E-02
DAV:   7    -0.481776522185E+03   -0.32103E-06   -0.27583E-05  1112   0.598E-02
  49 F= -.48177652E+03 E0= -.48174577E+03  d E =-.900267E-02
 curvature: -12.36 expect dE=-0.655E-01 dE for cont linesearch -0.326E-05
 trial: gam= 0.88326 g(F)=  0.527E-02 g(S)=  0.252E-04 ort = 0.109E-03 (trialstep = 0.212E+01)
 search vector abs. value=  0.408E-01
 bond charge predicted
       N       E                     dE             d eps       ncg     rms          rms(c)
DAV:   1    -0.481772385133E+03    0.41367E-02   -0.94774E+00  1408   0.598E+00    0.354E-01
DAV:   2    -0.481784778493E+03   -0.12393E-01   -0.13814E-01  2072   0.139E+00    0.266E-01
DAV:   3    -0.481784198598E+03    0.57990E-03   -0.64343E-03  2216   0.666E-01    0.171E-01
DAV:   4    -0.481784083146E+03    0.11545E-03   -0.11816E-03  2064   0.307E-01    0.112E-01
DAV:   5    -0.481784092401E+03   -0.92547E-05   -0.47796E-04  2024   0.148E-01    0.358E-02
DAV:   6    -0.481784116697E+03   -0.24296E-04   -0.11536E-04  1512   0.748E-02    0.194E-02
DAV:   7    -0.481784116455E+03    0.24254E-06   -0.31232E-05  1120   0.585E-02
  50 F= -.48178412E+03 E0= -.48175356E+03  d E =-.759427E-02
 trial-energy change:   -0.007594  1 .order   -0.007668   -0.011422   -0.003914
 step:   3.3344(harm=  3.2215)  dis= 0.04421  next Energy=  -481.785227 (dE=-0.871E-02)
 bond charge predicted
       N       E                     dE             d eps       ncg     rms          rms(c)
DAV:   1    -0.481781372237E+03    0.27445E-02   -0.31275E+00  1408   0.343E+00    0.203E-01
DAV:   2    -0.481785281819E+03   -0.39096E-02   -0.43573E-02  2088   0.784E-01    0.144E-01
DAV:   3    -0.481785133594E+03    0.14823E-03   -0.19335E-03  2192   0.392E-01    0.975E-02
DAV:   4    -0.481785098936E+03    0.34658E-04   -0.45749E-04  2120   0.227E-01    0.644E-02
DAV:   5    -0.481785100357E+03   -0.14213E-05   -0.16112E-04  1600   0.117E-01    0.245E-02
DAV:   6    -0.481785111049E+03   -0.10692E-04   -0.75216E-05  1392   0.655E-02    0.139E-02
DAV:   7    -0.481785111181E+03   -0.13189E-06   -0.18329E-05  1024   0.389E-02
  51 F= -.48178511E+03 E0= -.48175467E+03  d E =-.858900E-02
 curvature: -12.06 expect dE=-0.598E-01 dE for cont linesearch -0.732E-05
 trial: gam= 0.98549 g(F)=  0.495E-02 g(S)=  0.332E-05 ort =-0.157E-03 (trialstep = 0.218E+01)
 search vector abs. value=  0.443E-01
 bond charge predicted
       N       E                     dE             d eps       ncg     rms          rms(c)
DAV:   1    -0.481777257303E+03    0.78537E-02   -0.10907E+01  1408   0.648E+00    0.378E-01
DAV:   2    -0.481792401717E+03   -0.15144E-01   -0.16798E-01  2056   0.153E+00    0.304E-01
DAV:   3    -0.481791602638E+03    0.79908E-03   -0.78790E-03  2248   0.696E-01    0.187E-01
DAV:   4    -0.481791451086E+03    0.15155E-03   -0.12880E-03  2088   0.293E-01    0.124E-01
DAV:   5    -0.481791447141E+03    0.39451E-05   -0.60125E-04  1992   0.136E-01    0.354E-02
DAV:   6    -0.481791471824E+03   -0.24683E-04   -0.10055E-04  1632   0.340E-02    0.179E-02
DAV:   7    -0.481791473462E+03   -0.16381E-05   -0.15185E-05  1024   0.325E-02
  52 F= -.48179147E+03 E0= -.48176095E+03  d E =-.636228E-02
 trial-energy change:   -0.006362  1 .order   -0.006351   -0.010447   -0.002254
 step:   2.7744(harm=  2.7744)  dis= 0.03708  next Energy=  -481.791772 (dE=-0.666E-02)
 bond charge predicted
       N       E                     dE             d eps       ncg     rms          rms(c)
DAV:   1    -0.481790791427E+03    0.68040E-03   -0.82505E-01  1408   0.178E+00    0.105E-01
DAV:   2    -0.481791874307E+03   -0.10829E-02   -0.11997E-02  2072   0.436E-01    0.800E-02
DAV:   3    -0.481791822639E+03    0.51668E-04   -0.60709E-04  2168   0.232E-01    0.518E-02
DAV:   4    -0.481791810504E+03    0.12135E-04   -0.10240E-04  1400   0.113E-01    0.337E-02
DAV:   5    -0.481791815354E+03   -0.48497E-05   -0.69713E-05  1512   0.572E-02
  53 F= -.48179182E+03 E0= -.48176127E+03  d E =-.670417E-02
 curvature: -12.79 expect dE=-0.580E-01 dE for cont linesearch -0.356E-05
 trial: gam= 0.82378 g(F)=  0.452E-02 g(S)=  0.199E-04 ort = 0.111E-03 (trialstep = 0.230E+01)
 search vector abs. value=  0.348E-01
 bond charge predicted
       N       E                     dE             d eps       ncg     rms          rms(c)
DAV:   1    -0.481787172420E+03    0.46381E-02   -0.94144E+00  1408   0.614E+00    0.342E-01
DAV:   2    -0.481799455117E+03   -0.12283E-01   -0.13776E-01  2080   0.139E+00    0.260E-01
DAV:   3    -0.481798979263E+03    0.47585E-03   -0.62242E-03  2144   0.655E-01    0.169E-01
DAV:   4    -0.481798887619E+03    0.91644E-04   -0.10802E-03  2096   0.311E-01    0.112E-01
DAV:   5    -0.481798913535E+03   -0.25916E-04   -0.52058E-04  2088   0.165E-01    0.361E-02
DAV:   6    -0.481798937942E+03   -0.24408E-04   -0.14175E-04  1560   0.102E-01    0.219E-02
DAV:   7    -0.481798935636E+03    0.23061E-05   -0.35881E-05  1144   0.622E-02
  54 F= -.48179894E+03 E0= -.48176825E+03  d E =-.712028E-02
 trial-energy change:   -0.007120  1 .order   -0.007154   -0.010625   -0.003684
 step:   3.5136(harm=  3.5136)  dis= 0.03900  next Energy=  -481.799947 (dE=-0.813E-02)
 bond charge predicted
       N       E                     dE             d eps       ncg     rms          rms(c)
DAV:   1    -0.481796767095E+03    0.21708E-02   -0.26497E+00  1408   0.325E+00    0.179E-01
DAV:   2    -0.481800035071E+03   -0.32680E-02   -0.36548E-02  2056   0.705E-01    0.128E-01
DAV:   3    -0.481799956214E+03    0.78857E-04   -0.16321E-03  2200   0.337E-01    0.889E-02
DAV:   4    -0.481799930858E+03    0.25357E-04   -0.34881E-04  2048   0.204E-01    0.588E-02
DAV:   5    -0.481799935092E+03   -0.42346E-05   -0.13151E-04  1440   0.106E-01    0.209E-02
DAV:   6    -0.481799943677E+03   -0.85850E-05   -0.53198E-05  1256   0.542E-02
  55 F= -.48179994E+03 E0= -.48176918E+03  d E =-.812832E-02
 curvature: -13.19 expect dE=-0.611E-01 dE for cont linesearch -0.381E-05
 trial: gam= 1.06242 g(F)=  0.447E-02 g(S)=  0.161E-03 ort = 0.100E-03 (trialstep = 0.200E+01)
 search vector abs. value=  0.441E-01
 bond charge predicted
       N       E                     dE             d eps       ncg     rms          rms(c)
DAV:   1    -0.481795346774E+03    0.45883E-02   -0.90317E+00  1432   0.606E+00    0.342E-01
DAV:   2    -0.481806415705E+03   -0.11069E-01   -0.12513E-01  2048   0.125E+00    0.234E-01
DAV:   3    -0.481806228103E+03    0.18760E-03   -0.56641E-03  2240   0.576E-01    0.161E-01
DAV:   4    -0.481806163650E+03    0.64453E-04   -0.15631E-03  2272   0.435E-01    0.108E-01
DAV:   5    -0.481806140819E+03    0.22831E-04   -0.54801E-04  2104   0.227E-01    0.343E-02
DAV:   6    -0.481806164350E+03   -0.23531E-04   -0.12439E-04  1520   0.532E-02    0.160E-02
DAV:   7    -0.481806166266E+03   -0.19161E-05   -0.29100E-05  1088   0.471E-02
  56 F= -.48180617E+03 E0= -.48177530E+03  d E =-.622259E-02
 trial-energy change:   -0.006223  1 .order   -0.006279   -0.009492   -0.003065
 step:   3.0396(harm=  2.9571)  dis= 0.03577  next Energy=  -481.806953 (dE=-0.701E-02)
 bond charge predicted
       N       E                     dE             d eps       ncg     rms          rms(c)
DAV:   1    -0.481803878876E+03    0.22855E-02   -0.24216E+00  1424   0.314E+00    0.174E-01
DAV:   2    -0.481807061645E+03   -0.31828E-02   -0.35504E-02  2064   0.643E-01    0.130E-01
DAV:   3    -0.481806967032E+03    0.94613E-04   -0.14212E-03  2200   0.239E-01    0.847E-02
DAV:   4    -0.481806951567E+03    0.15465E-04   -0.39878E-04  2072   0.156E-01    0.594E-02
DAV:   5    -0.481806948870E+03    0.26973E-05   -0.15537E-04  1504   0.940E-02    0.188E-02
DAV:   6    -0.481806956740E+03   -0.78699E-05   -0.46498E-05  1168   0.696E-02
  57 F= -.48180696E+03 E0= -.48177604E+03  d E =-.701306E-02
 curvature: -13.65 expect dE=-0.615E-01 dE for cont linesearch -0.267E-05
 trial: gam= 0.95569 g(F)=  0.448E-02 g(S)=  0.349E-04 ort = 0.929E-04 (trialstep = 0.217E+01)
 search vector abs. value=  0.450E-01
 bond charge predicted
       N       E                     dE             d eps       ncg     rms          rms(c)
DAV:   1    -0.481801369998E+03    0.55789E-02   -0.10746E+01  1408   0.665E+00    0.379E-01
DAV:   2    -0.481814465182E+03   -0.13095E-01   -0.14702E-01  2048   0.127E+00    0.251E-01
DAV:   3    -0.481814067836E+03    0.39735E-03   -0.45590E-03  2216   0.450E-01    0.171E-01
DAV:   4    -0.481814049280E+03    0.18555E-04   -0.15806E-03  2048   0.367E-01    0.108E-01
DAV:   5    -0.481814032194E+03    0.17086E-04   -0.60988E-04  2048   0.230E-01    0.340E-02
DAV:   6    -0.481814061176E+03   -0.28982E-04   -0.11689E-04  1504   0.487E-02    0.140E-02
DAV:   7    -0.481814064980E+03   -0.38037E-05   -0.16203E-05  1032   0.340E-02
  58 F= -.48181406E+03 E0= -.48178313E+03  d E =-.710824E-02
 trial-energy change:   -0.007108  1 .order   -0.007076   -0.009965   -0.004186
 step:   3.7367(harm=  3.7367)  dis= 0.04170  next Energy=  -481.815549 (dE=-0.859E-02)
 bond charge predicted
       N       E                     dE             d eps       ncg     rms          rms(c)
DAV:   1    -0.481808890810E+03    0.51704E-02   -0.56345E+00  1408   0.482E+00    0.272E-01
DAV:   2    -0.481815862153E+03   -0.69713E-02   -0.78112E-02  2056   0.999E-01    0.190E-01
DAV:   3    -0.481815675852E+03    0.18630E-03   -0.31363E-03  2232   0.449E-01    0.130E-01
DAV:   4    -0.481815645643E+03    0.30209E-04   -0.94887E-04  2168   0.347E-01    0.888E-02
DAV:   5    -0.481815634899E+03    0.10744E-04   -0.38153E-04  1984   0.182E-01    0.251E-02
DAV:   6    -0.481815653067E+03   -0.18168E-04   -0.77352E-05  1248   0.422E-02    0.128E-02
DAV:   7    -0.481815656482E+03   -0.34151E-05   -0.21641E-05  1120   0.388E-02
  59 F= -.48181566E+03 E0= -.48178471E+03  d E =-.869974E-02
 curvature: -18.26 expect dE=-0.751E-01 dE for cont linesearch -0.156E-05
 trial: gam= 0.90841 g(F)=  0.410E-02 g(S)=  0.117E-04 ort = 0.621E-04 (trialstep = 0.248E+01)
 search vector abs. value=  0.413E-01
 bond charge predicted
       N       E                     dE             d eps       ncg     rms          rms(c)
DAV:   1    -0.481805101599E+03    0.10551E-01   -0.12962E+01  1408   0.735E+00    0.426E-01
DAV:   2    -0.481821925914E+03   -0.16824E-01   -0.19106E-01  2056   0.156E+00    0.310E-01
DAV:   3    -0.481821230446E+03    0.69547E-03   -0.84661E-03  2232   0.727E-01    0.207E-01
DAV:   4    -0.481821067381E+03    0.16307E-03   -0.17611E-03  2120   0.377E-01    0.130E-01
DAV:   5    -0.481821086842E+03   -0.19461E-04   -0.69925E-04  2032   0.186E-01    0.378E-02
DAV:   6    -0.481821121680E+03   -0.34838E-04   -0.13949E-04  1672   0.705E-02    0.194E-02
DAV:   7    -0.481821123888E+03   -0.22085E-05   -0.32286E-05  1120   0.588E-02
  60 F= -.48182112E+03 E0= -.48179019E+03  d E =-.546741E-02
 trial-energy change:   -0.005467  1 .order   -0.005406   -0.010346   -0.000467
 step:   2.5938(harm=  2.5981)  dis= 0.02630  next Energy=  -481.821135 (dE=-0.548E-02)
 bond charge predicted
       N       E                     dE             d eps       ncg     rms          rms(c)
DAV:   1    -0.481821099748E+03    0.21932E-04   -0.26752E-02  1432   0.339E-01    0.214E-02
DAV:   2    -0.481821146756E+03   -0.47008E-04   -0.48972E-04  2112   0.822E-02    0.147E-02
DAV:   3    -0.481821146519E+03    0.23692E-06   -0.14770E-05   984   0.388E-02
  61 F= -.48182115E+03 E0= -.48179021E+03  d E =-.549004E-02
 curvature: -12.85 expect dE=-0.382E-01 dE for cont linesearch -0.569E-06
 trial: gam= 0.72050 g(F)=  0.293E-02 g(S)=  0.381E-04 ort = 0.428E-04 (trialstep = 0.250E+01)
 search vector abs. value=  0.245E-01
 bond charge predicted
       N       E                     dE             d eps       ncg     rms          rms(c)
DAV:   1    -0.481815891534E+03    0.52552E-02   -0.77493E+00  1408   0.571E+00    0.330E-01
DAV:   2    -0.481825833704E+03   -0.99422E-02   -0.11340E-01  2048   0.121E+00    0.237E-01
DAV:   3    -0.481825475113E+03    0.35859E-03   -0.47677E-03  2248   0.584E-01    0.160E-01
DAV:   4    -0.481825401232E+03    0.73881E-04   -0.13814E-03  2184   0.412E-01    0.107E-01
DAV:   5    -0.481825387508E+03    0.13725E-04   -0.52793E-04  2088   0.217E-01    0.335E-02
DAV:   6    -0.481825408633E+03   -0.21126E-04   -0.13110E-04  1464   0.663E-02    0.172E-02
DAV:   7    -0.481825410722E+03   -0.20883E-05   -0.34014E-05  1168   0.467E-02
  62 F= -.48182541E+03 E0= -.48179427E+03  d E =-.426420E-02
 trial-energy change:   -0.004264  1 .order   -0.004219   -0.007518   -0.000920
 step:   2.8373(harm=  2.8527)  dis= 0.02082  next Energy=  -481.825472 (dE=-0.433E-02)
 bond charge predicted
       N       E                     dE             d eps       ncg     rms          rms(c)
DAV:   1    -0.481825271316E+03    0.13732E-03   -0.13732E-01  1408   0.764E-01    0.446E-02
DAV:   2    -0.481825489631E+03   -0.21831E-03   -0.23756E-03  2056   0.174E-01    0.350E-02
DAV:   3    -0.481825480023E+03    0.96074E-05   -0.88458E-05  1448   0.716E-02
  63 F= -.48182548E+03 E0= -.48179431E+03  d E =-.433350E-02
 curvature: -11.61 expect dE=-0.271E-01 dE for cont linesearch -0.284E-05
 trial: gam= 0.79653 g(F)=  0.230E-02 g(S)=  0.297E-04 ort = 0.774E-04 (trialstep = 0.257E+01)
 search vector abs. value=  0.180E-01
 bond charge predicted
       N       E                     dE             d eps       ncg     rms          rms(c)
DAV:   1    -0.481821884703E+03    0.36049E-02   -0.59315E+00  1408   0.497E+00    0.300E-01
DAV:   2    -0.481829401531E+03   -0.75168E-02   -0.85528E-02  2080   0.102E+00    0.204E-01
DAV:   3    -0.481829153174E+03    0.24836E-03   -0.34914E-03  2216   0.419E-01    0.143E-01
DAV:   4    -0.481829111752E+03    0.41422E-04   -0.87515E-04  2080   0.261E-01    0.928E-02
DAV:   5    -0.481829121030E+03   -0.92772E-05   -0.30773E-04  1960   0.143E-01    0.311E-02
DAV:   6    -0.481829140686E+03   -0.19656E-04   -0.76777E-05  1448   0.375E-02    0.122E-02
DAV:   7    -0.481829141847E+03   -0.11606E-05   -0.90484E-06   984   0.245E-02
  64 F= -.48182914E+03 E0= -.48179797E+03  d E =-.366182E-02
 trial-energy change:   -0.003662  1 .order   -0.003680   -0.006156   -0.001204
 step:   3.1951(harm=  3.1951)  dis= 0.01924  next Energy=  -481.829306 (dE=-0.383E-02)
 bond charge predicted
       N       E                     dE             d eps       ncg     rms          rms(c)
DAV:   1    -0.481828859300E+03    0.28139E-03   -0.35035E-01  1408   0.121E+00    0.721E-02
DAV:   2    -0.481829325469E+03   -0.46617E-03   -0.51965E-03  2088   0.257E-01    0.498E-02
DAV:   3    -0.481829310970E+03    0.14499E-04   -0.20400E-04  1960   0.124E-01    0.348E-02
DAV:   4    -0.481829307548E+03    0.34216E-05   -0.49573E-05  1112   0.878E-02
  65 F= -.48182931E+03 E0= -.48179813E+03  d E =-.382752E-02
 curvature: -12.00 expect dE=-0.263E-01 dE for cont linesearch -0.686E-05
 trial: gam= 0.91347 g(F)=  0.217E-02 g(S)=  0.282E-04 ort = 0.101E-03 (trialstep = 0.270E+01)
 search vector abs. value=  0.174E-01
 bond charge predicted
       N       E                     dE             d eps       ncg     rms          rms(c)
DAV:   1    -0.481824114965E+03    0.51960E-02   -0.63031E+00  1408   0.513E+00    0.311E-01
DAV:   2    -0.481833579239E+03   -0.94643E-02   -0.10649E-01  2064   0.120E+00    0.250E-01
DAV:   3    -0.481833039671E+03    0.53957E-03   -0.53403E-03  2152   0.538E-01    0.154E-01
DAV:   4    -0.481832970315E+03    0.69356E-04   -0.84920E-04  2176   0.206E-01    0.103E-01
DAV:   5    -0.481832997831E+03   -0.27516E-04   -0.40810E-04  2032   0.107E-01    0.333E-02
DAV:   6    -0.481833014889E+03   -0.17058E-04   -0.12605E-04  1448   0.107E-01    0.202E-02
DAV:   7    -0.481833012636E+03    0.22524E-05   -0.34689E-05  1080   0.704E-02
  66 F= -.48183301E+03 E0= -.48180189E+03  d E =-.370509E-02
 trial-energy change:   -0.003705  1 .order   -0.003741   -0.006165   -0.001318
 step:   3.4284(harm=  3.4284)  dis= 0.01959  next Energy=  -481.833228 (dE=-0.392E-02)
 bond charge predicted
       N       E                     dE             d eps       ncg     rms          rms(c)
DAV:   1    -0.481832560093E+03    0.45480E-03   -0.46637E-01  1408   0.140E+00    0.839E-02
DAV:   2    -0.481833211414E+03   -0.65132E-03   -0.72516E-03  2088   0.305E-01    0.604E-02
DAV:   3    -0.481833187361E+03    0.24053E-04   -0.32704E-04  2016   0.126E-01    0.407E-02
DAV:   4    -0.481833181720E+03    0.56417E-05   -0.60586E-05  1168   0.711E-02
  67 F= -.48183318E+03 E0= -.48180207E+03  d E =-.387417E-02
 curvature: -13.03 expect dE=-0.273E-01 dE for cont linesearch -0.436E-05
 trial: gam= 0.95162 g(F)=  0.208E-02 g(S)=  0.164E-04 ort = 0.763E-04 (trialstep = 0.275E+01)
 search vector abs. value=  0.180E-01
 bond charge predicted
       N       E                     dE             d eps       ncg     rms          rms(c)
DAV:   1    -0.481826141459E+03    0.70459E-02   -0.68032E+00  1408   0.532E+00    0.316E-01
DAV:   2    -0.481836783251E+03   -0.10642E-01   -0.11846E-01  2080   0.119E+00    0.251E-01
DAV:   3    -0.481836279111E+03    0.50414E-03   -0.48744E-03  2200   0.511E-01    0.158E-01
DAV:   4    -0.481836195688E+03    0.83423E-04   -0.96550E-04  2176   0.244E-01    0.108E-01
DAV:   5    -0.481836194629E+03    0.10594E-05   -0.50336E-04  2072   0.121E-01    0.296E-02
DAV:   6    -0.481836211410E+03   -0.16781E-04   -0.78709E-05  1472   0.446E-02    0.163E-02
DAV:   7    -0.481836212670E+03   -0.12602E-05   -0.18217E-05  1048   0.431E-02
  68 F= -.48183621E+03 E0= -.48180499E+03  d E =-.303095E-02
 trial-energy change:   -0.003031  1 .order   -0.003105   -0.005951   -0.000259
 step:   2.8841(harm=  2.8729)  dis= 0.01633  next Energy=  -481.836219 (dE=-0.304E-02)
 bond charge predicted
       N       E                     dE             d eps       ncg     rms          rms(c)
DAV:   1    -0.481836195508E+03    0.15902E-04   -0.16752E-02  1424   0.269E-01    0.172E-02
DAV:   2    -0.481836226628E+03   -0.31119E-04   -0.31540E-04  2056   0.594E-02    0.107E-02
DAV:   3    -0.481836226955E+03   -0.32708E-06   -0.58571E-06   904   0.222E-02
  69 F= -.48183623E+03 E0= -.48180500E+03  d E =-.304523E-02
 curvature: -11.84 expect dE=-0.223E-01 dE for cont linesearch -0.796E-08
 trial: gam= 0.87216 g(F)=  0.183E-02 g(S)=  0.548E-04 ort = 0.348E-05 (trialstep = 0.277E+01)
 search vector abs. value=  0.156E-01
 bond charge predicted
       N       E                     dE             d eps       ncg     rms          rms(c)
DAV:   1    -0.481831311764E+03    0.49149E-02   -0.60320E+00  1408   0.496E+00    0.290E-01
DAV:   2    -0.481839314298E+03   -0.80025E-02   -0.89793E-02  2088   0.108E+00    0.217E-01
DAV:   3    -0.481838978752E+03    0.33555E-03   -0.44188E-03  2184   0.454E-01    0.145E-01
DAV:   4    -0.481838892472E+03    0.86280E-04   -0.79577E-04  2112   0.211E-01    0.942E-02
DAV:   5    -0.481838905373E+03   -0.12900E-04   -0.33619E-04  1968   0.117E-01    0.337E-02
DAV:   6    -0.481838920775E+03   -0.15402E-04   -0.12376E-04  1408   0.111E-01    0.191E-02
DAV:   7    -0.481838918477E+03    0.22975E-05   -0.33447E-05  1064   0.705E-02
  70 F= -.48183892E+03 E0= -.48180760E+03  d E =-.269152E-02
 trial-energy change:   -0.002692  1 .order   -0.002692   -0.005238   -0.000147
 step:   2.8551(harm=  2.8551)  dis= 0.01474  next Energy=  -481.838921 (dE=-0.269E-02)
 bond charge predicted
       N       E                     dE             d eps       ncg     rms          rms(c)
DAV:   1    -0.481838911494E+03    0.92807E-05   -0.49966E-03  1456   0.145E-01    0.113E-02
DAV:   2    -0.481838921291E+03   -0.97966E-05   -0.90924E-05  1544   0.456E-02
  71 F= -.48183892E+03 E0= -.48180761E+03  d E =-.269434E-02
 curvature: -11.78 expect dE=-0.171E-01 dE for cont linesearch -0.747E-05
 trial: gam= 0.78738 g(F)=  0.145E-02 g(S)=  0.491E-05 ort =-0.994E-04 (trialstep = 0.279E+01)
 search vector abs. value=  0.109E-01
 bond charge predicted
       N       E                     dE             d eps       ncg     rms          rms(c)
DAV:   1    -0.481835534084E+03    0.33774E-02   -0.43794E+00  1408   0.419E+00    0.238E-01
DAV:   2    -0.481841278979E+03   -0.57449E-02   -0.63989E-02  2080   0.908E-01    0.174E-01
DAV:   3    -0.481841051515E+03    0.22746E-03   -0.25667E-03  2216   0.414E-01    0.115E-01
DAV:   4    -0.481841004301E+03    0.47214E-04   -0.59965E-04  2120   0.238E-01    0.731E-02
DAV:   5    -0.481841005598E+03   -0.12971E-05   -0.25753E-04  1952   0.132E-01    0.229E-02
DAV:   6    -0.481841015314E+03   -0.97158E-05   -0.51844E-05  1184   0.592E-02
  72 F= -.48184102E+03 E0= -.48180962E+03  d E =-.209402E-02
 trial-energy change:   -0.002094  1 .order   -0.002054   -0.003829   -0.000278
 step:   2.9944(harm=  3.0093)  dis= 0.01282  next Energy=  -481.841025 (dE=-0.210E-02)
 bond charge predicted
       N       E                     dE             d eps       ncg     rms          rms(c)
DAV:   1    -0.481840982168E+03    0.23431E-04   -0.23094E-02  1440   0.309E-01    0.205E-02
DAV:   2    -0.481841024483E+03   -0.42316E-04   -0.43682E-04  2088   0.691E-02    0.123E-02
DAV:   3    -0.481841024736E+03   -0.25288E-06   -0.10227E-05   984   0.313E-02
  73 F= -.48184102E+03 E0= -.48180963E+03  d E =-.210345E-02
 curvature: -11.95 expect dE=-0.159E-01 dE for cont linesearch -0.679E-06
 trial: gam= 0.91638 g(F)=  0.133E-02 g(S)=  0.200E-05 ort =-0.249E-04 (trialstep = 0.283E+01)
 search vector abs. value=  0.105E-01
 bond charge predicted
       N       E                     dE             d eps       ncg     rms          rms(c)
DAV:   1    -0.481838047307E+03    0.29772E-02   -0.43940E+00  1424   0.416E+00    0.231E-01
DAV:   2    -0.481843404590E+03   -0.53573E-02   -0.60324E-02  2072   0.806E-01    0.152E-01
DAV:   3    -0.481843265701E+03    0.13889E-03   -0.16088E-03  2160   0.198E-01    0.104E-01
DAV:   4    -0.481843266289E+03   -0.58817E-06   -0.56886E-04  2104   0.182E-01    0.688E-02
DAV:   5    -0.481843250674E+03    0.15615E-04   -0.28527E-04  1672   0.161E-01    0.288E-02
DAV:   6    -0.481843259730E+03   -0.90557E-05   -0.80388E-05  1360   0.733E-02
  74 F= -.48184326E+03 E0= -.48181193E+03  d E =-.223499E-02
 trial-energy change:   -0.002235  1 .order   -0.002265   -0.003709   -0.000822
 step:   3.6380(harm=  3.6380)  dis= 0.01519  next Energy=  -481.843407 (dE=-0.238E-02)
 bond charge predicted
       N       E                     dE             d eps       ncg     rms          rms(c)
DAV:   1    -0.481842882393E+03    0.36828E-03   -0.35536E-01  1408   0.118E+00    0.671E-02
DAV:   2    -0.481843372010E+03   -0.48962E-03   -0.53963E-03  2080   0.267E-01    0.493E-02
DAV:   3    -0.481843356133E+03    0.15877E-04   -0.21494E-04  1832   0.137E-01    0.324E-02
DAV:   4    -0.481843353609E+03    0.25239E-05   -0.41205E-05  1120   0.784E-02
  75 F= -.48184335E+03 E0= -.48181204E+03  d E =-.232887E-02
 curvature: -14.56 expect dE=-0.249E-01 dE for cont linesearch -0.223E-05
 trial: gam= 1.23253 g(F)=  0.168E-02 g(S)=  0.273E-04 ort = 0.400E-04 (trialstep = 0.177E+01)
 search vector abs. value=  0.177E-01
 bond charge predicted
       N       E                     dE             d eps       ncg     rms          rms(c)
DAV:   1    -0.481841792167E+03    0.15640E-02   -0.28741E+00  1408   0.337E+00    0.194E-01
DAV:   2    -0.481845600760E+03   -0.38086E-02   -0.42806E-02  2072   0.713E-01    0.140E-01
DAV:   3    -0.481845464751E+03    0.13601E-03   -0.15966E-03  2160   0.286E-01    0.905E-02
DAV:   4    -0.481845444076E+03    0.20675E-04   -0.44696E-04  2072   0.189E-01    0.622E-02
DAV:   5    -0.481845442947E+03    0.11288E-05   -0.16143E-04  1664   0.945E-02    0.182E-02
DAV:   6    -0.481845452600E+03   -0.96528E-05   -0.32098E-05  1136   0.226E-02
  76 F= -.48184545E+03 E0= -.48181417E+03  d E =-.209899E-02
 trial-energy change:   -0.002099  1 .order   -0.002138   -0.003110   -0.001166
 step:   2.8310(harm=  2.8310)  dis= 0.01521  next Energy=  -481.845841 (dE=-0.249E-02)
 bond charge predicted
       N       E                     dE             d eps       ncg     rms          rms(c)
DAV:   1    -0.481844404083E+03    0.10389E-02   -0.10343E+00  1408   0.202E+00    0.116E-01
DAV:   2    -0.481845858053E+03   -0.14540E-02   -0.16162E-02  2072   0.434E-01    0.836E-02
DAV:   3    -0.481845809660E+03    0.48393E-04   -0.58448E-04  2104   0.177E-01    0.539E-02
DAV:   4    -0.481845802663E+03    0.69964E-05   -0.14894E-04  1536   0.114E-01    0.370E-02
DAV:   5    -0.481845804423E+03   -0.17594E-05   -0.72567E-05  1424   0.673E-02
  77 F= -.48184580E+03 E0= -.48181453E+03  d E =-.245081E-02
 curvature: -14.28 expect dE=-0.159E-01 dE for cont linesearch -0.379E-05
 trial: gam= 0.62915 g(F)=  0.110E-02 g(S)=  0.153E-04 ort = 0.686E-04 (trialstep = 0.198E+01)
 search vector abs. value=  0.822E-02
 bond charge predicted
       N       E                     dE             d eps       ncg     rms          rms(c)
DAV:   1    -0.481844922850E+03    0.87981E-03   -0.16386E+00  1408   0.258E+00    0.161E-01
DAV:   2    -0.481847332150E+03   -0.24093E-02   -0.27291E-02  2040   0.543E-01    0.106E-01
DAV:   3    -0.481847254095E+03    0.78055E-04   -0.90221E-04  2112   0.224E-01    0.688E-02
DAV:   4    -0.481847246873E+03    0.72223E-05   -0.32034E-04  2024   0.186E-01    0.471E-02
DAV:   5    -0.481847238563E+03    0.83099E-05   -0.10341E-04  1360   0.113E-01    0.160E-02
DAV:   6    -0.481847246011E+03   -0.74483E-05   -0.42593E-05  1248   0.384E-02
  78 F= -.48184725E+03 E0= -.48181596E+03  d E =-.144159E-02
 trial-energy change:   -0.001442  1 .order   -0.001467   -0.002298   -0.000636
 step:   2.7400(harm=  2.7400)  dis= 0.01001  next Energy=  -481.847393 (dE=-0.159E-02)
 bond charge predicted
       N       E                     dE             d eps       ncg     rms          rms(c)
DAV:   1    -0.481847001065E+03    0.23750E-03   -0.23964E-01  1408   0.992E-01    0.637E-02
DAV:   2    -0.481847385247E+03   -0.38418E-03   -0.43003E-03  2056   0.217E-01    0.399E-02
DAV:   3    -0.481847375717E+03    0.95296E-05   -0.13944E-04  1720   0.979E-02    0.274E-02
DAV:   4    -0.481847374674E+03    0.10433E-05   -0.46809E-05  1152   0.798E-02
  79 F= -.48184737E+03 E0= -.48181607E+03  d E =-.157025E-02
 curvature:  -9.71 expect dE=-0.904E-02 dE for cont linesearch -0.499E-05
 trial: gam= 0.82989 g(F)=  0.923E-03 g(S)=  0.842E-05 ort = 0.650E-04 (trialstep = 0.213E+01)
 search vector abs. value=  0.670E-02
 bond charge predicted
       N       E                     dE             d eps       ncg     rms          rms(c)
DAV:   1    -0.481846568480E+03    0.80724E-03   -0.15225E+00  1408   0.252E+00    0.151E-01
DAV:   2    -0.481848647206E+03   -0.20787E-02   -0.23676E-02  2072   0.503E-01    0.980E-02
DAV:   3    -0.481848585904E+03    0.61302E-04   -0.66370E-04  2176   0.118E-01    0.624E-02
DAV:   4    -0.481848589752E+03   -0.38482E-05   -0.23221E-04  2016   0.115E-01    0.468E-02
DAV:   5    -0.481848581410E+03    0.83424E-05   -0.13197E-04  1368   0.955E-02    0.172E-02
DAV:   6    -0.481848585093E+03   -0.36835E-05   -0.24984E-05  1144   0.449E-02
  80 F= -.48184859E+03 E0= -.48181739E+03  d E =-.121042E-02
 trial-energy change:   -0.001210  1 .order   -0.001292   -0.002102   -0.000481
 step:   3.3243(harm=  2.7668)  dis= 0.01106  next Energy=  -481.848705 (dE=-0.133E-02)
 bond charge predicted
       N       E                     dE             d eps       ncg     rms          rms(c)
DAV:   1    -0.481847895025E+03    0.68638E-03   -0.47404E-01  1408   0.141E+00    0.841E-02
DAV:   2    -0.481848582910E+03   -0.68788E-03   -0.77243E-03  2080   0.302E-01    0.583E-02
DAV:   3    -0.481848560061E+03    0.22849E-04   -0.28985E-04  2072   0.123E-01    0.375E-02
DAV:   4    -0.481848556706E+03    0.33545E-05   -0.73971E-05  1280   0.848E-02
  81 F= -.48184856E+03 E0= -.48181743E+03  d E =-.118203E-02
 curvature:  -2.12 expect dE=-0.198E-02 dE for cont linesearch -0.859E-05
 ZBRENT: interpolating
 opt :   2.8216  next Energy=  -481.848598 (dE=-0.122E-02)
 bond charge predicted
       N       E                     dE             d eps       ncg     rms          rms(c)
DAV:   1    -0.481848490276E+03    0.69785E-04   -0.84945E-02  1408   0.604E-01    0.316E-02
DAV:   2    -0.481848640674E+03   -0.15040E-03   -0.15886E-03  2048   0.132E-01    0.222E-02
DAV:   3    -0.481848636298E+03    0.43762E-05   -0.35813E-05  1328   0.392E-02
  82 F= -.48184864E+03 E0= -.48181748E+03  d E =-.126162E-02
 curvature: -10.22 expect dE=-0.695E-02 dE for cont linesearch -0.627E-05
 trial: gam= 0.80649 g(F)=  0.667E-03 g(S)=  0.122E-04 ort =-0.641E-04 (trialstep = 0.227E+01)
 search vector abs. value=  0.493E-02
 bond charge predicted
       N       E                     dE             d eps       ncg     rms          rms(c)
DAV:   1    -0.481847846890E+03    0.79378E-03   -0.12835E+00  1424   0.230E+00    0.121E-01
DAV:   2    -0.481849585263E+03   -0.17384E-02   -0.18894E-02  2064   0.506E-01    0.898E-02
DAV:   3    -0.481849526372E+03    0.58891E-04   -0.73191E-04  2176   0.223E-01    0.588E-02
DAV:   4    -0.481849512407E+03    0.13965E-04   -0.14286E-04  1632   0.117E-01    0.381E-02
DAV:   5    -0.481849514430E+03   -0.20230E-05   -0.79221E-05  1496   0.691E-02
  83 F= -.48184951E+03 E0= -.48181843E+03  d E =-.878132E-03
 trial-energy change:   -0.000878  1 .order   -0.000877   -0.001426   -0.000329
 step:   2.9521(harm=  2.9521)  dis= 0.00878  next Energy=  -481.849563 (dE=-0.927E-03)
 bond charge predicted
       N       E                     dE             d eps       ncg     rms          rms(c)
DAV:   1    -0.481849401577E+03    0.11083E-03   -0.11504E-01  1424   0.691E-01    0.396E-02
DAV:   2    -0.481849563531E+03   -0.16195E-03   -0.17769E-03  2088   0.148E-01    0.267E-02
DAV:   3    -0.481849560754E+03    0.27770E-05   -0.62470E-05  1488   0.656E-02
  84 F= -.48184956E+03 E0= -.48181850E+03  d E =-.924455E-03
 curvature: -11.60 expect dE=-0.698E-02 dE for cont linesearch -0.483E-07
 trial: gam= 0.73070 g(F)=  0.601E-03 g(S)=  0.150E-06 ort = 0.453E-05 (trialstep = 0.241E+01)
 search vector abs. value=  0.324E-02
 bond charge predicted
       N       E                     dE             d eps       ncg     rms          rms(c)
DAV:   1    -0.481849164931E+03    0.39860E-03   -0.92609E-01  1408   0.201E+00    0.120E-01
DAV:   2    -0.481850456511E+03   -0.12916E-02   -0.14505E-02  2072   0.452E-01    0.900E-02
DAV:   3    -0.481850397197E+03    0.59314E-04   -0.65218E-04  2208   0.230E-01    0.588E-02
DAV:   4    -0.481850385368E+03    0.11828E-04   -0.14911E-04  1584   0.140E-01    0.391E-02
DAV:   5    -0.481850387004E+03   -0.16356E-05   -0.97582E-05  1688   0.797E-02
  85 F= -.48185039E+03 E0= -.48181928E+03  d E =-.826251E-03
 trial-energy change:   -0.000826  1 .order   -0.000834   -0.001455   -0.000212
 step:   2.8178(harm=  2.8178)  dis= 0.00683  next Energy=  -481.850412 (dE=-0.852E-03)
 bond charge predicted
       N       E                     dE             d eps       ncg     rms          rms(c)
DAV:   1    -0.481850364063E+03    0.21305E-04   -0.26825E-02  1424   0.344E-01    0.234E-02
DAV:   2    -0.481850409076E+03   -0.45013E-04   -0.48535E-04  2072   0.722E-02    0.139E-02
DAV:   3    -0.481850408457E+03    0.61911E-06   -0.11471E-05   976   0.221E-02
  86 F= -.48185041E+03 E0= -.48181929E+03  d E =-.847704E-03
 curvature:  -7.56 expect dE=-0.372E-02 dE for cont linesearch -0.642E-08
 trial: gam= 0.85110 g(F)=  0.492E-03 g(S)=  0.799E-06 ort =-0.166E-05 (trialstep = 0.249E+01)
 search vector abs. value=  0.284E-02
 bond charge predicted
       N       E                     dE             d eps       ncg     rms          rms(c)
DAV:   1    -0.481849991543E+03    0.41753E-03   -0.86225E-01  1408   0.196E+00    0.113E-01
DAV:   2    -0.481851140423E+03   -0.11489E-02   -0.13008E-02  2056   0.413E-01    0.804E-02
DAV:   3    -0.481851101245E+03    0.39178E-04   -0.55268E-04  2216   0.192E-01    0.548E-02
DAV:   4    -0.481851090828E+03    0.10417E-04   -0.15870E-04  1640   0.138E-01    0.372E-02
DAV:   5    -0.481851086617E+03    0.42107E-05   -0.64295E-05  1248   0.814E-02
  87 F= -.48185109E+03 E0= -.48181994E+03  d E =-.678160E-03
 trial-energy change:   -0.000678  1 .order   -0.000713   -0.001223   -0.000203
 step:   2.9858(harm=  2.9858)  dis= 0.00686  next Energy=  -481.851142 (dE=-0.733E-03)
 bond charge predicted
       N       E                     dE             d eps       ncg     rms          rms(c)
DAV:   1    -0.481851042972E+03    0.47856E-04   -0.33956E-02  1408   0.388E-01    0.249E-02
DAV:   2    -0.481851093186E+03   -0.50214E-04   -0.56167E-04  2104   0.103E-01    0.171E-02
DAV:   3    -0.481851091803E+03    0.13831E-05   -0.28602E-05  1072   0.538E-02
  88 F= -.48185109E+03 E0= -.48181993E+03  d E =-.683345E-03
 curvature:  -8.63 expect dE=-0.403E-02 dE for cont linesearch -0.778E-05
 trial: gam= 1.01464 g(F)=  0.463E-03 g(S)=  0.397E-05 ort =-0.506E-04 (trialstep = 0.224E+01)
 search vector abs. value=  0.329E-02
 bond charge predicted
       N       E                     dE             d eps       ncg     rms          rms(c)
DAV:   1    -0.481850665605E+03    0.42758E-03   -0.80418E-01  1408   0.189E+00    0.107E-01
DAV:   2    -0.481851739569E+03   -0.10740E-02   -0.12154E-02  2048   0.423E-01    0.809E-02
DAV:   3    -0.481851696328E+03    0.43241E-04   -0.57372E-04  2168   0.213E-01    0.535E-02
DAV:   4    -0.481851683386E+03    0.12941E-04   -0.12810E-04  1488   0.128E-01    0.329E-02
DAV:   5    -0.481851684578E+03   -0.11914E-05   -0.78476E-05  1488   0.766E-02
  89 F= -.48185168E+03 E0= -.48182056E+03  d E =-.592775E-03
 trial-energy change:   -0.000593  1 .order   -0.000602   -0.000930   -0.000275
 step:   3.1731(harm=  3.1731)  dis= 0.00816  next Energy=  -481.851752 (dE=-0.660E-03)
 reached required accuracy - stopping structural energy minimisation
