<?xml version="1.0" encoding="ISO-8859-1"?>
<modeling>
 <generator>
  <i name="program" type="string">vasp </i>
  <i name="version" type="string">6.3.2  </i>
  <i name="subversion" type="string">27Jun22 (build May 04 2024 18:40:40) complex                          parallel </i>
  <i name="platform" type="string">LinuxIFC </i>
  <i name="date" type="string">2024 09 03 </i>
  <i name="time" type="string">03:07:40 </i>
 </generator>
 <incar>
  <i type="string" name="SYSTEM">slab_Cel1-OPT</i>
  <i type="int" name="ISTART">     0</i>
  <i type="string" name="PREC">N</i>
  <i type="string" name="ALGO">N</i>
  <i type="int" name="ICHARG">     2</i>
  <i type="int" name="NELM">   200</i>
  <i type="int" name="IBRION">     2</i>
  <i name="EDIFF">      0.00001000</i>
  <i name="EDIFFG">     -0.05000000</i>
  <i type="int" name="NSW">  1000</i>
  <i type="int" name="ISIF">     3</i>
  <i name="ENCUT">    400.00000000</i>
  <i name="POTIM">      0.10000000</i>
  <i type="string" name="LREAL">AUTO</i>
  <i type="int" name="ISMEAR">     0</i>
  <i name="SIGMA">      0.10000000</i>
  <i type="logical" name="LWAVE"> F  </i>
  <i type="logical" name="LCHARG"> F  </i>
  <i type="logical" name="LELF"> F  </i>
  <i type="logical" name="LAECHG"> F  </i>
  <i type="logical" name="LDIPOL"> T  </i>
  <i type="int" name="IDIPOL">     3</i>
 </incar>
 <primitive_cell>
  <structure name="primitive_cell" >
   <crystal>
    <varray name="basis" >
     <v>      13.75970367       0.00000000       0.00000000 </v>
     <v>       0.00000000      11.28669971       0.00000000 </v>
     <v>       0.00000000       0.00000000      15.00000000 </v>
    </varray>
    <i name="volume">   2329.52465126 </i>
    <varray name="rec_basis" >
     <v>       0.07267598       0.00000000       0.00000000 </v>
     <v>       0.00000000       0.08859986       0.00000000 </v>
     <v>       0.00000000       0.00000000       0.06666667 </v>
    </varray>
   </crystal>
   <varray name="positions" >
    <v>       0.07054120       0.38816457       0.22227495 </v>
    <v>       0.98151180       0.21832942       0.16785344 </v>
    <v>       0.22877304       0.39667288       0.18904348 </v>
    <v>       0.82472337       0.57572318       0.18403191 </v>
    <v>       0.14970601       0.24663792       0.12277753 </v>
    <v>       0.90758628       0.38434512       0.21811946 </v>
    <v>       0.56886571       0.39316130       0.23173729 </v>
    <v>       0.47768100       0.22391730       0.18017943 </v>
    <v>       0.73035049       0.39802658       0.19909345 </v>
    <v>       0.31101118       0.58132963       0.17977696 </v>
    <v>       0.64681854       0.25040749       0.13377315 </v>
    <v>       0.40275100       0.39355427       0.22106508 </v>
    <v>       0.81808056       0.88988957       0.05647519 </v>
    <v>       0.73319531       0.72568325       0.12448457 </v>
    <v>       0.97932824       0.89597624       0.07999408 </v>
    <v>       0.06867909       0.07698375       0.09423854 </v>
    <v>       0.90528082       0.74258583       0.14719628 </v>
    <v>       0.65472406       0.89333727       0.07691603 </v>
    <v>       0.31825350       0.89473226       0.05377466 </v>
    <v>       0.22716619       0.72126926       0.10084126 </v>
    <v>       0.47498917       0.90396535       0.09489577 </v>
    <v>       0.56592959       0.08075138       0.11024766 </v>
    <v>       0.38612516       0.76037560       0.16363174 </v>
    <v>       0.15509033       0.88950396       0.05271529 </v>
    <v>       0.98784551       0.43883046       0.24713656 </v>
    <v>       0.89991795       0.26975381       0.19549767 </v>
    <v>       0.15759857       0.43325808       0.24240148 </v>
    <v>       0.14788829       0.14353661       0.08017307 </v>
    <v>       0.98633649       0.10796021       0.13653167 </v>
    <v>       0.22915942       0.31533454       0.12527490 </v>
    <v>       0.06735802       0.28598388       0.16888911 </v>
    <v>       0.82274912       0.45552252       0.21014877 </v>
    <v>       0.48493735       0.44793349       0.25146232 </v>
    <v>       0.39648714       0.27665554       0.20625030 </v>
    <v>       0.65756919       0.43524210       0.25419888 </v>
    <v>       0.64488604       0.14640144       0.09374788 </v>
    <v>       0.48286722       0.11321356       0.15081376 </v>
    <v>       0.72606390       0.31870920       0.13454719 </v>
    <v>       0.56470606       0.29135323       0.18008364 </v>
    <v>       0.31888640       0.46086995       0.20329135 </v>
    <v>       0.73287748       0.94248397       0.03965616 </v>
    <v>       0.64891188       0.78317499       0.11254597 </v>
    <v>       0.90382696       0.93469024       0.03189926 </v>
    <v>       0.90701680       0.63807548       0.18754912 </v>
    <v>       0.73647441       0.61699787       0.15934394 </v>
    <v>       0.98321706       0.81212363       0.14197152 </v>
    <v>       0.81925020       0.78400528       0.10639513 </v>
    <v>       0.56804185       0.96074410       0.08520074 </v>
    <v>       0.23699719       0.94478449       0.02657725 </v>
    <v>       0.14820250       0.77173059       0.06843984 </v>
    <v>       0.40793432       0.93556381       0.03646331 </v>
    <v>       0.38047481       0.65838217       0.20939239 </v>
    <v>       0.23501053       0.60894863       0.12850628 </v>
    <v>       0.46527775       0.83024755       0.16578047 </v>
    <v>       0.31113112       0.79334051       0.10891910 </v>
    <v>       0.06990262       0.95754122       0.06514651 </v>
    <v>       0.57736557       0.77647674       0.24193941 </v>
    <v>       0.65582252       0.60772566       0.29790490 </v>
    <v>       0.48700699       0.61617049       0.29396059 </v>
   </varray>
  </structure>
  <varray name="primitive_index" >
   <v type="int" >        1 </v>
   <v type="int" >        2 </v>
   <v type="int" >        3 </v>
   <v type="int" >        4 </v>
   <v type="int" >        5 </v>
   <v type="int" >        6 </v>
   <v type="int" >        7 </v>
   <v type="int" >        8 </v>
   <v type="int" >        9 </v>
   <v type="int" >       10 </v>
   <v type="int" >       11 </v>
   <v type="int" >       12 </v>
   <v type="int" >       13 </v>
   <v type="int" >       14 </v>
   <v type="int" >       15 </v>
   <v type="int" >       16 </v>
   <v type="int" >       17 </v>
   <v type="int" >       18 </v>
   <v type="int" >       19 </v>
   <v type="int" >       20 </v>
   <v type="int" >       21 </v>
   <v type="int" >       22 </v>
   <v type="int" >       23 </v>
   <v type="int" >       24 </v>
   <v type="int" >       25 </v>
   <v type="int" >       26 </v>
   <v type="int" >       27 </v>
   <v type="int" >       28 </v>
   <v type="int" >       29 </v>
   <v type="int" >       30 </v>
   <v type="int" >       31 </v>
   <v type="int" >       32 </v>
   <v type="int" >       33 </v>
   <v type="int" >       34 </v>
   <v type="int" >       35 </v>
   <v type="int" >       36 </v>
   <v type="int" >       37 </v>
   <v type="int" >       38 </v>
   <v type="int" >       39 </v>
   <v type="int" >       40 </v>
   <v type="int" >       41 </v>
   <v type="int" >       42 </v>
   <v type="int" >       43 </v>
   <v type="int" >       44 </v>
   <v type="int" >       45 </v>
   <v type="int" >       46 </v>
   <v type="int" >       47 </v>
   <v type="int" >       48 </v>
   <v type="int" >       49 </v>
   <v type="int" >       50 </v>
   <v type="int" >       51 </v>
   <v type="int" >       52 </v>
   <v type="int" >       53 </v>
   <v type="int" >       54 </v>
   <v type="int" >       55 </v>
   <v type="int" >       56 </v>
   <v type="int" >       57 </v>
   <v type="int" >       58 </v>
   <v type="int" >       59 </v>
  </varray>
 </primitive_cell>
 <kpoints>
  <generation param="Gamma">
   <v type="int" name="divisions">       2        2        1 </v>
   <v name="usershift">      0.00000000       0.00000000       0.00000000 </v>
   <v name="genvec1">      0.50000000       0.00000000       0.00000000 </v>
   <v name="genvec2">      0.00000000       0.50000000       0.00000000 </v>
   <v name="genvec3">      0.00000000       0.00000000       1.00000000 </v>
   <v name="shift">      0.00000000       0.00000000       0.00000000 </v>
  </generation>
  <varray name="kpointlist" >
   <v>       0.00000000       0.00000000       0.00000000 </v>
   <v>       0.50000000       0.00000000       0.00000000 </v>
   <v>       0.00000000       0.50000000       0.00000000 </v>
   <v>       0.50000000       0.50000000       0.00000000 </v>
  </varray>
  <varray name="weights" >
   <v>       0.25000000 </v>
   <v>       0.25000000 </v>
   <v>       0.25000000 </v>
   <v>       0.25000000 </v>
  </varray>
 </kpoints>
 <parameters>
  <separator name="general" >
   <i type="string" name="SYSTEM">slab_Cel1-OPT</i>
   <i type="logical" name="LCOMPAT"> F  </i>
  </separator>
  <separator name="electronic" >
   <i type="string" name="PREC">n</i>
   <i name="ENMAX">    400.00000000</i>
   <i name="ENAUG">    644.87300000</i>
   <i name="EDIFF">      0.00001000</i>
   <i type="int" name="IALGO">    38</i>
   <i type="int" name="IWAVPR">    11</i>
   <i type="int" name="NBANDS">   176</i>
   <i type="int" name="NBANDSLOW">    -1</i>
   <i type="int" name="NBANDSHIGH">    -1</i>
   <i name="NELECT">    289.00000000</i>
   <i type="int" name="TURBO">     0</i>
   <i type="int" name="IRESTART">     0</i>
   <i type="int" name="NREBOOT">     0</i>
   <i type="int" name="NMIN">     0</i>
   <i name="EREF">      0.00000000</i>
   <separator name="electronic smearing" >
    <i type="int" name="ISMEAR">     0</i>
    <i name="SIGMA">      0.10000000</i>
    <i name="KSPACING">      0.50000000</i>
    <i type="logical" name="KGAMMA"> T  </i>
    <i type="logical" name="KBLOWUP"> T  </i>
   </separator>
   <separator name="electronic projectors" >
    <i type="logical" name="LREAL"> T  </i>
    <v name="ROPT">     -0.00050000     -0.00050000     -0.00050000     -0.00050000</v>
    <i type="int" name="LMAXPAW">  -100</i>
    <i type="int" name="LMAXMIX">     2</i>
    <i type="logical" name="NLSPLINE"> F  </i>
   </separator>
   <separator name="electronic startup" >
    <i type="int" name="ISTART">     0</i>
    <i type="int" name="ICHARG">     2</i>
    <i type="int" name="INIWAV">     1</i>
   </separator>
   <separator name="electronic spin" >
    <i type="int" name="ISPIN">     1</i>
    <i type="logical" name="LNONCOLLINEAR"> F  </i>
    <v name="MAGMOM">      1.00000000      1.00000000      1.00000000      1.00000000      1.00000000      1.00000000      1.00000000      1.00000000      1.00000000      1.00000000      1.00000000      1.00000000      1.00000000      1.00000000      1.00000000      1.00000000      1.00000000      1.00000000      1.00000000      1.00000000
      1.00000000      1.00000000      1.00000000      1.00000000      1.00000000      1.00000000      1.00000000      1.00000000      1.00000000      1.00000000      1.00000000      1.00000000      1.00000000      1.00000000      1.00000000      1.00000000      1.00000000      1.00000000      1.00000000      1.00000000
      1.00000000      1.00000000      1.00000000      1.00000000      1.00000000      1.00000000      1.00000000      1.00000000      1.00000000      1.00000000      1.00000000      1.00000000      1.00000000      1.00000000      1.00000000      1.00000000      1.00000000      1.00000000      1.00000000</v>
    <i name="NUPDOWN">     -1.00000000</i>
    <i type="logical" name="LSORBIT"> F  </i>
    <v name="SAXIS">      0.00000000      0.00000000      1.00000000</v>
    <i type="logical" name="LSPIRAL"> F  </i>
    <v name="QSPIRAL">      0.00000000      0.00000000      0.00000000</v>
    <i type="logical" name="LZEROZ"> F  </i>
   </separator>
   <separator name="electronic exchange-correlation" >
    <i type="logical" name="LASPH"> F  </i>
    <i type="logical" name="LMETAGGA"> F  </i>
   </separator>
   <separator name="electronic convergence" >
    <i type="int" name="NELM">   200</i>
    <i type="int" name="NELMDL">    -5</i>
    <i type="int" name="NELMIN">     2</i>
    <i name="ENINI">    400.00000000</i>
    <separator name="electronic convergence detail" >
     <i type="logical" name="LDIAG"> T  </i>
     <i type="logical" name="LSUBROT"> F  </i>
     <i name="WEIMIN">      0.00100000</i>
     <i name="EBREAK">      0.00000001</i>
     <i name="DEPER">      0.30000000</i>
     <i type="int" name="NRMM">     4</i>
     <i name="TIME">      0.40000000</i>
    </separator>
   </separator>
   <separator name="electronic mixer" >
    <i name="AMIX">      0.40000000</i>
    <i name="BMIX">      1.00000000</i>
    <i name="AMIN">      0.10000000</i>
    <i name="AMIX_MAG">      1.60000000</i>
    <i name="BMIX_MAG">      1.00000000</i>
    <separator name="electronic mixer details" >
     <i type="int" name="IMIX">     4</i>
     <i type="logical" name="MIXFIRST"> F  </i>
     <i type="int" name="MAXMIX">   -45</i>
     <i name="WC">    100.00000000</i>
     <i type="int" name="INIMIX">     1</i>
     <i type="int" name="MIXPRE">     1</i>
     <i type="int" name="MREMOVE">     5</i>
    </separator>
   </separator>
   <separator name="electronic dipolcorrection" >
    <i type="logical" name="LDIPOL"> T  </i>
    <i type="logical" name="LMONO"> F  </i>
    <i type="int" name="IDIPOL">     3</i>
    <i name="EPSILON">      1.00000000</i>
    <v name="DIPOL">   -100.00000000   -100.00000000   -100.00000000</v>
    <i name="EFIELD">      0.00000000</i>
   </separator>
  </separator>
  <separator name="grids" >
   <i type="int" name="NGX">    70</i>
   <i type="int" name="NGY">    56</i>
   <i type="int" name="NGZ">    80</i>
   <i type="int" name="NGXF">   140</i>
   <i type="int" name="NGYF">   112</i>
   <i type="int" name="NGZF">   160</i>
   <i type="logical" name="ADDGRID"> F  </i>
  </separator>
  <separator name="ionic" >
   <i type="int" name="NSW">  1000</i>
   <i type="int" name="IBRION">     2</i>
   <i type="int" name="MDALGO">     0</i>
   <i type="int" name="ISIF">     3</i>
   <i name="PSTRESS">      0.00000000</i>
   <i name="EDIFFG">     -0.05000000</i>
   <i type="int" name="NFREE">     1</i>
   <i name="POTIM">      0.10000000</i>
   <i name="SMASS">     -3.00000000</i>
   <i name="SCALEE">      1.00000000</i>
  </separator>
  <separator name="ionic md" >
   <i name="TEBEG">      0.00010000</i>
   <i name="TEEND">      0.00010000</i>
   <i type="int" name="NBLOCK">     1</i>
   <i type="int" name="KBLOCK">  1000</i>
   <i type="int" name="NPACO">   256</i>
   <i name="APACO">     10.00000000</i>
  </separator>
  <separator name="symmetry" >
   <i type="int" name="ISYM">     2</i>
   <i name="SYMPREC">      0.00001000</i>
  </separator>
  <separator name="dos" >
   <i type="int" name="LORBIT">     0</i>
   <v name="RWIGS">     -1.00000000     -1.00000000     -1.00000000     -1.00000000</v>
   <i type="int" name="NEDOS">   301</i>
   <i name="EMIN">     10.00000000</i>
   <i name="EMAX">    -10.00000000</i>
   <i name="EFERMI">      0.00000000</i>
  </separator>
  <separator name="writing" >
   <i type="int" name="NWRITE">     2</i>
   <i type="logical" name="LWAVE"> F  </i>
   <i type="logical" name="LDOWNSAMPLE"> F  </i>
   <i type="logical" name="LCHARG"> F  </i>
   <i type="logical" name="LPARD"> F  </i>
   <i type="logical" name="LVTOT"> F  </i>
   <i type="logical" name="LVHAR"> F  </i>
   <i type="logical" name="LELF"> F  </i>
   <i type="logical" name="LOPTICS"> F  </i>
   <v name="STM">      0.00000000      0.00000000      0.00000000      0.00000000      0.00000000      0.00000000      0.00000000</v>
  </separator>
  <separator name="performance" >
   <i type="int" name="NPAR">     4</i>
   <i type="int" name="NSIM">     4</i>
   <i type="int" name="NBLK">    -1</i>
   <i type="logical" name="LPLANE"> T  </i>
   <i type="logical" name="LSCALAPACK"> T  </i>
   <i type="logical" name="LSCAAWARE"> F  </i>
   <i type="logical" name="LSCALU"> F  </i>
   <i type="logical" name="LASYNC"> F  </i>
   <i type="logical" name="LORBITALREAL"> F  </i>
  </separator>
  <separator name="miscellaneous" >
   <i type="int" name="IDIOT">     3</i>
   <i type="int" name="PHON_NSTRUCT">    -1</i>
   <i type="logical" name="LMUSIC"> F  </i>
   <v name="POMASS">     12.01100000     14.00100000    107.86800000     63.54600000</v>
   <v name="DARWINR">      0.00000000      0.00000000      0.00000000      0.00000000</v>
   <v name="DARWINV">      1.00000000      1.00000000      1.00000000      1.00000000</v>
   <i type="logical" name="LCORR"> T  </i>
  </separator>
  <i type="logical" name="GGA_COMPAT"> T  </i>
  <i type="logical" name="LBERRY"> F  </i>
  <i type="int" name="ICORELEVEL">     0</i>
  <i type="logical" name="LDAU"> F  </i>
  <i type="int" name="I_CONSTRAINED_M">     0</i>
  <separator name="electronic exchange-correlation" >
   <i type="string" name="GGA">--</i>
   <i type="int" name="VOSKOWN">     0</i>
   <i type="logical" name="LHFCALC"> F  </i>
   <i type="string" name="PRECFOCK"></i>
   <i type="logical" name="LSYMGRAD"> F  </i>
   <i type="logical" name="LHFONE"> F  </i>
   <i type="logical" name="LRHFCALC"> F  </i>
   <i type="logical" name="LTHOMAS"> F  </i>
   <i type="logical" name="LMODELHF"> F  </i>
   <i type="logical" name="LFOCKACE"> F  </i>
   <i name="ENCUT4O">     -1.00000000</i>
   <i type="int" name="EXXOEP">     0</i>
   <i type="int" name="FOURORBIT">     0</i>
   <i name="AEXX">      0.00000000</i>
   <i name="HFALPHA">      0.00000000</i>
   <i name="MCALPHA">      0.00000000</i>
   <i name="ALDAX">      1.00000000</i>
   <i name="AGGAX">      1.00000000</i>
   <i name="ALDAC">      1.00000000</i>
   <i name="AGGAC">      1.00000000</i>
   <i type="int" name="NKREDX">     1</i>
   <i type="int" name="NKREDY">     1</i>
   <i type="int" name="NKREDZ">     1</i>
   <i type="logical" name="SHIFTRED"> F  </i>
   <i type="logical" name="ODDONLY"> F  </i>
   <i type="logical" name="EVENONLY"> F  </i>
   <i type="int" name="LMAXFOCK">     0</i>
   <i type="int" name="NMAXFOCKAE">     0</i>
   <i type="logical" name="LFOCKAEDFT"> F  </i>
   <i name="HFSCREEN">      0.00000000</i>
   <i name="HFSCREENC">      0.00000000</i>
   <i type="int" name="NBANDSGWLOW">     0</i>
  </separator>
  <separator name="vdW DFT" >
   <i type="logical" name="LUSE_VDW"> F  </i>
   <i name="Zab_VDW">     -0.84910000</i>
   <i name="PARAM1">      0.12340000</i>
   <i name="PARAM2">      1.00000000</i>
   <i name="PARAM3">      0.00000000</i>
  </separator>
  <separator name="model GW" >
   <i type="int" name="MODEL_GW">     0</i>
   <i name="MODEL_EPS0">     23.69008120</i>
   <i name="MODEL_ALPHA">      1.00000000</i>
  </separator>
  <separator name="linear response parameters" >
   <i type="logical" name="LEPSILON"> F  </i>
   <i type="logical" name="LRPA"> F  </i>
   <i type="logical" name="LNABLA"> F  </i>
   <i type="logical" name="LVEL"> F  </i>
   <i name="CSHIFT">      0.10000000</i>
   <i name="OMEGAMAX">     -1.00000000</i>
   <i name="DEG_THRESHOLD">      0.00200000</i>
   <i name="RTIME">     -0.10000000</i>
   <i name="WPLASMAI">      0.00000000</i>
   <v name="DFIELD">      0.00000000      0.00000000      0.00000000</v>
   <v name="WPLASMA">      0.00000000      0.00000000      0.00000000      0.00000000      0.00000000      0.00000000      0.00000000      0.00000000      0.00000000</v>
  </separator>
  <separator name="orbital magnetization" >
   <i type="logical" name="NUCIND"> F  </i>
   <v name="MAGPOS">      0.00000000      0.00000000      0.00000000</v>
   <i type="logical" name="LNICSALL"> T  </i>
   <i type="logical" name="ORBITALMAG"> F  </i>
   <i type="logical" name="LMAGBLOCH"> F  </i>
   <i type="logical" name="LCHIMAG"> F  </i>
   <i type="logical" name="LGAUGE"> T  </i>
   <i type="int" name="MAGATOM">     0</i>
   <v name="MAGDIPOL">      0.00000000      0.00000000      0.00000000</v>
   <v name="AVECCONST">      0.00000000      0.00000000      0.00000000</v>
  </separator>
  <separator name="response functions" >
   <i type="logical" name="LFINITE_TEMPERATURE"> F  </i>
   <i type="logical" name="LADDER"> F  </i>
   <i type="logical" name="LRPAFORCE"> F  </i>
   <i type="logical" name="LFXC"> F  </i>
   <i type="logical" name="LHARTREE"> T  </i>
   <i type="int" name="IBSE">     0</i>
   <v type="int" name="KPOINT">    -1     0     0     0</v>
   <i type="logical" name="LTCTC"> F  </i>
   <i type="logical" name="LTCTE"> F  </i>
   <i type="logical" name="LTETE"> F  </i>
   <i type="logical" name="LTRIPLET"> F  </i>
   <i type="logical" name="LFXCEPS"> F  </i>
   <i type="logical" name="LFXHEG"> F  </i>
   <i type="int" name="NATURALO">     2</i>
   <i type="logical" name="LHOLEGF"> F  </i>
   <i type="logical" name="L2ORDER"> F  </i>
   <i type="logical" name="LDMP1"> F  </i>
   <i type="logical" name="LMP2LT"> F  </i>
   <i type="logical" name="LSMP2LT"> F  </i>
   <i type="logical" name="LGWLF"> F  </i>
   <i name="ENCUTGW">     -2.00000000</i>
   <i name="ENCUTGWSOFT">     -2.00000000</i>
   <i name="ENCUTLF">     -1.00000000</i>
   <i type="logical" name="LESF_SPLINES"> F  </i>
   <i type="int" name="LMAXMP2">    -1</i>
   <i name="SCISSOR">      0.00000000</i>
   <i type="int" name="NOMEGA">     0</i>
   <i type="int" name="NOMEGAR">     0</i>
   <i type="int" name="NBANDSGW">    -1</i>
   <i type="int" name="NBANDSO">    -1</i>
   <i type="int" name="NBANDSV">    -1</i>
   <i type="int" name="NELMGW">     1</i>
   <i type="int" name="NELMHF">     1</i>
   <i type="int" name="DIM">     3</i>
   <i type="int" name="IESPILON">     4</i>
   <i type="int" name="ANTIRES">     0</i>
   <i name="OMEGAMAX">    -30.00000000</i>
   <i name="OMEGAMIN">    -30.00000000</i>
   <i name="OMEGATL">   -200.00000000</i>
   <i type="int" name="OMEGAGRID">     0</i>
   <i name="CSHIFT">     -0.10000000</i>
   <i type="logical" name="LSELFENERGY"> F  </i>
   <i type="logical" name="LSPECTRAL"> F  </i>
   <i type="logical" name="LSPECTRALGW"> F  </i>
   <i type="logical" name="LSINGLES"> F  </i>
   <i type="logical" name="LFERMIGW"> F  </i>
   <i type="logical" name="ODDONLYGW"> F  </i>
   <i type="logical" name="EVENONLYGW"> F  </i>
   <i type="int" name="NKREDLFX">     1</i>
   <i type="int" name="NKREDLFY">     1</i>
   <i type="int" name="NKREDLFZ">     1</i>
   <i type="int" name="MAXMEM">  2800</i>
   <i type="int" name="TELESCOPE">     0</i>
   <i type="int" name="NTAUPAR">    -1</i>
   <i type="int" name="NOMEGAPAR">    -1</i>
   <i name="DAMP_NEWTON">      0.80000001</i>
   <i name="LAMBDA">      1.00000000</i>
  </separator>
  <separator name="External order field" >
   <i name="OFIELD_KAPPA">      0.00000000</i>
   <v name="OFIELD_K">      0.00000000      0.00000000      0.00000000</v>
   <i name="OFIELD_Q6_NEAR">      0.00000000</i>
   <i name="OFIELD_Q6_FAR">      0.00000000</i>
   <i name="OFIELD_A">      0.00000000</i>
  </separator>
  <separator name="optional k-points parameters" >
   <i type="int" name="KPOINTS_OPT_MODE">     1</i>
   <i type="logical" name="LKPOINTS_OPT"> F  </i>
  </separator>
  <separator name="solvation model" >
   <i type="logical" name="LSOL"> F  </i>
  </separator>
 </parameters>
 <atominfo>
  <atoms>      59 </atoms>
  <types>       4 </types>
  <array name="atoms" >
   <dimension dim="1">ion</dimension>
   <field type="string">element</field>
   <field type="int">atomtype</field>
   <set>
    <rc><c>C </c><c>   1</c></rc>
    <rc><c>C </c><c>   1</c></rc>
    <rc><c>C </c><c>   1</c></rc>
    <rc><c>C </c><c>   1</c></rc>
    <rc><c>C </c><c>   1</c></rc>
    <rc><c>C </c><c>   1</c></rc>
    <rc><c>C </c><c>   1</c></rc>
    <rc><c>C </c><c>   1</c></rc>
    <rc><c>C </c><c>   1</c></rc>
    <rc><c>C </c><c>   1</c></rc>
    <rc><c>C </c><c>   1</c></rc>
    <rc><c>C </c><c>   1</c></rc>
    <rc><c>C </c><c>   1</c></rc>
    <rc><c>C </c><c>   1</c></rc>
    <rc><c>C </c><c>   1</c></rc>
    <rc><c>C </c><c>   1</c></rc>
    <rc><c>C </c><c>   1</c></rc>
    <rc><c>C </c><c>   1</c></rc>
    <rc><c>C </c><c>   1</c></rc>
    <rc><c>C </c><c>   1</c></rc>
    <rc><c>C </c><c>   1</c></rc>
    <rc><c>C </c><c>   1</c></rc>
    <rc><c>C </c><c>   1</c></rc>
    <rc><c>C </c><c>   1</c></rc>
    <rc><c>N </c><c>   2</c></rc>
    <rc><c>N </c><c>   2</c></rc>
    <rc><c>N </c><c>   2</c></rc>
    <rc><c>N </c><c>   2</c></rc>
    <rc><c>N </c><c>   2</c></rc>
    <rc><c>N </c><c>   2</c></rc>
    <rc><c>N </c><c>   2</c></rc>
    <rc><c>N </c><c>   2</c></rc>
    <rc><c>N </c><c>   2</c></rc>
    <rc><c>N </c><c>   2</c></rc>
    <rc><c>N </c><c>   2</c></rc>
    <rc><c>N </c><c>   2</c></rc>
    <rc><c>N </c><c>   2</c></rc>
    <rc><c>N </c><c>   2</c></rc>
    <rc><c>N </c><c>   2</c></rc>
    <rc><c>N </c><c>   2</c></rc>
    <rc><c>N </c><c>   2</c></rc>
    <rc><c>N </c><c>   2</c></rc>
    <rc><c>N </c><c>   2</c></rc>
    <rc><c>N </c><c>   2</c></rc>
    <rc><c>N </c><c>   2</c></rc>
    <rc><c>N </c><c>   2</c></rc>
    <rc><c>N </c><c>   2</c></rc>
    <rc><c>N </c><c>   2</c></rc>
    <rc><c>N </c><c>   2</c></rc>
    <rc><c>N </c><c>   2</c></rc>
    <rc><c>N </c><c>   2</c></rc>
    <rc><c>N </c><c>   2</c></rc>
    <rc><c>N </c><c>   2</c></rc>
    <rc><c>N </c><c>   2</c></rc>
    <rc><c>N </c><c>   2</c></rc>
    <rc><c>N </c><c>   2</c></rc>
    <rc><c>Ag</c><c>   3</c></rc>
    <rc><c>Cu</c><c>   4</c></rc>
    <rc><c>Cu</c><c>   4</c></rc>
   </set>
  </array>
  <array name="atomtypes" >
   <dimension dim="1">type</dimension>
   <field type="int">atomspertype</field>
   <field type="string">element</field>
   <field>mass</field>
   <field>valence</field>
   <field type="string">pseudopotential</field>
   <set>
    <rc><c>  24</c><c>C </c><c>     12.01100000</c><c>      4.00000000</c><c>  PAW_PBE C 08Apr2002                   </c></rc>
    <rc><c>  32</c><c>N </c><c>     14.00100000</c><c>      5.00000000</c><c>  PAW_PBE N 08Apr2002                   </c></rc>
    <rc><c>   1</c><c>Ag</c><c>    107.86800000</c><c>     11.00000000</c><c>  PAW_PBE Ag 02Apr2005                  </c></rc>
    <rc><c>   2</c><c>Cu</c><c>     63.54600000</c><c>     11.00000000</c><c>  PAW_PBE Cu 22Jun2005                  </c></rc>
   </set>
  </array>
 </atominfo>
 <structure name="initialpos" >
  <crystal>
   <varray name="basis" >
    <v>      13.75970367       0.00000000       0.00000000 </v>
    <v>       0.00000000      11.28669971       0.00000000 </v>
    <v>       0.00000000       0.00000000      15.00000000 </v>
   </varray>
   <i name="volume">   2329.52465126 </i>
   <varray name="rec_basis" >
    <v>       0.07267598       0.00000000       0.00000000 </v>
    <v>       0.00000000       0.08859986       0.00000000 </v>
    <v>       0.00000000       0.00000000       0.06666667 </v>
   </varray>
  </crystal>
  <varray name="positions" >
   <v>       0.07054120       0.38816457       0.22227495 </v>
   <v>       0.98151180       0.21832942       0.16785344 </v>
   <v>       0.22877304       0.39667288       0.18904348 </v>
   <v>       0.82472337       0.57572318       0.18403191 </v>
   <v>       0.14970601       0.24663792       0.12277753 </v>
   <v>       0.90758628       0.38434512       0.21811946 </v>
   <v>       0.56886571       0.39316130       0.23173729 </v>
   <v>       0.47768100       0.22391730       0.18017943 </v>
   <v>       0.73035049       0.39802658       0.19909345 </v>
   <v>       0.31101118       0.58132963       0.17977696 </v>
   <v>       0.64681854       0.25040749       0.13377315 </v>
   <v>       0.40275100       0.39355427       0.22106508 </v>
   <v>       0.81808056       0.88988957       0.05647519 </v>
   <v>       0.73319531       0.72568325       0.12448457 </v>
   <v>       0.97932824       0.89597624       0.07999408 </v>
   <v>       0.06867909       0.07698375       0.09423854 </v>
   <v>       0.90528082       0.74258583       0.14719628 </v>
   <v>       0.65472406       0.89333727       0.07691603 </v>
   <v>       0.31825350       0.89473226       0.05377466 </v>
   <v>       0.22716619       0.72126926       0.10084126 </v>
   <v>       0.47498917       0.90396535       0.09489577 </v>
   <v>       0.56592959       0.08075138       0.11024766 </v>
   <v>       0.38612516       0.76037560       0.16363174 </v>
   <v>       0.15509033       0.88950396       0.05271529 </v>
   <v>       0.98784551       0.43883046       0.24713656 </v>
   <v>       0.89991795       0.26975381       0.19549767 </v>
   <v>       0.15759857       0.43325808       0.24240148 </v>
   <v>       0.14788829       0.14353661       0.08017307 </v>
   <v>       0.98633649       0.10796021       0.13653167 </v>
   <v>       0.22915942       0.31533454       0.12527490 </v>
   <v>       0.06735802       0.28598388       0.16888911 </v>
   <v>       0.82274912       0.45552252       0.21014877 </v>
   <v>       0.48493735       0.44793349       0.25146232 </v>
   <v>       0.39648714       0.27665554       0.20625030 </v>
   <v>       0.65756919       0.43524210       0.25419888 </v>
   <v>       0.64488604       0.14640144       0.09374788 </v>
   <v>       0.48286722       0.11321356       0.15081376 </v>
   <v>       0.72606390       0.31870920       0.13454719 </v>
   <v>       0.56470606       0.29135323       0.18008364 </v>
   <v>       0.31888640       0.46086995       0.20329135 </v>
   <v>       0.73287748       0.94248397       0.03965616 </v>
   <v>       0.64891188       0.78317499       0.11254597 </v>
   <v>       0.90382696       0.93469024       0.03189926 </v>
   <v>       0.90701680       0.63807548       0.18754912 </v>
   <v>       0.73647441       0.61699787       0.15934394 </v>
   <v>       0.98321706       0.81212363       0.14197152 </v>
   <v>       0.81925020       0.78400528       0.10639513 </v>
   <v>       0.56804185       0.96074410       0.08520074 </v>
   <v>       0.23699719       0.94478449       0.02657725 </v>
   <v>       0.14820250       0.77173059       0.06843984 </v>
   <v>       0.40793432       0.93556381       0.03646331 </v>
   <v>       0.38047481       0.65838217       0.20939239 </v>
   <v>       0.23501053       0.60894863       0.12850628 </v>
   <v>       0.46527775       0.83024755       0.16578047 </v>
   <v>       0.31113112       0.79334051       0.10891910 </v>
   <v>       0.06990262       0.95754122       0.06514651 </v>
   <v>       0.57736557       0.77647674       0.24193941 </v>
   <v>       0.65582252       0.60772566       0.29790490 </v>
   <v>       0.48700699       0.61617049       0.29396059 </v>
  </varray>
 </structure>
 <calculation>
  <scstep>
   <time name="dav">    1.60    1.61</time>
   <time name="total">    1.64    1.65</time>
   <dipole>
    <v name="dipole">      0.00000000       0.00000000       0.00013468 </v>
    <i name="Tr[quadrupol]">  -8161.59444722 </i>
    <i name="Echarged">      0.00000000 </i>
    <i name="Edipol_quadrupol">      0.00000000 </i>
    <i name="Eion">      0.00000000 </i>
   </dipole>
   <energy>
    <i name="alphaZ">    172.78471072 </i>
    <i name="ewald">  28919.63643680 </i>
    <i name="hartreedc"> -42062.19253326 </i>
    <i name="XCdc">   1036.18755588 </i>
    <i name="pawpsdc">  12622.25199378 </i>
    <i name="pawaedc"> -12839.59996353 </i>
    <i name="eentropy">     -0.09892825 </i>
    <i name="bandstr">   -870.20852308 </i>
    <i name="atom">  15813.42715894 </i>
    <i name="e_fr_energy">   2792.18790799 </i>
    <i name="e_wo_entrp">   2792.28683624 </i>
    <i name="e_0_energy">   2792.23737212 </i>
   </energy>
  </scstep>
  <scstep>
   <time name="dav">    1.84    1.84</time>
   <time name="total">    1.84    1.84</time>
   <dipole>
    <v name="dipole">      0.00000000       0.00000000       0.00013468 </v>
    <i name="Tr[quadrupol]">  -8161.59444722 </i>
    <i name="Echarged">      0.00000000 </i>
    <i name="Edipol_quadrupol">      0.00000000 </i>
    <i name="Eion">      0.00000000 </i>
   </dipole>
   <energy>
    <i name="e_fr_energy">     88.11863940 </i>
    <i name="e_wo_entrp">     88.16412755 </i>
    <i name="e_0_energy">     88.14138347 </i>
   </energy>
  </scstep>
  <scstep>
   <time name="dav">    1.74    1.75</time>
   <time name="total">    1.74    1.75</time>
   <dipole>
    <v name="dipole">      0.00000000       0.00000000       0.00013468 </v>
    <i name="Tr[quadrupol]">  -8161.59444722 </i>
    <i name="Echarged">      0.00000000 </i>
    <i name="Edipol_quadrupol">      0.00000000 </i>
    <i name="Eion">      0.00000000 </i>
   </dipole>
   <energy>
    <i name="e_fr_energy">   -479.04561427 </i>
    <i name="e_wo_entrp">   -478.91961893 </i>
    <i name="e_0_energy">   -478.98261660 </i>
   </energy>
  </scstep>
  <scstep>
   <time name="dav">    2.05    2.05</time>
   <time name="total">    2.05    2.05</time>
   <dipole>
    <v name="dipole">      0.00000000       0.00000000       0.00013468 </v>
    <i name="Tr[quadrupol]">  -8161.59444722 </i>
    <i name="Echarged">      0.00000000 </i>
    <i name="Edipol_quadrupol">      0.00000000 </i>
    <i name="Eion">      0.00000000 </i>
   </dipole>
   <energy>
    <i name="e_fr_energy">   -518.58725239 </i>
    <i name="e_wo_entrp">   -518.41209713 </i>
    <i name="e_0_energy">   -518.49967476 </i>
   </energy>
  </scstep>
  <scstep>
   <time name="dav">    2.05    2.05</time>
   <time name="total">    2.10    2.10</time>
   <dipole>
    <v name="dipole">      0.00000000       0.00000000       0.00013468 </v>
    <i name="Tr[quadrupol]">  -8161.59444722 </i>
    <i name="Echarged">      0.00000000 </i>
    <i name="Edipol_quadrupol">      0.00000000 </i>
    <i name="Eion">      0.00000000 </i>
   </dipole>
   <energy>
    <i name="e_fr_energy">   -519.99646551 </i>
    <i name="e_wo_entrp">   -519.83072943 </i>
    <i name="e_0_energy">   -519.91359747 </i>
   </energy>
  </scstep>
  <scstep>
   <time name="dav">    2.15    2.15</time>
   <time name="total">    2.23    2.23</time>
   <dipole>
    <v name="dipole">      0.00000000       0.00000000      -1.94615295 </v>
    <i name="Tr[quadrupol]">  -8164.97955509 </i>
    <i name="Echarged">      0.00000000 </i>
    <i name="Edipol_quadrupol">      0.00000000 </i>
    <i name="Eion">      0.00000000 </i>
   </dipole>
   <energy>
    <i name="e_fr_energy">   -636.33128522 </i>
    <i name="e_wo_entrp">   -636.27321543 </i>
    <i name="e_0_energy">   -636.30225032 </i>
   </energy>
  </scstep>
  <scstep>
   <time name="dav">    2.01    2.02</time>
   <time name="total">    2.09    2.09</time>
   <dipole>
    <v name="dipole">      0.00000000       0.00000000      -0.83474028 </v>
    <i name="Tr[quadrupol]">  -8163.88268125 </i>
    <i name="Echarged">      0.00000000 </i>
    <i name="Edipol_quadrupol">      0.00000000 </i>
    <i name="Eion">      0.00000000 </i>
   </dipole>
   <energy>
    <i name="e_fr_energy">   -518.39995450 </i>
    <i name="e_wo_entrp">   -518.34453889 </i>
    <i name="e_0_energy">   -518.37224670 </i>
   </energy>
  </scstep>
  <scstep>
   <time name="dav">    1.92    1.93</time>
   <time name="total">    2.00    2.01</time>
   <dipole>
    <v name="dipole">      0.00000000       0.00000000      -0.71689820 </v>
    <i name="Tr[quadrupol]">  -8164.29838997 </i>
    <i name="Echarged">      0.00000000 </i>
    <i name="Edipol_quadrupol">      0.00000000 </i>
    <i name="Eion">      0.00000000 </i>
   </dipole>
   <energy>
    <i name="e_fr_energy">   -484.98657995 </i>
    <i name="e_wo_entrp">   -484.93085189 </i>
    <i name="e_0_energy">   -484.95871592 </i>
   </energy>
  </scstep>
  <scstep>
   <time name="dav">    2.20    2.20</time>
   <time name="total">    2.27    2.27</time>
   <dipole>
    <v name="dipole">      0.00000000       0.00000000      -0.47197970 </v>
    <i name="Tr[quadrupol]">  -8164.98631817 </i>
    <i name="Echarged">      0.00000000 </i>
    <i name="Edipol_quadrupol">      0.00000000 </i>
    <i name="Eion">      0.00000000 </i>
   </dipole>
   <energy>
    <i name="e_fr_energy">   -510.29355558 </i>
    <i name="e_wo_entrp">   -510.20207919 </i>
    <i name="e_0_energy">   -510.24781739 </i>
   </energy>
  </scstep>
  <scstep>
   <time name="dav">    2.06    2.06</time>
   <time name="total">    2.13    2.14</time>
   <dipole>
    <v name="dipole">      0.00000000       0.00000000      -0.73404330 </v>
    <i name="Tr[quadrupol]">  -8165.25204922 </i>
    <i name="Echarged">      0.00000000 </i>
    <i name="Edipol_quadrupol">      0.00000000 </i>
    <i name="Eion">      0.00000000 </i>
   </dipole>
   <energy>
    <i name="e_fr_energy">   -482.28944181 </i>
    <i name="e_wo_entrp">   -482.22956341 </i>
    <i name="e_0_energy">   -482.25950261 </i>
   </energy>
  </scstep>
  <scstep>
   <time name="dav">    2.15    2.15</time>
   <time name="total">    2.22    2.23</time>
   <dipole>
    <v name="dipole">      0.00000000       0.00000000      -0.63035283 </v>
    <i name="Tr[quadrupol]">  -8165.50639878 </i>
    <i name="Echarged">      0.00000000 </i>
    <i name="Edipol_quadrupol">      0.00000000 </i>
    <i name="Eion">      0.00000000 </i>
   </dipole>
   <energy>
    <i name="e_fr_energy">   -481.48114992 </i>
    <i name="e_wo_entrp">   -481.41929593 </i>
    <i name="e_0_energy">   -481.45022292 </i>
   </energy>
  </scstep>
  <scstep>
   <time name="dav">    2.05    2.05</time>
   <time name="total">    2.13    2.13</time>
   <dipole>
    <v name="dipole">      0.00000000       0.00000000      -0.53128797 </v>
    <i name="Tr[quadrupol]">  -8165.50159857 </i>
    <i name="Echarged">      0.00000000 </i>
    <i name="Edipol_quadrupol">      0.00000000 </i>
    <i name="Eion">      0.00000000 </i>
   </dipole>
   <energy>
    <i name="e_fr_energy">   -481.06660420 </i>
    <i name="e_wo_entrp">   -481.00314609 </i>
    <i name="e_0_energy">   -481.03487515 </i>
   </energy>
  </scstep>
  <scstep>
   <time name="dav">    1.74    1.74</time>
   <time name="total">    1.83    1.83</time>
   <dipole>
    <v name="dipole">      0.00000000       0.00000000      -0.44025988 </v>
    <i name="Tr[quadrupol]">  -8165.79203654 </i>
    <i name="Echarged">      0.00000000 </i>
    <i name="Edipol_quadrupol">      0.00000000 </i>
    <i name="Eion">      0.00000000 </i>
   </dipole>
   <energy>
    <i name="e_fr_energy">   -480.83718228 </i>
    <i name="e_wo_entrp">   -480.77276961 </i>
    <i name="e_0_energy">   -480.80497594 </i>
   </energy>
  </scstep>
  <scstep>
   <time name="dav">    2.04    2.04</time>
   <time name="total">    2.12    2.12</time>
   <dipole>
    <v name="dipole">      0.00000000       0.00000000      -0.40046620 </v>
    <i name="Tr[quadrupol]">  -8166.06961709 </i>
    <i name="Echarged">      0.00000000 </i>
    <i name="Edipol_quadrupol">      0.00000000 </i>
    <i name="Eion">      0.00000000 </i>
   </dipole>
   <energy>
    <i name="e_fr_energy">   -480.71367681 </i>
    <i name="e_wo_entrp">   -480.64770365 </i>
    <i name="e_0_energy">   -480.68069023 </i>
   </energy>
  </scstep>
  <scstep>
   <time name="dav">    2.07    2.07</time>
   <time name="total">    2.14    2.14</time>
   <dipole>
    <v name="dipole">      0.00000000       0.00000000      -0.37169117 </v>
    <i name="Tr[quadrupol]">  -8166.31027637 </i>
    <i name="Echarged">      0.00000000 </i>
    <i name="Edipol_quadrupol">      0.00000000 </i>
    <i name="Eion">      0.00000000 </i>
   </dipole>
   <energy>
    <i name="e_fr_energy">   -480.63435733 </i>
    <i name="e_wo_entrp">   -480.56814966 </i>
    <i name="e_0_energy">   -480.60125350 </i>
   </energy>
  </scstep>
  <scstep>
   <time name="dav">    2.19    2.19</time>
   <time name="total">    2.26    2.27</time>
   <dipole>
    <v name="dipole">      0.00000000       0.00000000      -0.34492265 </v>
    <i name="Tr[quadrupol]">  -8166.70019969 </i>
    <i name="Echarged">      0.00000000 </i>
    <i name="Edipol_quadrupol">      0.00000000 </i>
    <i name="Eion">      0.00000000 </i>
   </dipole>
   <energy>
    <i name="e_fr_energy">   -480.45859801 </i>
    <i name="e_wo_entrp">   -480.39185228 </i>
    <i name="e_0_energy">   -480.42522515 </i>
   </energy>
  </scstep>
  <scstep>
   <time name="dav">    2.22    2.23</time>
   <time name="total">    2.30    2.31</time>
   <dipole>
    <v name="dipole">      0.00000000       0.00000000      -0.28550701 </v>
    <i name="Tr[quadrupol]">  -8166.97078819 </i>
    <i name="Echarged">      0.00000000 </i>
    <i name="Edipol_quadrupol">      0.00000000 </i>
    <i name="Eion">      0.00000000 </i>
   </dipole>
   <energy>
    <i name="e_fr_energy">   -480.33574768 </i>
    <i name="e_wo_entrp">   -480.26840402 </i>
    <i name="e_0_energy">   -480.30207585 </i>
   </energy>
  </scstep>
  <scstep>
   <time name="dav">    2.08    2.08</time>
   <time name="total">    2.16    2.17</time>
   <dipole>
    <v name="dipole">      0.00000000       0.00000000      -0.25687413 </v>
    <i name="Tr[quadrupol]">  -8167.06897834 </i>
    <i name="Echarged">      0.00000000 </i>
    <i name="Edipol_quadrupol">      0.00000000 </i>
    <i name="Eion">      0.00000000 </i>
   </dipole>
   <energy>
    <i name="e_fr_energy">   -480.30212202 </i>
    <i name="e_wo_entrp">   -480.23445087 </i>
    <i name="e_0_energy">   -480.26828645 </i>
   </energy>
  </scstep>
  <scstep>
   <time name="dav">    2.21    2.21</time>
   <time name="total">    2.29    2.29</time>
   <dipole>
    <v name="dipole">      0.00000000       0.00000000      -0.23473859 </v>
    <i name="Tr[quadrupol]">  -8167.14994637 </i>
    <i name="Echarged">      0.00000000 </i>
    <i name="Edipol_quadrupol">      0.00000000 </i>
    <i name="Eion">      0.00000000 </i>
   </dipole>
   <energy>
    <i name="e_fr_energy">   -480.28526549 </i>
    <i name="e_wo_entrp">   -480.21743941 </i>
    <i name="e_0_energy">   -480.25135245 </i>
   </energy>
  </scstep>
  <scstep>
   <time name="dav">    2.28    2.29</time>
   <time name="total">    2.36    2.37</time>
   <dipole>
    <v name="dipole">      0.00000000       0.00000000      -0.16740653 </v>
    <i name="Tr[quadrupol]">  -8167.32882287 </i>
    <i name="Echarged">      0.00000000 </i>
    <i name="Edipol_quadrupol">      0.00000000 </i>
    <i name="Eion">      0.00000000 </i>
   </dipole>
   <energy>
    <i name="e_fr_energy">   -480.26248232 </i>
    <i name="e_wo_entrp">   -480.19412086 </i>
    <i name="e_0_energy">   -480.22830159 </i>
   </energy>
  </scstep>
  <scstep>
   <time name="dav">    2.19    2.19</time>
   <time name="total">    2.26    2.27</time>
   <dipole>
    <v name="dipole">      0.00000000       0.00000000      -0.13163389 </v>
    <i name="Tr[quadrupol]">  -8167.45834780 </i>
    <i name="Echarged">      0.00000000 </i>
    <i name="Edipol_quadrupol">      0.00000000 </i>
    <i name="Eion">      0.00000000 </i>
   </dipole>
   <energy>
    <i name="e_fr_energy">   -480.26062971 </i>
    <i name="e_wo_entrp">   -480.19216492 </i>
    <i name="e_0_energy">   -480.22639731 </i>
   </energy>
  </scstep>
  <scstep>
   <time name="dav">    1.98    1.98</time>
   <time name="total">    2.06    2.06</time>
   <dipole>
    <v name="dipole">      0.00000000       0.00000000      -0.10953656 </v>
    <i name="Tr[quadrupol]">  -8167.50614318 </i>
    <i name="Echarged">      0.00000000 </i>
    <i name="Edipol_quadrupol">      0.00000000 </i>
    <i name="Eion">      0.00000000 </i>
   </dipole>
   <energy>
    <i name="e_fr_energy">   -480.26286808 </i>
    <i name="e_wo_entrp">   -480.19422521 </i>
    <i name="e_0_energy">   -480.22854665 </i>
   </energy>
  </scstep>
  <scstep>
   <time name="dav">    2.02    2.02</time>
   <time name="total">    2.10    2.10</time>
   <dipole>
    <v name="dipole">      0.00000000       0.00000000      -0.10540712 </v>
    <i name="Tr[quadrupol]">  -8167.52824200 </i>
    <i name="Echarged">      0.00000000 </i>
    <i name="Edipol_quadrupol">      0.00000000 </i>
    <i name="Eion">      0.00000000 </i>
   </dipole>
   <energy>
    <i name="e_fr_energy">   -480.26356054 </i>
    <i name="e_wo_entrp">   -480.19494466 </i>
    <i name="e_0_energy">   -480.22925260 </i>
   </energy>
  </scstep>
  <scstep>
   <time name="dav">    1.69    1.69</time>
   <time name="total">    1.77    1.77</time>
   <dipole>
    <v name="dipole">      0.00000000       0.00000000      -0.09265973 </v>
    <i name="Tr[quadrupol]">  -8167.55335967 </i>
    <i name="Echarged">      0.00000000 </i>
    <i name="Edipol_quadrupol">      0.00000000 </i>
    <i name="Eion">      0.00000000 </i>
   </dipole>
   <energy>
    <i name="e_fr_energy">   -480.26483398 </i>
    <i name="e_wo_entrp">   -480.19618414 </i>
    <i name="e_0_energy">   -480.23050906 </i>
   </energy>
  </scstep>
  <scstep>
   <time name="dav">    1.52    1.53</time>
   <time name="total">    1.60    1.61</time>
   <dipole>
    <v name="dipole">      0.00000000       0.00000000      -0.08535145 </v>
    <i name="Tr[quadrupol]">  -8167.56437810 </i>
    <i name="Echarged">      0.00000000 </i>
    <i name="Edipol_quadrupol">      0.00000000 </i>
    <i name="Eion">      0.00000000 </i>
   </dipole>
   <energy>
    <i name="e_fr_energy">   -480.26587428 </i>
    <i name="e_wo_entrp">   -480.19723975 </i>
    <i name="e_0_energy">   -480.23155702 </i>
   </energy>
  </scstep>
  <scstep>
   <time name="dav">    1.45    1.45</time>
   <time name="total">    1.52    1.52</time>
   <dipole>
    <v name="dipole">      0.00000000       0.00000000      -0.08292602 </v>
    <i name="Tr[quadrupol]">  -8167.57559034 </i>
    <i name="Echarged">      0.00000000 </i>
    <i name="Edipol_quadrupol">      0.00000000 </i>
    <i name="Eion">      0.00000000 </i>
   </dipole>
   <energy>
    <i name="e_fr_energy">   -480.26614946 </i>
    <i name="e_wo_entrp">   -480.19749021 </i>
    <i name="e_0_energy">   -480.23181983 </i>
   </energy>
  </scstep>
  <scstep>
   <time name="dav">    1.28    1.29</time>
   <time name="total">    1.36    1.37</time>
   <dipole>
    <v name="dipole">      0.00000000       0.00000000      -0.08236708 </v>
    <i name="Tr[quadrupol]">  -8167.65029035 </i>
    <i name="Echarged">      0.00000000 </i>
    <i name="Edipol_quadrupol">      0.00000000 </i>
    <i name="Eion">      0.00000000 </i>
   </dipole>
   <energy>
    <i name="e_fr_energy">   -480.26667812 </i>
    <i name="e_wo_entrp">   -480.19803325 </i>
    <i name="e_0_energy">   -480.23235569 </i>
   </energy>
  </scstep>
  <scstep>
   <time name="dav">    1.38    1.38</time>
   <time name="total">    1.46    1.46</time>
   <dipole>
    <v name="dipole">      0.00000000       0.00000000      -0.08041703 </v>
    <i name="Tr[quadrupol]">  -8167.67339599 </i>
    <i name="Echarged">      0.00000000 </i>
    <i name="Edipol_quadrupol">      0.00000000 </i>
    <i name="Eion">      0.00000000 </i>
   </dipole>
   <energy>
    <i name="e_fr_energy">   -480.26685480 </i>
    <i name="e_wo_entrp">   -480.19820453 </i>
    <i name="e_0_energy">   -480.23252966 </i>
   </energy>
  </scstep>
  <scstep>
   <time name="dav">    1.34    1.34</time>
   <time name="total">    1.43    1.43</time>
   <dipole>
    <v name="dipole">      0.00000000       0.00000000      -0.07817426 </v>
    <i name="Tr[quadrupol]">  -8167.68021312 </i>
    <i name="Echarged">      0.00000000 </i>
    <i name="Edipol_quadrupol">      0.00000000 </i>
    <i name="Eion">      0.00000000 </i>
   </dipole>
   <energy>
    <i name="e_fr_energy">   -480.26699711 </i>
    <i name="e_wo_entrp">   -480.19835563 </i>
    <i name="e_0_energy">   -480.23267637 </i>
   </energy>
  </scstep>
  <scstep>
   <time name="dav">    1.27    1.27</time>
   <time name="total">    1.35    1.35</time>
   <dipole>
    <v name="dipole">      0.00000000       0.00000000      -0.07785475 </v>
    <i name="Tr[quadrupol]">  -8167.68313754 </i>
    <i name="Echarged">      0.00000000 </i>
    <i name="Edipol_quadrupol">      0.00000000 </i>
    <i name="Eion">      0.00000000 </i>
   </dipole>
   <energy>
    <i name="e_fr_energy">   -480.26706053 </i>
    <i name="e_wo_entrp">   -480.19842250 </i>
    <i name="e_0_energy">   -480.23274151 </i>
   </energy>
  </scstep>
  <scstep>
   <time name="dav">    1.17    1.17</time>
   <time name="total">    1.25    1.25</time>
   <dipole>
    <v name="dipole">      0.00000000       0.00000000      -0.07775146 </v>
    <i name="Tr[quadrupol]">  -8167.67064942 </i>
    <i name="Echarged">      0.00000000 </i>
    <i name="Edipol_quadrupol">      0.00000000 </i>
    <i name="Eion">      0.00000000 </i>
   </dipole>
   <energy>
    <i name="e_fr_energy">   -480.26709650 </i>
    <i name="e_wo_entrp">   -480.19846107 </i>
    <i name="e_0_energy">   -480.23277879 </i>
   </energy>
  </scstep>
  <scstep>
   <time name="dav">    1.16    1.16</time>
   <time name="total">    1.24    1.24</time>
   <dipole>
    <v name="dipole">      0.00000000       0.00000000      -0.07808839 </v>
    <i name="Tr[quadrupol]">  -8167.67203090 </i>
    <i name="Echarged">      0.00000000 </i>
    <i name="Edipol_quadrupol">      0.00000000 </i>
    <i name="Eion">      0.00000000 </i>
   </dipole>
   <energy>
    <i name="e_fr_energy">   -480.26711083 </i>
    <i name="e_wo_entrp">   -480.19848198 </i>
    <i name="e_0_energy">   -480.23279641 </i>
   </energy>
  </scstep>
  <scstep>
   <time name="dav">    1.17    1.17</time>
   <time name="total">    1.20    1.20</time>
   <dipole>
    <v name="dipole">      0.00000000       0.00000000      -0.07840556 </v>
    <i name="Tr[quadrupol]">  -8167.65767855 </i>
    <i name="Echarged">      0.00000000 </i>
    <i name="Edipol_quadrupol">      0.00000000 </i>
    <i name="Eion">      0.00000000 </i>
   </dipole>
   <energy>
    <i name="alphaZ">    172.65088801 </i>
    <i name="ewald">  28919.63643680 </i>
    <i name="hartreedc"> -42703.05799556 </i>
    <i name="XCdc">   1066.41467383 </i>
    <i name="pawpsdc">  31234.80744535 </i>
    <i name="pawaedc"> -31470.70896068 </i>
    <i name="eentropy">     -0.06862769 </i>
    <i name="bandstr">  -3513.36813660 </i>
    <i name="atom">  15813.42715894 </i>
    <i name="e_fr_energy">   -480.26711762 </i>
    <i name="e_wo_entrp">   -480.19848993 </i>
    <i name="e_0_energy">   -480.23280377 </i>
   </energy>
  </scstep>
  <structure>
   <crystal>
    <varray name="basis" >
     <v>      13.75970367       0.00000000       0.00000000 </v>
     <v>       0.00000000      11.28669971       0.00000000 </v>
     <v>       0.00000000       0.00000000      15.00000000 </v>
    </varray>
    <i name="volume">   2329.52465126 </i>
    <varray name="rec_basis" >
     <v>       0.07267598       0.00000000       0.00000000 </v>
     <v>       0.00000000       0.08859986       0.00000000 </v>
     <v>       0.00000000       0.00000000       0.06666667 </v>
    </varray>
   </crystal>
   <varray name="positions" >
    <v>       0.07054120       0.38816457       0.22227495 </v>
    <v>       0.98151180       0.21832942       0.16785344 </v>
    <v>       0.22877304       0.39667288       0.18904348 </v>
    <v>       0.82472337       0.57572318       0.18403191 </v>
    <v>       0.14970601       0.24663792       0.12277753 </v>
    <v>       0.90758628       0.38434512       0.21811946 </v>
    <v>       0.56886571       0.39316130       0.23173729 </v>
    <v>       0.47768100       0.22391730       0.18017943 </v>
    <v>       0.73035049       0.39802658       0.19909345 </v>
    <v>       0.31101118       0.58132963       0.17977696 </v>
    <v>       0.64681854       0.25040749       0.13377315 </v>
    <v>       0.40275100       0.39355427       0.22106508 </v>
    <v>       0.81808056       0.88988957       0.05647519 </v>
    <v>       0.73319531       0.72568325       0.12448457 </v>
    <v>       0.97932824       0.89597624       0.07999408 </v>
    <v>       0.06867909       0.07698375       0.09423854 </v>
    <v>       0.90528082       0.74258583       0.14719628 </v>
    <v>       0.65472406       0.89333727       0.07691603 </v>
    <v>       0.31825350       0.89473226       0.05377466 </v>
    <v>       0.22716619       0.72126926       0.10084126 </v>
    <v>       0.47498917       0.90396535       0.09489577 </v>
    <v>       0.56592959       0.08075138       0.11024766 </v>
    <v>       0.38612516       0.76037560       0.16363174 </v>
    <v>       0.15509033       0.88950396       0.05271529 </v>
    <v>       0.98784551       0.43883046       0.24713656 </v>
    <v>       0.89991795       0.26975381       0.19549767 </v>
    <v>       0.15759857       0.43325808       0.24240148 </v>
    <v>       0.14788829       0.14353661       0.08017307 </v>
    <v>       0.98633649       0.10796021       0.13653167 </v>
    <v>       0.22915942       0.31533454       0.12527490 </v>
    <v>       0.06735802       0.28598388       0.16888911 </v>
    <v>       0.82274912       0.45552252       0.21014877 </v>
    <v>       0.48493735       0.44793349       0.25146232 </v>
    <v>       0.39648714       0.27665554       0.20625030 </v>
    <v>       0.65756919       0.43524210       0.25419888 </v>
    <v>       0.64488604       0.14640144       0.09374788 </v>
    <v>       0.48286722       0.11321356       0.15081376 </v>
    <v>       0.72606390       0.31870920       0.13454719 </v>
    <v>       0.56470606       0.29135323       0.18008364 </v>
    <v>       0.31888640       0.46086995       0.20329135 </v>
    <v>       0.73287748       0.94248397       0.03965616 </v>
    <v>       0.64891188       0.78317499       0.11254597 </v>
    <v>       0.90382696       0.93469024       0.03189926 </v>
    <v>       0.90701680       0.63807548       0.18754912 </v>
    <v>       0.73647441       0.61699787       0.15934394 </v>
    <v>       0.98321706       0.81212363       0.14197152 </v>
    <v>       0.81925020       0.78400528       0.10639513 </v>
    <v>       0.56804185       0.96074410       0.08520074 </v>
    <v>       0.23699719       0.94478449       0.02657725 </v>
    <v>       0.14820250       0.77173059       0.06843984 </v>
    <v>       0.40793432       0.93556381       0.03646331 </v>
    <v>       0.38047481       0.65838217       0.20939239 </v>
    <v>       0.23501053       0.60894863       0.12850628 </v>
    <v>       0.46527775       0.83024755       0.16578047 </v>
    <v>       0.31113112       0.79334051       0.10891910 </v>
    <v>       0.06990262       0.95754122       0.06514651 </v>
    <v>       0.57736557       0.77647674       0.24193941 </v>
    <v>       0.65582252       0.60772566       0.29790490 </v>
    <v>       0.48700699       0.61617049       0.29396059 </v>
   </varray>
  </structure>
  <varray name="forces" >
   <v>      -0.03427809      -0.01765881      -0.02914342 </v>
   <v>       0.02709631       0.06911345       0.02306575 </v>
   <v>      -0.02282098       0.01756374      -0.04130598 </v>
   <v>       0.01389323       0.07581416       0.07549270 </v>
   <v>      -0.00857063       0.06207357       0.04806040 </v>
   <v>      -0.02907775       0.04463361      -0.01080898 </v>
   <v>      -0.07170019      -0.00487366      -0.04155899 </v>
   <v>      -0.03197341       0.14636585       0.04503480 </v>
   <v>      -0.06465050       0.08096763       0.02725734 </v>
   <v>      -0.09445321       0.11730063       0.01335810 </v>
   <v>      -0.01399870       0.14777355       0.08641969 </v>
   <v>       0.02325890       0.05363630       0.01675602 </v>
   <v>      -0.01350496       0.02824573       0.00173738 </v>
   <v>       0.14124626       0.04564923      -0.16023346 </v>
   <v>      -0.00567814       0.07106085       0.00099830 </v>
   <v>      -0.02428140       0.07552823      -0.02264615 </v>
   <v>       0.00875691       0.10370775      -0.06516959 </v>
   <v>       0.05697991       0.06108699      -0.06359920 </v>
   <v>      -0.07677937       0.01621902       0.04368830 </v>
   <v>       0.00513221       0.06097519      -0.02889244 </v>
   <v>      -0.13360972       0.06854543      -0.00311714 </v>
   <v>      -0.01582719       0.15899080      -0.05636628 </v>
   <v>      -0.12853671       0.07113541      -0.15140053 </v>
   <v>      -0.09228182       0.02447214       0.02515876 </v>
   <v>       0.06257360      -0.01162901      -0.00459994 </v>
   <v>      -0.03706450      -0.01170799       0.01519172 </v>
   <v>       0.06604949       0.00034325       0.01008959 </v>
   <v>      -0.02958175      -0.03795859      -0.00328441 </v>
   <v>       0.06194764      -0.01745287      -0.02277650 </v>
   <v>       0.01765307      -0.03945445      -0.04331956 </v>
   <v>       0.00987658       0.00830274       0.01743694 </v>
   <v>       0.00705424      -0.12279676       0.07048688 </v>
   <v>       0.02937966       0.00141258      -0.05829004 </v>
   <v>       0.01933868      -0.07144099      -0.05214844 </v>
   <v>       0.11460996      -0.01179147      -0.05557105 </v>
   <v>      -0.05194407      -0.12102517      -0.02425653 </v>
   <v>       0.06656802      -0.11798615      -0.02559787 </v>
   <v>      -0.05194733      -0.06999313      -0.08305339 </v>
   <v>      -0.00285331      -0.06076406      -0.02070632 </v>
   <v>      -0.02786901      -0.11704393       0.02329626 </v>
   <v>       0.09943148       0.01848610       0.00962808 </v>
   <v>       0.65498969       0.03089855      -1.20936261 </v>
   <v>       0.01421431      -0.00997456       0.00950370 </v>
   <v>      -0.05650347      -0.14133792       0.02444364 </v>
   <v>       0.04887563      -0.06897271      -0.04942717 </v>
   <v>      -0.00732712      -0.07745315       0.01762053 </v>
   <v>      -0.02121166      -0.06314113       0.09304058 </v>
   <v>      -0.04177613      -0.10730832      -0.06156757 </v>
   <v>       0.10679968       0.01926866      -0.00395174 </v>
   <v>      -0.01133177      -0.03379155      -0.04664374 </v>
   <v>       0.08407722       0.01793832      -0.00811218 </v>
   <v>      -0.05000771      -0.05569140      -0.08081481 </v>
   <v>       0.04755899      -0.05484573       0.01062377 </v>
   <v>      -1.86882476       0.70161252      -1.30785343 </v>
   <v>       0.00717019      -0.02362512       0.01534882 </v>
   <v>      -0.01201516      -0.10540601      -0.02150844 </v>
   <v>       1.38660900       1.04500863       2.10792501 </v>
   <v>       0.60845426      -0.92442573       0.56292529 </v>
   <v>      -0.65731457      -0.94458023       0.46249952 </v>
  </varray>
  <varray name="stress" >
   <v>      -1.94022598       4.18804355       0.68338272 </v>
   <v>       4.18804354      -4.57256179      -1.88167389 </v>
   <v>       0.68338270      -1.88167387      -9.45680333 </v>
  </varray>
  <energy>
   <i name="e_fr_energy">   -480.26711762 </i>
   <i name="e_wo_entrp">   -480.19848993 </i>
   <i name="e_0_energy">   -480.23280377 </i>
  </energy>
  <time name="totalsc">   63.76   63.90</time>
 </calculation>
 <calculation>
  <scstep>
   <time name="dav">    1.43    1.43</time>
   <time name="total">    1.50    1.51</time>
   <dipole>
    <v name="dipole">      0.00000000       0.00000000      -0.07903042 </v>
    <i name="Tr[quadrupol]">  -8152.41456496 </i>
    <i name="Echarged">      0.00000000 </i>
    <i name="Edipol_quadrupol">      0.00000000 </i>
    <i name="Eion">      0.00000000 </i>
   </dipole>
   <energy>
    <i name="alphaZ">    172.91871042 </i>
    <i name="ewald">  28935.58361755 </i>
    <i name="hartreedc"> -42721.93509347 </i>
    <i name="XCdc">   1066.94402926 </i>
    <i name="pawpsdc">  31234.78450241 </i>
    <i name="pawaedc"> -31470.68866763 </i>
    <i name="eentropy">     -0.06768407 </i>
    <i name="bandstr">  -3511.37830350 </i>
    <i name="atom">  15813.42715894 </i>
    <i name="e_fr_energy">   -480.41173010 </i>
    <i name="e_wo_entrp">   -480.34404603 </i>
    <i name="e_0_energy">   -480.37788807 </i>
   </energy>
  </scstep>
  <scstep>
   <time name="dav">    1.98    1.98</time>
   <time name="total">    2.06    2.06</time>
   <dipole>
    <v name="dipole">      0.00000000       0.00000000      -0.08256682 </v>
    <i name="Tr[quadrupol]">  -8152.42240673 </i>
    <i name="Echarged">      0.00000000 </i>
    <i name="Edipol_quadrupol">      0.00000000 </i>
    <i name="Eion">      0.00000000 </i>
   </dipole>
   <energy>
    <i name="e_fr_energy">   -480.42935905 </i>
    <i name="e_wo_entrp">   -480.36155934 </i>
    <i name="e_0_energy">   -480.39545920 </i>
   </energy>
  </scstep>
  <scstep>
   <time name="dav">    2.04    2.05</time>
   <time name="total">    2.12    2.13</time>
   <dipole>
    <v name="dipole">      0.00000000       0.00000000      -0.07862228 </v>
    <i name="Tr[quadrupol]">  -8152.41798428 </i>
    <i name="Echarged">      0.00000000 </i>
    <i name="Edipol_quadrupol">      0.00000000 </i>
    <i name="Eion">      0.00000000 </i>
   </dipole>
   <energy>
    <i name="e_fr_energy">   -480.43221904 </i>
    <i name="e_wo_entrp">   -480.36430465 </i>
    <i name="e_0_energy">   -480.39826185 </i>
   </energy>
  </scstep>
  <scstep>
   <time name="dav">    2.03    2.03</time>
   <time name="total">    2.12    2.12</time>
   <dipole>
    <v name="dipole">      0.00000000       0.00000000      -0.08336555 </v>
    <i name="Tr[quadrupol]">  -8152.42310362 </i>
    <i name="Echarged">      0.00000000 </i>
    <i name="Edipol_quadrupol">      0.00000000 </i>
    <i name="Eion">      0.00000000 </i>
   </dipole>
   <energy>
    <i name="e_fr_energy">   -480.42835933 </i>
    <i name="e_wo_entrp">   -480.36058892 </i>
    <i name="e_0_energy">   -480.39447412 </i>
   </energy>
  </scstep>
  <scstep>
   <time name="dav">    1.96    1.96</time>
   <time name="total">    2.03    2.04</time>
   <dipole>
    <v name="dipole">      0.00000000       0.00000000      -0.08199055 </v>
    <i name="Tr[quadrupol]">  -8152.42228156 </i>
    <i name="Echarged">      0.00000000 </i>
    <i name="Edipol_quadrupol">      0.00000000 </i>
    <i name="Eion">      0.00000000 </i>
   </dipole>
   <energy>
    <i name="e_fr_energy">   -480.42811249 </i>
    <i name="e_wo_entrp">   -480.36031665 </i>
    <i name="e_0_energy">   -480.39421457 </i>
   </energy>
  </scstep>
  <scstep>
   <time name="dav">    1.83    1.83</time>
   <time name="total">    1.92    1.92</time>
   <dipole>
    <v name="dipole">      0.00000000       0.00000000      -0.08222101 </v>
    <i name="Tr[quadrupol]">  -8152.42272374 </i>
    <i name="Echarged">      0.00000000 </i>
    <i name="Edipol_quadrupol">      0.00000000 </i>
    <i name="Eion">      0.00000000 </i>
   </dipole>
   <energy>
    <i name="e_fr_energy">   -480.42813039 </i>
    <i name="e_wo_entrp">   -480.36029751 </i>
    <i name="e_0_energy">   -480.39421395 </i>
   </energy>
  </scstep>
  <scstep>
   <time name="dav">    1.53    1.53</time>
   <time name="total">    1.61    1.61</time>
   <dipole>
    <v name="dipole">      0.00000000       0.00000000      -0.08222655 </v>
    <i name="Tr[quadrupol]">  -8152.42310935 </i>
    <i name="Echarged">      0.00000000 </i>
    <i name="Edipol_quadrupol">      0.00000000 </i>
    <i name="Eion">      0.00000000 </i>
   </dipole>
   <energy>
    <i name="e_fr_energy">   -480.42808136 </i>
    <i name="e_wo_entrp">   -480.36029595 </i>
    <i name="e_0_energy">   -480.39418866 </i>
   </energy>
  </scstep>
  <scstep>
   <time name="dav">    1.20    1.20</time>
   <time name="total">    1.23    1.24</time>
   <dipole>
    <v name="dipole">      0.00000000       0.00000000      -0.08224979 </v>
    <i name="Tr[quadrupol]">  -8152.42367541 </i>
    <i name="Echarged">      0.00000000 </i>
    <i name="Edipol_quadrupol">      0.00000000 </i>
    <i name="Eion">      0.00000000 </i>
   </dipole>
   <energy>
    <i name="alphaZ">    172.91327858 </i>
    <i name="ewald">  28935.58361755 </i>
    <i name="hartreedc"> -42719.68738689 </i>
    <i name="XCdc">   1066.78499255 </i>
    <i name="pawpsdc">  31308.69127804 </i>
    <i name="pawaedc"> -31544.32630938 </i>
    <i name="eentropy">     -0.06780817 </i>
    <i name="bandstr">  -3513.74690683 </i>
    <i name="atom">  15813.42715894 </i>
    <i name="e_fr_energy">   -480.42808559 </i>
    <i name="e_wo_entrp">   -480.36027743 </i>
    <i name="e_0_energy">   -480.39418151 </i>
   </energy>
  </scstep>
  <structure>
   <crystal>
    <varray name="basis" >
     <v>      13.75335581       0.00000000       0.00000000 </v>
     <v>       0.00000000      11.27442836       0.00000000 </v>
     <v>       0.00000000       0.00000000      15.00000000 </v>
    </varray>
    <i name="volume">   2325.91837120 </i>
    <varray name="rec_basis" >
     <v>       0.07270953       0.00000000       0.00000000 </v>
     <v>       0.00000000       0.08869629       0.00000000 </v>
     <v>       0.00000000       0.00000000       0.06666667 </v>
    </varray>
   </crystal>
   <varray name="positions" >
    <v>       0.07051717       0.38814948       0.22225620 </v>
    <v>       0.98153080       0.21838851       0.16786828 </v>
    <v>       0.22875703       0.39668790       0.18901691 </v>
    <v>       0.82473311       0.57578799       0.18408047 </v>
    <v>       0.14970000       0.24669098       0.12280844 </v>
    <v>       0.90756589       0.38438327       0.21811251 </v>
    <v>       0.56881543       0.39315713       0.23171056 </v>
    <v>       0.47765858       0.22404242       0.18020840 </v>
    <v>       0.73030516       0.39809579       0.19911099 </v>
    <v>       0.31094495       0.58142990       0.17978555 </v>
    <v>       0.64680873       0.25053381       0.13382873 </v>
    <v>       0.40276731       0.39360012       0.22107585 </v>
    <v>       0.81807109       0.88991372       0.05647631 </v>
    <v>       0.73329435       0.72572227       0.12438150 </v>
    <v>       0.97932425       0.89603698       0.07999472 </v>
    <v>       0.06866207       0.07704832       0.09422397 </v>
    <v>       0.90528696       0.74267448       0.14715436 </v>
    <v>       0.65476401       0.89338950       0.07687512 </v>
    <v>       0.31819966       0.89474613       0.05380276 </v>
    <v>       0.22716978       0.72132139       0.10082268 </v>
    <v>       0.47489548       0.90402395       0.09489376 </v>
    <v>       0.56591850       0.08088729       0.11021141 </v>
    <v>       0.38603503       0.76043641       0.16353435 </v>
    <v>       0.15502562       0.88952488       0.05273147 </v>
    <v>       0.98788939       0.43882052       0.24713360 </v>
    <v>       0.89989196       0.26974380       0.19550744 </v>
    <v>       0.15764488       0.43325837       0.24240797 </v>
    <v>       0.14786754       0.14350416       0.08017096 </v>
    <v>       0.98637993       0.10794529       0.13651702 </v>
    <v>       0.22917180       0.31530081       0.12524704 </v>
    <v>       0.06736494       0.28599098       0.16890033 </v>
    <v>       0.82275407       0.45541754       0.21019411 </v>
    <v>       0.48495795       0.44793470       0.25142482 </v>
    <v>       0.39650070       0.27659447       0.20621676 </v>
    <v>       0.65764955       0.43523202       0.25416314 </v>
    <v>       0.64484962       0.14629798       0.09373228 </v>
    <v>       0.48291390       0.11311270       0.15079729 </v>
    <v>       0.72602747       0.31864936       0.13449377 </v>
    <v>       0.56470406       0.29130128       0.18007032 </v>
    <v>       0.31886686       0.46076989       0.20330634 </v>
    <v>       0.73294721       0.94249977       0.03966235 </v>
    <v>       0.64937116       0.78320140       0.11176806 </v>
    <v>       0.90383692       0.93468171       0.03190537 </v>
    <v>       0.90697718       0.63795466       0.18756485 </v>
    <v>       0.73650868       0.61693890       0.15931214 </v>
    <v>       0.98321193       0.81205742       0.14198286 </v>
    <v>       0.81923533       0.78395130       0.10645498 </v>
    <v>       0.56801255       0.96065237       0.08516113 </v>
    <v>       0.23707208       0.94480096       0.02657471 </v>
    <v>       0.14819456       0.77170171       0.06840984 </v>
    <v>       0.40799328       0.93557914       0.03645809 </v>
    <v>       0.38043974       0.65833456       0.20934041 </v>
    <v>       0.23504388       0.60890175       0.12851312 </v>
    <v>       0.46396730       0.83084733       0.16493922 </v>
    <v>       0.31113615       0.79332031       0.10892897 </v>
    <v>       0.06989420       0.95745111       0.06513267 </v>
    <v>       0.57833788       0.77737007       0.24329530 </v>
    <v>       0.65624918       0.60693541       0.29826699 </v>
    <v>       0.48654607       0.61536300       0.29425808 </v>
   </varray>
  </structure>
  <varray name="forces" >
   <v>       0.01727144       0.00754561      -0.01459550 </v>
   <v>       0.00780013       0.02677046       0.01446380 </v>
   <v>       0.00275844       0.00952248      -0.03052473 </v>
   <v>      -0.00441013       0.01250841       0.09677229 </v>
   <v>      -0.00008806       0.02299181       0.01058967 </v>
   <v>      -0.02534872       0.03398426       0.00484667 </v>
   <v>       0.00026631       0.00515338      -0.03332799 </v>
   <v>      -0.00094994      -0.00253907      -0.00985456 </v>
   <v>      -0.00428362       0.02701699      -0.02330756 </v>
   <v>      -0.06838231       0.02713516       0.03613342 </v>
   <v>      -0.02837971       0.01760091       0.00512707 </v>
   <v>      -0.03523541       0.03517948       0.00491477 </v>
   <v>      -0.01642984       0.02067671       0.01119932 </v>
   <v>       0.16440267      -0.04466324      -0.16949229 </v>
   <v>      -0.00529563       0.03637862       0.00539452 </v>
   <v>      -0.01575860       0.02608758      -0.04385885 </v>
   <v>      -0.01736411       0.01659856      -0.01287287 </v>
   <v>       0.06728328       0.11527074      -0.13864416 </v>
   <v>       0.03387359       0.02503161       0.04617346 </v>
   <v>       0.01049416       0.02524396      -0.02776024 </v>
   <v>      -0.20197498       0.21238404      -0.24853789 </v>
   <v>      -0.03531907       0.05218615      -0.07384107 </v>
   <v>      -0.34908344      -0.03223221      -0.19769720 </v>
   <v>      -0.04296973       0.02373895       0.00063990 </v>
   <v>       0.02722938       0.02619399       0.01908468 </v>
   <v>      -0.04257939      -0.04260109       0.01348471 </v>
   <v>       0.03969153       0.00507760       0.02694880 </v>
   <v>       0.00230045      -0.01095818      -0.01586475 </v>
   <v>       0.01353599      -0.01776858      -0.00295202 </v>
   <v>       0.03283453      -0.02694827      -0.05198328 </v>
   <v>       0.00761583       0.01681201       0.01461627 </v>
   <v>      -0.01085511      -0.05938498       0.07744317 </v>
   <v>       0.02394443       0.01440061      -0.02873255 </v>
   <v>      -0.02592931      -0.05372349      -0.02338091 </v>
   <v>       0.04399302      -0.01333947      -0.01700547 </v>
   <v>       0.01160294      -0.01102149      -0.02050929 </v>
   <v>       0.00823720      -0.05260635       0.02115082 </v>
   <v>      -0.00718961      -0.00331898      -0.05400458 </v>
   <v>      -0.00845978      -0.01057225       0.00067152 </v>
   <v>      -0.01579727      -0.04595231       0.02489627 </v>
   <v>       0.11573661       0.11813792      -0.03549253 </v>
   <v>       0.30494747      -0.10413315      -0.94916592 </v>
   <v>       0.03766344       0.00835865      -0.01685202 </v>
   <v>       0.01166881      -0.07102956       0.01153092 </v>
   <v>      -0.02360167      -0.04378644      -0.06384742 </v>
   <v>       0.03459580      -0.03774812       0.01130650 </v>
   <v>       0.08262181       0.00249901       0.07193445 </v>
   <v>      -0.01577347      -0.08131833      -0.04753816 </v>
   <v>       0.00933593       0.05400301      -0.02488635 </v>
   <v>      -0.04669998      -0.05015306      -0.05737284 </v>
   <v>      -0.01455168       0.08772034      -0.16315974 </v>
   <v>       0.02328107      -0.00124184      -0.02130206 </v>
   <v>      -0.01090483      -0.04462960      -0.02624096 </v>
   <v>      -0.88537330       0.39761998      -0.52613551 </v>
   <v>      -0.17811569      -0.04725279      -0.06893291 </v>
   <v>      -0.01621111      -0.04554645      -0.02914301 </v>
   <v>       1.01063803       1.04632837       1.81966862 </v>
   <v>       0.51700927      -0.85281854       0.54104570 </v>
   <v>      -0.50931808      -0.74886952       0.37877988 </v>
  </varray>
  <varray name="stress" >
   <v>      -0.52431820       4.54605049       0.74221427 </v>
   <v>       4.54605049      -3.04356218      -1.81110494 </v>
   <v>       0.74221426      -1.81110494      -8.99700229 </v>
  </varray>
  <energy>
   <i name="e_fr_energy">   -480.42808559 </i>
   <i name="e_wo_entrp">   -480.36027743 </i>
   <i name="e_0_energy">   -480.39418151 </i>
  </energy>
  <time name="totalsc">   15.87   15.90</time>
 </calculation>
 <calculation>
  <scstep>
   <time name="dav">    1.43    1.43</time>
   <time name="total">    1.51    1.51</time>
   <dipole>
    <v name="dipole">      0.00000000       0.00000000      -0.08236713 </v>
    <i name="Tr[quadrupol]">  -8109.93013489 </i>
    <i name="Echarged">      0.00000000 </i>
    <i name="Edipol_quadrupol">      0.00000000 </i>
    <i name="Eion">      0.00000000 </i>
   </dipole>
   <energy>
    <i name="alphaZ">    173.66904845 </i>
    <i name="ewald">  28982.38785468 </i>
    <i name="hartreedc"> -42774.12197181 </i>
    <i name="XCdc">   1068.30530502 </i>
    <i name="pawpsdc">  31308.69433488 </i>
    <i name="pawaedc"> -31544.32436782 </i>
    <i name="eentropy">     -0.06484397 </i>
    <i name="bandstr">  -3508.47296009 </i>
    <i name="atom">  15813.42715894 </i>
    <i name="e_fr_energy">   -480.50044172 </i>
    <i name="e_wo_entrp">   -480.43559775 </i>
    <i name="e_0_energy">   -480.46801974 </i>
   </energy>
  </scstep>
  <scstep>
   <time name="dav">    1.95    1.95</time>
   <time name="total">    2.03    2.03</time>
   <dipole>
    <v name="dipole">      0.00000000       0.00000000      -0.09528389 </v>
    <i name="Tr[quadrupol]">  -8109.93634475 </i>
    <i name="Echarged">      0.00000000 </i>
    <i name="Edipol_quadrupol">      0.00000000 </i>
    <i name="Eion">      0.00000000 </i>
   </dipole>
   <energy>
    <i name="e_fr_energy">   -480.61827604 </i>
    <i name="e_wo_entrp">   -480.55256641 </i>
    <i name="e_0_energy">   -480.58542123 </i>
   </energy>
  </scstep>
  <scstep>
   <time name="dav">    2.09    2.09</time>
   <time name="total">    2.16    2.17</time>
   <dipole>
    <v name="dipole">      0.00000000       0.00000000      -0.08588649 </v>
    <i name="Tr[quadrupol]">  -8109.91390075 </i>
    <i name="Echarged">      0.00000000 </i>
    <i name="Edipol_quadrupol">      0.00000000 </i>
    <i name="Eion">      0.00000000 </i>
   </dipole>
   <energy>
    <i name="e_fr_energy">   -480.61366401 </i>
    <i name="e_wo_entrp">   -480.54828694 </i>
    <i name="e_0_energy">   -480.58097547 </i>
   </energy>
  </scstep>
  <scstep>
   <time name="dav">    1.93    1.93</time>
   <time name="total">    2.01    2.01</time>
   <dipole>
    <v name="dipole">      0.00000000       0.00000000      -0.09688508 </v>
    <i name="Tr[quadrupol]">  -8109.94258448 </i>
    <i name="Echarged">      0.00000000 </i>
    <i name="Edipol_quadrupol">      0.00000000 </i>
    <i name="Eion">      0.00000000 </i>
   </dipole>
   <energy>
    <i name="e_fr_energy">   -480.60064021 </i>
    <i name="e_wo_entrp">   -480.53511111 </i>
    <i name="e_0_energy">   -480.56787566 </i>
   </energy>
  </scstep>
  <scstep>
   <time name="dav">    1.92    1.92</time>
   <time name="total">    2.00    2.00</time>
   <dipole>
    <v name="dipole">      0.00000000       0.00000000      -0.09334418 </v>
    <i name="Tr[quadrupol]">  -8109.94133483 </i>
    <i name="Echarged">      0.00000000 </i>
    <i name="Edipol_quadrupol">      0.00000000 </i>
    <i name="Eion">      0.00000000 </i>
   </dipole>
   <energy>
    <i name="e_fr_energy">   -480.59980532 </i>
    <i name="e_wo_entrp">   -480.53433440 </i>
    <i name="e_0_energy">   -480.56706986 </i>
   </energy>
  </scstep>
  <scstep>
   <time name="dav">    1.99    2.00</time>
   <time name="total">    2.07    2.07</time>
   <dipole>
    <v name="dipole">      0.00000000       0.00000000      -0.09359543 </v>
    <i name="Tr[quadrupol]">  -8109.94266234 </i>
    <i name="Echarged">      0.00000000 </i>
    <i name="Edipol_quadrupol">      0.00000000 </i>
    <i name="Eion">      0.00000000 </i>
   </dipole>
   <energy>
    <i name="e_fr_energy">   -480.59947736 </i>
    <i name="e_wo_entrp">   -480.53393150 </i>
    <i name="e_0_energy">   -480.56670443 </i>
   </energy>
  </scstep>
  <scstep>
   <time name="dav">    1.99    1.99</time>
   <time name="total">    2.06    2.07</time>
   <dipole>
    <v name="dipole">      0.00000000       0.00000000      -0.09374666 </v>
    <i name="Tr[quadrupol]">  -8109.94480552 </i>
    <i name="Echarged">      0.00000000 </i>
    <i name="Edipol_quadrupol">      0.00000000 </i>
    <i name="Eion">      0.00000000 </i>
   </dipole>
   <energy>
    <i name="e_fr_energy">   -480.59939968 </i>
    <i name="e_wo_entrp">   -480.53398634 </i>
    <i name="e_0_energy">   -480.56669301 </i>
   </energy>
  </scstep>
  <scstep>
   <time name="dav">    1.60    1.60</time>
   <time name="total">    1.67    1.67</time>
   <dipole>
    <v name="dipole">      0.00000000       0.00000000      -0.09371947 </v>
    <i name="Tr[quadrupol]">  -8109.94662470 </i>
    <i name="Echarged">      0.00000000 </i>
    <i name="Edipol_quadrupol">      0.00000000 </i>
    <i name="Eion">      0.00000000 </i>
   </dipole>
   <energy>
    <i name="e_fr_energy">   -480.59941793 </i>
    <i name="e_wo_entrp">   -480.53390336 </i>
    <i name="e_0_energy">   -480.56666065 </i>
   </energy>
  </scstep>
  <scstep>
   <time name="dav">    1.33    1.33</time>
   <time name="total">    1.41    1.41</time>
   <dipole>
    <v name="dipole">      0.00000000       0.00000000      -0.09389679 </v>
    <i name="Tr[quadrupol]">  -8109.94796414 </i>
    <i name="Echarged">      0.00000000 </i>
    <i name="Edipol_quadrupol">      0.00000000 </i>
    <i name="Eion">      0.00000000 </i>
   </dipole>
   <energy>
    <i name="e_fr_energy">   -480.59943396 </i>
    <i name="e_wo_entrp">   -480.53397499 </i>
    <i name="e_0_energy">   -480.56670447 </i>
   </energy>
  </scstep>
  <scstep>
   <time name="dav">    1.12    1.12</time>
   <time name="total">    1.20    1.20</time>
   <dipole>
    <v name="dipole">      0.00000000       0.00000000      -0.09395623 </v>
    <i name="Tr[quadrupol]">  -8109.94924685 </i>
    <i name="Echarged">      0.00000000 </i>
    <i name="Edipol_quadrupol">      0.00000000 </i>
    <i name="Eion">      0.00000000 </i>
   </dipole>
   <energy>
    <i name="e_fr_energy">   -480.59944697 </i>
    <i name="e_wo_entrp">   -480.53397021 </i>
    <i name="e_0_energy">   -480.56670859 </i>
   </energy>
  </scstep>
  <scstep>
   <time name="dav">    1.11    1.11</time>
   <time name="total">    1.19    1.19</time>
   <dipole>
    <v name="dipole">      0.00000000       0.00000000      -0.09411261 </v>
    <i name="Tr[quadrupol]">  -8109.95080846 </i>
    <i name="Echarged">      0.00000000 </i>
    <i name="Edipol_quadrupol">      0.00000000 </i>
    <i name="Eion">      0.00000000 </i>
   </dipole>
   <energy>
    <i name="e_fr_energy">   -480.59946159 </i>
    <i name="e_wo_entrp">   -480.53398517 </i>
    <i name="e_0_energy">   -480.56672338 </i>
   </energy>
  </scstep>
  <scstep>
   <time name="dav">    1.11    1.11</time>
   <time name="total">    1.19    1.19</time>
   <dipole>
    <v name="dipole">      0.00000000       0.00000000      -0.09425858 </v>
    <i name="Tr[quadrupol]">  -8109.95251090 </i>
    <i name="Echarged">      0.00000000 </i>
    <i name="Edipol_quadrupol">      0.00000000 </i>
    <i name="Eion">      0.00000000 </i>
   </dipole>
   <energy>
    <i name="e_fr_energy">   -480.59947506 </i>
[...]
       <r>    1.9125    0.0000 </r>
       <r>    1.9693    0.0000 </r>
       <r>    2.0462    0.0000 </r>
       <r>    2.1534    0.0000 </r>
       <r>    2.2408    0.0000 </r>
       <r>    2.4114    0.0000 </r>
       <r>    2.5050    0.0000 </r>
       <r>    2.6333    0.0000 </r>
       <r>    2.7238    0.0000 </r>
      </set>
     </set>
    </set>
   </array>
  </eigenvalues>
  <separator name="orbital magnetization" >
   <v name="MAGDIPOLOUT">      0.00000000      0.00000000      0.00000000</v>
  </separator>
  <dos>
   <i name="efermi">     -1.79389387 </i>
   <total>
    <array>
     <dimension dim="1">gridpoints</dimension>
     <dimension dim="2">spin</dimension>
     <field>energy</field>
     <field>total</field>
     <field>integrated</field>
     <set>
      <set comment="spin 1">
       <r>   -27.5474     0.0000     0.0000 </r>
       <r>   -27.4417     0.0000     0.0000 </r>
       <r>   -27.3360     0.0000     0.0000 </r>
       <r>   -27.2303     0.0000     0.0000 </r>
       <r>   -27.1246     0.0000     0.0000 </r>
       <r>   -27.0189     0.0000     0.0000 </r>
       <r>   -26.9132     0.0000     0.0000 </r>
       <r>   -26.8075     0.0000     0.0000 </r>
       <r>   -26.7018     0.0000     0.0000 </r>
       <r>   -26.5961     0.0000     0.0000 </r>
       <r>   -26.4903     0.0000     0.0000 </r>
       <r>   -26.3846     0.0002     0.0000 </r>
       <r>   -26.2789     0.0493     0.0052 </r>
       <r>   -26.1732     1.5674     0.1709 </r>
       <r>   -26.0675     9.5005     1.1752 </r>
       <r>   -25.9618    17.8721     3.0645 </r>
       <r>   -25.8561    23.0632     5.5025 </r>
       <r>   -25.7504    18.8532     7.4954 </r>
       <r>   -25.6447     4.5392     7.9753 </r>
       <r>   -25.5390     0.2320     7.9998 </r>
       <r>   -25.4333     0.0020     8.0000 </r>
       <r>   -25.3275     0.0000     8.0000 </r>
       <r>   -25.2218     0.0060     8.0006 </r>
       <r>   -25.1161     0.4812     8.0515 </r>
       <r>   -25.0104     5.6051     8.6440 </r>
       <r>   -24.9047    13.0537    10.0239 </r>
       <r>   -24.7990    13.8742    11.4905 </r>
       <r>   -24.6933    11.3919    12.6948 </r>
       <r>   -24.5876     8.9732    13.6433 </r>
       <r>   -24.4819     9.3041    14.6268 </r>
       <r>   -24.3762     6.9501    15.3615 </r>
       <r>   -24.2705     1.2725    15.4961 </r>
       <r>   -24.1647     0.0456    15.5009 </r>
       <r>   -24.0590     0.3601    15.5389 </r>
       <r>   -23.9533     2.3557    15.7880 </r>
       <r>   -23.8476     7.0694    16.5353 </r>
       <r>   -23.7419    22.9630    18.9627 </r>
       <r>   -23.6362    29.5410    22.0854 </r>
       <r>   -23.5305    17.8248    23.9697 </r>
       <r>   -23.4248     4.6482    24.4610 </r>
       <r>   -23.3191     0.3662    24.4997 </r>
       <r>   -23.2134     0.2946    24.5309 </r>
       <r>   -23.1077     3.9698    24.9505 </r>
       <r>   -23.0019    10.0595    26.0139 </r>
       <r>   -22.8962     8.3342    26.8949 </r>
       <r>   -22.7905     8.4557    27.7887 </r>
       <r>   -22.6848    13.1249    29.1762 </r>
       <r>   -22.5791    13.1046    30.5614 </r>
       <r>   -22.4734    10.0110    31.6197 </r>
       <r>   -22.3677     3.2676    31.9651 </r>
       <r>   -22.2620     0.3241    31.9994 </r>
       <r>   -22.1563     0.0063    32.0000 </r>
       <r>   -22.0506     0.0639    32.0068 </r>
       <r>   -21.9449     1.8733    32.2048 </r>
       <r>   -21.8391    12.5563    33.5321 </r>
       <r>   -21.7334    30.4008    36.7458 </r>
       <r>   -21.6277    34.8324    40.4279 </r>
       <r>   -21.5220    30.7672    43.6803 </r>
       <r>   -21.4163    27.1537    46.5507 </r>
       <r>   -21.3106    12.2158    47.8420 </r>
       <r>   -21.2049     1.4921    47.9997 </r>
       <r>   -21.0992     0.8707    48.0917 </r>
       <r>   -20.9935     4.6940    48.5880 </r>
       <r>   -20.8878    12.5225    49.9117 </r>
       <r>   -20.7820    20.5647    52.0856 </r>
       <r>   -20.6763    19.1009    54.1047 </r>
       <r>   -20.5706    13.2741    55.5079 </r>
       <r>   -20.4649     5.3063    56.0688 </r>
       <r>   -20.3592     9.1798    57.0392 </r>
       <r>   -20.2535    17.0579    58.8424 </r>
       <r>   -20.1478    18.8625    60.8364 </r>
       <r>   -20.0421    19.9669    62.9470 </r>
       <r>   -19.9364     8.9241    63.8904 </r>
       <r>   -19.8307     1.0136    63.9975 </r>
       <r>   -19.7250     0.0232    64.0000 </r>
       <r>   -19.6192     0.0001    64.0000 </r>
       <r>   -19.5135     0.0000    64.0000 </r>
       <r>   -19.4078     0.0000    64.0000 </r>
       <r>   -19.3021     0.0000    64.0000 </r>
       <r>   -19.1964     0.0000    64.0000 </r>
       <r>   -19.0907     0.0000    64.0000 </r>
       <r>   -18.9850     0.0000    64.0000 </r>
       <r>   -18.8793     0.0000    64.0000 </r>
       <r>   -18.7736     0.0000    64.0000 </r>
       <r>   -18.6679     0.0000    64.0000 </r>
       <r>   -18.5622     0.0000    64.0000 </r>
       <r>   -18.4564     0.0000    64.0000 </r>
       <r>   -18.3507     0.0000    64.0000 </r>
       <r>   -18.2450     0.0000    64.0000 </r>
       <r>   -18.1393     0.0000    64.0000 </r>
       <r>   -18.0336     0.0000    64.0000 </r>
       <r>   -17.9279     0.0000    64.0000 </r>
       <r>   -17.8222     0.0000    64.0000 </r>
       <r>   -17.7165     0.0000    64.0000 </r>
       <r>   -17.6108     0.0038    64.0004 </r>
       <r>   -17.5051     0.3255    64.0348 </r>
       <r>   -17.3994     4.2834    64.4876 </r>
       <r>   -17.2936    11.7219    65.7267 </r>
       <r>   -17.1879    12.6208    67.0609 </r>
       <r>   -17.0822    12.2172    68.3523 </r>
       <r>   -16.9765    15.1504    69.9539 </r>
       <r>   -16.8708    20.1566    72.0846 </r>
       <r>   -16.7651    21.4958    74.3569 </r>
       <r>   -16.6594    15.7563    76.0225 </r>
       <r>   -16.5537    11.1489    77.2010 </r>
       <r>   -16.4480    11.8575    78.4545 </r>
       <r>   -16.3423     8.2932    79.3311 </r>
       <r>   -16.2366     1.5504    79.4950 </r>
       <r>   -16.1308     0.1579    79.5117 </r>
       <r>   -16.0251     1.3625    79.6558 </r>
       <r>   -15.9194     2.5100    79.9211 </r>
       <r>   -15.8137     0.7171    79.9969 </r>
       <r>   -15.7080     0.0306    80.0001 </r>
       <r>   -15.6023     0.1639    80.0174 </r>
       <r>   -15.4966     3.4472    80.3819 </r>
       <r>   -15.3909    17.4310    82.2245 </r>
       <r>   -15.2852    30.3291    85.4305 </r>
       <r>   -15.1795    17.5254    87.2831 </r>
       <r>   -15.0737     4.5105    87.7599 </r>
       <r>   -14.9680     2.3401    88.0073 </r>
       <r>   -14.8623     2.3747    88.2583 </r>
       <r>   -14.7566     2.4237    88.5146 </r>
       <r>   -14.6509     2.5304    88.7820 </r>
       <r>   -14.5452     1.8428    88.9768 </r>
       <r>   -14.4395     0.8919    89.0711 </r>
       <r>   -14.3338     6.6641    89.7756 </r>
       <r>   -14.2281    13.9490    91.2501 </r>
       <r>   -14.1224    11.0474    92.4179 </r>
       <r>   -14.0167    13.0931    93.8020 </r>
       <r>   -13.9109    15.1245    95.4008 </r>
       <r>   -13.8052    16.6356    97.1593 </r>
       <r>   -13.6995    23.5361    99.6473 </r>
       <r>   -13.5938    23.7480   102.1577 </r>
       <r>   -13.4881    24.8044   104.7798 </r>
       <r>   -13.3824    30.2973   107.9825 </r>
       <r>   -13.2767    23.4996   110.4666 </r>
       <r>   -13.1710    19.5543   112.5337 </r>
       <r>   -13.0653    14.8594   114.1044 </r>
       <r>   -12.9596     6.5591   114.7978 </r>
       <r>   -12.8539     6.1942   115.4526 </r>
       <r>   -12.7481     7.5502   116.2507 </r>
       <r>   -12.6424     8.8593   117.1872 </r>
       <r>   -12.5367     7.1082   117.9386 </r>
       <r>   -12.4310     5.2027   118.4886 </r>
       <r>   -12.3253     6.3776   119.1628 </r>
       <r>   -12.2196     8.5513   120.0667 </r>
       <r>   -12.1139     4.5132   120.5438 </r>
       <r>   -12.0082     4.6897   121.0395 </r>
       <r>   -11.9025     8.9767   121.9885 </r>
       <r>   -11.7968    14.4545   123.5164 </r>
       <r>   -11.6911    17.8492   125.4033 </r>
       <r>   -11.5853    21.0587   127.6294 </r>
       <r>   -11.4796    24.9257   130.2642 </r>
       <r>   -11.3739    19.1034   132.2836 </r>
       <r>   -11.2682    18.0034   134.1868 </r>
       <r>   -11.1625    19.8662   136.2868 </r>
       <r>   -11.0568    19.0907   138.3049 </r>
       <r>   -10.9511    11.5887   139.5299 </r>
       <r>   -10.8454     8.1572   140.3922 </r>
       <r>   -10.7397     5.7728   141.0024 </r>
       <r>   -10.6340     6.3368   141.6723 </r>
       <r>   -10.5282    12.0378   142.9448 </r>
       <r>   -10.4225    17.3762   144.7816 </r>
       <r>   -10.3168    17.7569   146.6587 </r>
       <r>   -10.2111    17.6032   148.5195 </r>
       <r>   -10.1054    16.4927   150.2630 </r>
       <r>    -9.9997    11.8367   151.5142 </r>
       <r>    -9.8940     4.2738   151.9660 </r>
       <r>    -9.7883     1.8510   152.1616 </r>
       <r>    -9.6826     4.4296   152.6299 </r>
       <r>    -9.5769     8.5943   153.5384 </r>
       <r>    -9.4712    11.8084   154.7866 </r>
       <r>    -9.3654    18.9210   156.7868 </r>
       <r>    -9.2597    19.6121   158.8599 </r>
       <r>    -9.1540    15.4983   160.4983 </r>
       <r>    -9.0483    23.8788   163.0225 </r>
       <r>    -8.9426    31.6701   166.3703 </r>
       <r>    -8.8369    26.3348   169.1541 </r>
       <r>    -8.7312     9.7603   170.1859 </r>
       <r>    -8.6255     9.8950   171.2319 </r>
       <r>    -8.5198     6.6013   171.9297 </r>
       <r>    -8.4141     1.6450   172.1036 </r>
       <r>    -8.3084     2.6363   172.3823 </r>
       <r>    -8.2026     2.9343   172.6924 </r>
       <r>    -8.0969    13.0139   174.0681 </r>
       <r>    -7.9912    23.0066   176.5001 </r>
       <r>    -7.8855    16.7176   178.2674 </r>
       <r>    -7.7798    19.1511   180.2918 </r>
       <r>    -7.6741    13.5852   181.7279 </r>
       <r>    -7.5684     2.5074   181.9929 </r>
       <r>    -7.4627     1.6550   182.1679 </r>
       <r>    -7.3570    13.3884   183.5832 </r>
       <r>    -7.2513    30.5037   186.8077 </r>
       <r>    -7.1456    34.1078   190.4132 </r>
       <r>    -7.0398    30.6973   193.6582 </r>
       <r>    -6.9341    34.7522   197.3318 </r>
       <r>    -6.8284    36.2310   201.1618 </r>
       <r>    -6.7227    23.3028   203.6251 </r>
       <r>    -6.6170    13.1414   205.0143 </r>
       <r>    -6.5113    10.3067   206.1038 </r>
       <r>    -6.4056    15.3299   207.7243 </r>
       <r>    -6.2999    27.1191   210.5910 </r>
       <r>    -6.1942    30.0472   213.7673 </r>
       <r>    -6.0885    22.6396   216.1605 </r>
       <r>    -5.9828    21.9451   218.4803 </r>
       <r>    -5.8770    15.2711   220.0946 </r>
       <r>    -5.7713    17.5426   221.9490 </r>
       <r>    -5.6656    23.6061   224.4444 </r>
       <r>    -5.5599    27.3543   227.3360 </r>
       <r>    -5.4542    36.7648   231.2224 </r>
       <r>    -5.3485    26.8581   234.0615 </r>
       <r>    -5.2428    26.7338   236.8875 </r>
       <r>    -5.1371    26.7132   239.7114 </r>
       <r>    -5.0314    26.1728   242.4781 </r>
       <r>    -4.9257    30.8888   245.7433 </r>
       <r>    -4.8199    26.8284   248.5793 </r>
       <r>    -4.7142    24.5867   251.1784 </r>
       <r>    -4.6085    28.8036   254.2232 </r>
       <r>    -4.5028    31.0807   257.5087 </r>
       <r>    -4.3971    23.8555   260.0304 </r>
       <r>    -4.2914    16.0083   261.7227 </r>
       <r>    -4.1857    18.3080   263.6580 </r>
       <r>    -4.0800    33.3538   267.1838 </r>
       <r>    -3.9743    29.2412   270.2748 </r>
       <r>    -3.8686    18.0591   272.1839 </r>
       <r>    -3.7629    25.4991   274.8793 </r>
       <r>    -3.6571    29.6040   278.0088 </r>
       <r>    -3.5514    29.3495   281.1113 </r>
       <r>    -3.4457    20.5620   283.2849 </r>
       <r>    -3.3400     7.6574   284.0943 </r>
       <r>    -3.2343     8.8166   285.0263 </r>
       <r>    -3.1286     8.0148   285.8736 </r>
       <r>    -3.0229     1.1769   285.9980 </r>
       <r>    -2.9172     0.4574   286.0463 </r>
       <r>    -2.8115     5.4168   286.6189 </r>
       <r>    -2.7058    10.0519   287.6815 </r>
       <r>    -2.6001     2.8928   287.9873 </r>
       <r>    -2.4943     0.1194   287.9999 </r>
       <r>    -2.3886     0.0006   288.0000 </r>
       <r>    -2.2829     0.0000   288.0000 </r>
       <r>    -2.1772     0.0000   288.0000 </r>
       <r>    -2.0715     0.0019   288.0002 </r>
       <r>    -1.9658     0.1867   288.0199 </r>
       <r>    -1.8601     3.0898   288.3466 </r>
       <r>    -1.7544    11.1309   289.5232 </r>
       <r>    -1.6487    12.6783   290.8634 </r>
       <r>    -1.5430    11.6750   292.0976 </r>
       <r>    -1.4373    12.5156   293.4206 </r>
       <r>    -1.3315    10.2574   294.5049 </r>
       <r>    -1.2258     9.1517   295.4723 </r>
       <r>    -1.1201    11.7848   296.7181 </r>
       <r>    -1.0144    16.9151   298.5061 </r>
       <r>    -0.9087    22.4446   300.8787 </r>
       <r>    -0.8030    20.5495   303.0510 </r>
       <r>    -0.6973     9.4461   304.0496 </r>
       <r>    -0.5916     5.6279   304.6445 </r>
       <r>    -0.4859    11.7586   305.8875 </r>
       <r>    -0.3802    26.1949   308.6565 </r>
       <r>    -0.2745    32.2956   312.0705 </r>
       <r>    -0.1687    19.1456   314.0943 </r>
       <r>    -0.0630    12.1203   315.3756 </r>
       <r>     0.0427     5.4340   315.9500 </r>
       <r>     0.1484     0.4672   315.9994 </r>
       <r>     0.2541     0.0060   316.0000 </r>
       <r>     0.3598     0.0339   316.0036 </r>
       <r>     0.4655     1.3613   316.1475 </r>
       <r>     0.5712     8.1530   317.0093 </r>
       <r>     0.6769     8.0377   317.8590 </r>
       <r>     0.7826     1.3418   318.0008 </r>
       <r>     0.8884     0.8697   318.0928 </r>
       <r>     0.9941     2.8888   318.3982 </r>
       <r>     1.0998     5.0544   318.9325 </r>
       <r>     1.2055    11.8015   320.1800 </r>
       <r>     1.3112    14.8159   321.7462 </r>
       <r>     1.4169    14.6394   323.2937 </r>
       <r>     1.5226    21.3045   325.5458 </r>
       <r>     1.6283    25.0024   328.1887 </r>
       <r>     1.7340    22.6113   330.5790 </r>
       <r>     1.8397    19.6514   332.6563 </r>
       <r>     1.9454    24.1615   335.2104 </r>
       <r>     2.0512    28.4467   338.2175 </r>
       <r>     2.1569    25.2757   340.8894 </r>
       <r>     2.2626    20.4047   343.0463 </r>
       <r>     2.3683    14.2831   344.5562 </r>
       <r>     2.4740    18.3142   346.4922 </r>
       <r>     2.5797    23.2081   348.9455 </r>
       <r>     2.6854    18.2632   350.8761 </r>
       <r>     2.7911     8.8453   351.8111 </r>
       <r>     2.8968     1.7182   351.9927 </r>
       <r>     3.0025     0.0685   352.0000 </r>
       <r>     3.1082     0.0004   352.0000 </r>
       <r>     3.2140     0.0000   352.0000 </r>
       <r>     3.3197     0.0000   352.0000 </r>
       <r>     3.4254     0.0000   352.0000 </r>
       <r>     3.5311     0.0000   352.0000 </r>
       <r>     3.6368     0.0000   352.0000 </r>
       <r>     3.7425     0.0000   352.0000 </r>
       <r>     3.8482     0.0000   352.0000 </r>
       <r>     3.9539     0.0000   352.0000 </r>
       <r>     4.0596     0.0000   352.0000 </r>
       <r>     4.1653     0.0000   352.0000 </r>
      </set>
     </set>
    </array>
   </total>
  </dos>
 </calculation>
 <structure name="finalpos" >
  <crystal>
   <varray name="basis" >
    <v>      13.71181311       0.00000000       0.00000000 </v>
    <v>       0.00000000      10.87642667       0.00000000 </v>
    <v>       0.00000000       0.00000000      15.00000000 </v>
   </varray>
   <i name="volume">   2237.03294644 </i>
   <varray name="rec_basis" >
    <v>       0.07292982       0.00000000       0.00000000 </v>
    <v>       0.00000000       0.09194196       0.00000000 </v>
    <v>       0.00000000       0.00000000       0.06666667 </v>
   </varray>
  </crystal>
  <varray name="positions" >
   <v>       0.07123011       0.38891402       0.23088156 </v>
   <v>       0.98085604       0.21949448       0.16856748 </v>
   <v>       0.22951094       0.39707480       0.19854061 </v>
   <v>       0.81983740       0.58118511       0.18939696 </v>
   <v>       0.14896471       0.25221728       0.12319263 </v>
   <v>       0.90805694       0.38661930       0.22748192 </v>
   <v>       0.56996860       0.39181201       0.23204005 </v>
   <v>       0.47899789       0.22159964       0.17288604 </v>
   <v>       0.73236744       0.39642910       0.20429542 </v>
   <v>       0.31188102       0.58463244       0.18749339 </v>
   <v>       0.64944034       0.25205912       0.12888676 </v>
   <v>       0.40460044       0.39248234       0.22501053 </v>
   <v>       0.81728475       0.88885434       0.04462943 </v>
   <v>       0.72901044       0.72081249       0.11162439 </v>
   <v>       0.97736769       0.89744947       0.07176500 </v>
   <v>       0.06724434       0.08092789       0.08622741 </v>
   <v>       0.89930202       0.75252458       0.14963787 </v>
   <v>       0.65346206       0.88765168       0.05492861 </v>
   <v>       0.31723710       0.89316355       0.04267535 </v>
   <v>       0.22622719       0.72118432       0.10223458 </v>
   <v>       0.47561085       0.90086231       0.07832744 </v>
   <v>       0.56702466       0.08104687       0.09367878 </v>
   <v>       0.38986780       0.76375354       0.15597653 </v>
   <v>       0.15358113       0.88856251       0.04414172 </v>
   <v>       0.98881454       0.44169125       0.25715925 </v>
   <v>       0.90009419       0.26857500       0.20208199 </v>
   <v>       0.15916591       0.43002319       0.25471365 </v>
   <v>       0.14682926       0.15004449       0.07491537 </v>
   <v>       0.98476469       0.10937661       0.13005187 </v>
   <v>       0.22917971       0.32128145       0.12951650 </v>
   <v>       0.06695699       0.28905088       0.17182042 </v>
   <v>       0.82204434       0.45817832       0.22143138 </v>
   <v>       0.48750337       0.44943141       0.25341201 </v>
   <v>       0.39863594       0.27229542       0.20485762 </v>
   <v>       0.65835166       0.43077625       0.25902477 </v>
   <v>       0.64739402       0.14922038       0.08236198 </v>
   <v>       0.48381953       0.11095481       0.13603701 </v>
   <v>       0.72979946       0.32025202       0.13604871 </v>
   <v>       0.56628160       0.29115048       0.17547848 </v>
   <v>       0.31947253       0.46167361       0.21492667 </v>
   <v>       0.73352875       0.94110255       0.02162336 </v>
   <v>       0.64632103       0.77018635       0.08325158 </v>
   <v>       0.90465461       0.93006093       0.01821603 </v>
   <v>       0.89947325       0.64987281       0.19803226 </v>
   <v>       0.73467546       0.61049348       0.15047320 </v>
   <v>       0.97873239       0.82182585       0.14143900 </v>
   <v>       0.81560055       0.78830333       0.10336200 </v>
   <v>       0.56826685       0.95895487       0.06312155 </v>
   <v>       0.23514860       0.94351851       0.01453370 </v>
   <v>       0.14640659       0.76876018       0.06711901 </v>
   <v>       0.40663591       0.93260688       0.02072270 </v>
   <v>       0.38456655       0.66397248       0.20906817 </v>
   <v>       0.23358489       0.60918995       0.13799203 </v>
   <v>       0.47094824       0.82905449       0.15062738 </v>
   <v>       0.31109621       0.79449757       0.10345790 </v>
   <v>       0.06834081       0.95914139       0.05390648 </v>
   <v>       0.58586976       0.76831047       0.39739488 </v>
   <v>       0.65245000       0.57394868       0.33827272 </v>
   <v>       0.49282075       0.62999983       0.29220555 </v>
  </varray>
 </structure>
</modeling>
