slab_Cel1-OPT                           
           1
    13.759704    0.000000    0.000000
     0.000000   11.286700    0.000000
     0.000000    0.000000   15.000000
   C    N    Ag   Cu
    24    32     1     2
Direct configuration=     1
   0.07054120  0.38816457  0.22227495
   0.98151180  0.21832942  0.16785344
   0.22877304  0.39667288  0.18904348
   0.82472337  0.57572318  0.18403191
   0.14970601  0.24663792  0.12277753
   0.90758628  0.38434512  0.21811946
   0.56886571  0.39316130  0.23173729
   0.47768100  0.22391730  0.18017943
   0.73035049  0.39802658  0.19909345
   0.31101118  0.58132963  0.17977696
   0.64681854  0.25040749  0.13377315
   0.40275100  0.39355427  0.22106508
   0.81808056  0.88988957  0.05647519
   0.73319531  0.72568325  0.12448457
   0.97932824  0.89597624  0.07999408
   0.06867909  0.07698375  0.09423854
   0.90528082  0.74258583  0.14719628
   0.65472406  0.89333727  0.07691603
   0.31825350  0.89473226  0.05377466
   0.22716619  0.72126926  0.10084126
   0.47498917  0.90396535  0.09489577
   0.56592959  0.08075138  0.11024766
   0.38612516  0.76037560  0.16363174
   0.15509033  0.88950396  0.05271529
   0.98784551  0.43883046  0.24713656
   0.89991795  0.26975381  0.19549767
   0.15759857  0.43325808  0.24240148
   0.14788829  0.14353661  0.08017307
   0.98633649  0.10796021  0.13653167
   0.22915942  0.31533454  0.12527490
   0.06735802  0.28598388  0.16888911
   0.82274912  0.45552252  0.21014877
   0.48493735  0.44793349  0.25146232
   0.39648714  0.27665554  0.20625030
   0.65756919  0.43524210  0.25419888
   0.64488604  0.14640144  0.09374788
   0.48286722  0.11321356  0.15081376
   0.72606390  0.31870920  0.13454719
   0.56470606  0.29135323  0.18008364
   0.31888640  0.46086995  0.20329135
   0.73287748  0.94248397  0.03965616
   0.64891188  0.78317499  0.11254597
   0.90382696  0.93469024  0.03189926
   0.90701680  0.63807548  0.18754912
   0.73647441  0.61699787  0.15934394
   0.98321706  0.81212363  0.14197152
   0.81925020  0.78400528  0.10639513
   0.56804185  0.96074410  0.08520074
   0.23699719  0.94478449  0.02657725
   0.14820250  0.77173059  0.06843984
   0.40793432  0.93556381  0.03646331
   0.38047481  0.65838217  0.20939239
   0.23501053  0.60894863  0.12850628
   0.46527775  0.83024755  0.16578047
   0.31113112  0.79334051  0.10891910
   0.06990262  0.95754122  0.06514651
   0.57736557  0.77647674  0.24193941
   0.65582252  0.60772566  0.29790490
   0.48700699  0.61617049  0.29396059
slab_Cel1-OPT                           
           1
    13.753356    0.000000    0.000000
     0.000000   11.274428    0.000000
     0.000000    0.000000   15.000000
   C    N    Ag   Cu
    24    32     1     2
Direct configuration=     2
   0.07051717  0.38814948  0.22225620
   0.98153080  0.21838851  0.16786828
   0.22875703  0.39668790  0.18901691
   0.82473311  0.57578799  0.18408047
   0.14970000  0.24669098  0.12280844
   0.90756589  0.38438327  0.21811251
   0.56881543  0.39315713  0.23171056
   0.47765858  0.22404242  0.18020840
   0.73030516  0.39809579  0.19911099
   0.31094495  0.58142990  0.17978555
   0.64680873  0.25053381  0.13382873
   0.40276731  0.39360012  0.22107585
   0.81807109  0.88991372  0.05647631
   0.73329435  0.72572227  0.12438150
   0.97932425  0.89603698  0.07999472
   0.06866207  0.07704832  0.09422397
   0.90528696  0.74267448  0.14715436
   0.65476401  0.89338950  0.07687512
   0.31819966  0.89474613  0.05380276
   0.22716978  0.72132139  0.10082268
   0.47489548  0.90402395  0.09489376
   0.56591850  0.08088729  0.11021141
   0.38603503  0.76043641  0.16353435
   0.15502562  0.88952488  0.05273147
   0.98788939  0.43882052  0.24713360
   0.89989196  0.26974380  0.19550744
   0.15764488  0.43325837  0.24240797
   0.14786754  0.14350416  0.08017096
   0.98637993  0.10794529  0.13651702
   0.22917180  0.31530081  0.12524704
   0.06736494  0.28599098  0.16890033
   0.82275407  0.45541754  0.21019411
   0.48495795  0.44793470  0.25142482
   0.39650070  0.27659447  0.20621676
   0.65764955  0.43523202  0.25416314
   0.64484962  0.14629798  0.09373228
   0.48291390  0.11311270  0.15079729
   0.72602747  0.31864936  0.13449377
   0.56470406  0.29130128  0.18007032
   0.31886686  0.46076989  0.20330634
   0.73294721  0.94249977  0.03966235
   0.64937116  0.78320140  0.11176806
   0.90383692  0.93468171  0.03190537
   0.90697718  0.63795466  0.18756485
   0.73650868  0.61693890  0.15931214
   0.98321193  0.81205742  0.14198286
   0.81923533  0.78395130  0.10645498
   0.56801255  0.96065237  0.08516113
   0.23707208  0.94480096  0.02657471
   0.14819456  0.77170171  0.06840984
   0.40799328  0.93557914  0.03645809
   0.38043974  0.65833456  0.20934041
   0.23504388  0.60890175  0.12851312
   0.46396730  0.83084733  0.16493922
   0.31113615  0.79332031  0.10892897
   0.06989420  0.95745111  0.06513267
   0.57833788  0.77737007  0.24329530
   0.65624918  0.60693541  0.29826699
   0.48654607  0.61536300  0.29425808
slab_Cel1-OPT                           
           1
    13.735595    0.000000    0.000000
     0.000000   11.240093    0.000000
     0.000000    0.000000   15.000000
   C    N    Ag   Cu
    24    32     1     2
Direct configuration=     3
   0.07044988  0.38810720  0.22220375
   0.98158399  0.21855400  0.16790979
   0.22871224  0.39672995  0.18894257
   0.82476038  0.57596952  0.18421634
   0.14968318  0.24683961  0.12289494
   0.90750882  0.38449015  0.21809305
   0.56867469  0.39314546  0.23163577
   0.47759582  0.22439289  0.18028945
   0.73017825  0.39828967  0.19916004
   0.31075955  0.58171078  0.17980959
   0.64678125  0.25088765  0.13398427
   0.40281296  0.39372855  0.22110601
   0.81804459  0.88998135  0.05647944
   0.73357160  0.72583158  0.12409312
   0.97931311  0.89620714  0.07999652
   0.06861440  0.07722917  0.09418322
   0.90530415  0.74292281  0.14703707
   0.65487586  0.89353577  0.07676066
   0.31804895  0.89478496  0.05388139
   0.22717986  0.72146739  0.10077068
   0.47463322  0.90418808  0.09488815
   0.56588743  0.08126799  0.11010996
   0.38578272  0.76060674  0.16326187
   0.15484448  0.88958348  0.05277675
   0.98801222  0.43879267  0.24712532
   0.89981920  0.26971577  0.19553479
   0.15777453  0.43325919  0.24242613
   0.14780948  0.14341327  0.08016505
   0.98650152  0.10790350  0.13647603
   0.22920645  0.31520634  0.12516907
   0.06738433  0.28601086  0.16893171
   0.82276792  0.45512351  0.21032097
   0.48501562  0.44793808  0.25131991
   0.39653866  0.27642341  0.20612290
   0.65787452  0.43520379  0.25406312
   0.64474766  0.14600819  0.09368862
   0.48304456  0.11283018  0.15075122
   0.72592551  0.31848176  0.13434429
   0.56469846  0.29115579  0.18003305
   0.31881216  0.46048963  0.20334827
   0.73314238  0.94254403  0.03967968
   0.65065684  0.78327539  0.10959150
   0.90386483  0.93465783  0.03192248
   0.90686627  0.63761623  0.18760884
   0.73660462  0.61677375  0.15922319
   0.98319754  0.81187196  0.14201457
   0.81919369  0.78380011  0.10662243
   0.56793055  0.96039542  0.08505033
   0.23728172  0.94484710  0.02656760
   0.14817231  0.77162079  0.06832589
   0.40815831  0.93562210  0.03644349
   0.38034158  0.65820121  0.20919496
   0.23513723  0.60877042  0.12853224
   0.46029899  0.83252733  0.16258539
   0.31115023  0.79326374  0.10895660
   0.06987061  0.95719872  0.06509396
   0.58105966  0.77987233  0.24708907
   0.65744351  0.60472188  0.29928012
   0.48525582  0.61310122  0.29509047
slab_Cel1-OPT                           
           1
    13.742502    0.000000    0.000000
     0.000000   11.233299    0.000000
     0.000000    0.000000   15.000000
   C    N    Ag   Cu
    24    32     1     2
Direct configuration=     4
   0.07053722  0.38815874  0.22220564
   0.98157089  0.21853378  0.16791831
   0.22875005  0.39673354  0.18891978
   0.82472276  0.57589111  0.18435312
   0.14969362  0.24681276  0.12286410
   0.90747873  0.38452966  0.21811686
   0.56877142  0.39317320  0.23160807
   0.47763430  0.22414854  0.18021188
   0.73025594  0.39824621  0.19906983
   0.31070585  0.58161192  0.17988272
   0.64672211  0.25070731  0.13389495
   0.40268627  0.39375416  0.22109797
   0.81802655  0.88999963  0.05650622
   0.73380324  0.72561363  0.12388498
   0.97930602  0.89620773  0.08000960
   0.06860553  0.07719146  0.09410579
   0.90524589  0.74280748  0.14708630
   0.65496711  0.89383519  0.07650273
   0.31824418  0.89483327  0.05393843
   0.22719970  0.72146269  0.10073830
   0.47432663  0.90483042  0.09423320
   0.56580916  0.08117069  0.11000314
   0.38498924  0.76032729  0.16298313
   0.15485730  0.88962610  0.05274560
   0.98800268  0.43889574  0.24717733
   0.89975751  0.26959391  0.19554908
   0.15779340  0.43327488  0.24247917
   0.14785483  0.14343772  0.08013089
   0.98645616  0.10787263  0.13649684
   0.22926953  0.31518240  0.12509612
   0.06739175  0.28604998  0.16894535
   0.82273275  0.45512522  0.21042452
   0.48504160  0.44797773  0.25131950
   0.39644142  0.27636254  0.20613006
   0.65784059  0.43517257  0.25408770
   0.64485297  0.14616879  0.09366658
   0.48297649  0.11284833  0.15083372
   0.72598013  0.31858298  0.13431396
   0.56468038  0.29121940  0.18005837
   0.31880350  0.46053119  0.20338046
   0.73331208  0.94289677  0.03958257
   0.65064407  0.78286949  0.10872315
   0.90394646  0.93470151  0.03187022
   0.90697841  0.63762084  0.18760703
   0.73648650  0.61673794  0.15913150
   0.98330211  0.81188121  0.14202101
   0.81944621  0.78391758  0.10668260
   0.56795340  0.96031100  0.08501176
   0.23715288  0.94499024  0.02651347
   0.14806270  0.77151166  0.06824499
   0.40800138  0.93588624  0.03603805
   0.38046789  0.65827568  0.20923939
   0.23504520  0.60871088  0.12845738
   0.46022537  0.83280363  0.16284688
   0.31064495  0.79313780  0.10876497
   0.06984111  0.95722214  0.06504982
   0.58209800  0.78143923  0.24904734
   0.65800998  0.60348149  0.29990485
   0.48475677  0.61219150  0.29547034
slab_Cel1-OPT                           
           1
    13.754999    0.000000    0.000000
     0.000000   11.221007    0.000000
     0.000000    0.000000   15.000000
   C    N    Ag   Cu
    24    32     1     2
Direct configuration=     5
   0.07069517  0.38825206  0.22220907
   0.98154720  0.21849718  0.16793373
   0.22881843  0.39674005  0.18887854
   0.82465471  0.57574914  0.18460060
   0.14971250  0.24676415  0.12280831
   0.90742433  0.38460119  0.21815995
   0.56894634  0.39322341  0.23155797
   0.47770387  0.22370617  0.18007151
   0.73039644  0.39816754  0.19890659
   0.31060874  0.58143295  0.18001503
   0.64661517  0.25038081  0.13373335
   0.40245717  0.39380053  0.22108344
   0.81799393  0.89003273  0.05655467
   0.73422213  0.72521904  0.12350837
   0.97929320  0.89620880  0.08003326
   0.06858948  0.07712319  0.09396570
   0.90514053  0.74259868  0.14717538
   0.65513215  0.89437728  0.07603605
   0.31859724  0.89492072  0.05404165
   0.22723559  0.72145417  0.10067971
   0.47377218  0.90599334  0.09304818
   0.56566763  0.08099453  0.10980987
   0.38355429  0.75982137  0.16247881
   0.15488048  0.88970326  0.05268924
   0.98798544  0.43908233  0.24727144
   0.89964594  0.26937329  0.19557495
   0.15782752  0.43330329  0.24257515
   0.14793685  0.14348199  0.08006909
   0.98637412  0.10781673  0.13653450
   0.22938361  0.31513907  0.12496413
   0.06740517  0.28612081  0.16897002
   0.82266916  0.45512833  0.21061188
   0.48508858  0.44804952  0.25131875
   0.39626555  0.27625234  0.20614301
   0.65777922  0.43511607  0.25413216
   0.64504342  0.14645956  0.09362669
   0.48285339  0.11288119  0.15098297
   0.72607891  0.31876624  0.13425909
   0.56464768  0.29133458  0.18010420
   0.31878786  0.46060642  0.20343872
   0.73361896  0.94353539  0.03940685
   0.65062098  0.78213463  0.10715203
   0.90409410  0.93478058  0.03177566
   0.90718122  0.63762920  0.18760375
   0.73627290  0.61667310  0.15896561
   0.98349122  0.81189796  0.14203267
   0.81990288  0.78413025  0.10679147
   0.56799471  0.96015816  0.08494199
   0.23691989  0.94524938  0.02641554
   0.14786447  0.77131407  0.06809861
   0.40771757  0.93636446  0.03530447
   0.38069631  0.65841051  0.20931978
   0.23487876  0.60860309  0.12832195
   0.46009223  0.83330386  0.16331999
   0.30973118  0.79290980  0.10841825
   0.06978776  0.95726456  0.06496994
   0.58397576  0.78427598  0.25259052
   0.65903440  0.60123585  0.30103519
   0.48385426  0.61054452  0.29615764
slab_Cel1-OPT                           
           1
    13.753502    0.000000    0.000000
     0.000000   11.219048    0.000000
     0.000000    0.000000   15.000000
   C    N    Ag   Cu
    24    32     1     2
Direct configuration=     6
   0.07066844  0.38843978  0.22229466
   0.98149463  0.21845606  0.16795546
   0.22881829  0.39667336  0.18889062
   0.82456238  0.57578843  0.18474682
   0.14973841  0.24678026  0.12275419
   0.90753700  0.38452407  0.21826103
   0.56896777  0.39330327  0.23154595
   0.47753313  0.22387622  0.18017528
   0.73044445  0.39804448  0.19885341
   0.31055189  0.58130208  0.18009464
   0.64671906  0.25063256  0.13372131
   0.40250205  0.39360502  0.22109065
   0.81829990  0.89029033  0.05651080
   0.73405812  0.72526344  0.12297256
   0.97928082  0.89612519  0.08001421
   0.06853617  0.07708225  0.09389619
   0.90540510  0.74277710  0.14722841
   0.65527939  0.89409777  0.07560898
   0.31799544  0.89533764  0.05368439
   0.22664321  0.72128379  0.10040041
   0.47366501  0.90569483  0.09320365
   0.56569635  0.08084053  0.10966510
   0.38383399  0.76040155  0.16237928
   0.15487338  0.88967313  0.05260235
   0.98797588  0.43917428  0.24730434
   0.89962693  0.26928760  0.19561196
   0.15792208  0.43332056  0.24261264
   0.14792345  0.14341737  0.07998136
   0.98640066  0.10768560  0.13648974
   0.22942312  0.31519962  0.12491773
   0.06743595  0.28615552  0.16894200
   0.82262726  0.45524070  0.21078368
   0.48505516  0.44794595  0.25130639
   0.39626491  0.27612178  0.20611554
   0.65778972  0.43496847  0.25415880
   0.64494295  0.14622827  0.09349393
   0.48291293  0.11252068  0.15088852
   0.72603995  0.31878661  0.13416816
   0.56465469  0.29127915  0.18002371
   0.31867390  0.46074068  0.20348877
   0.73386283  0.94422961  0.03928908
   0.65030796  0.78144313  0.10638749
   0.90410906  0.93479840  0.03169701
   0.90714682  0.63737024  0.18766115
   0.73634306  0.61639102  0.15894115
   0.98352239  0.81181317  0.14208508
   0.82007467  0.78429255  0.10690072
   0.56795063  0.96054143  0.08475818
   0.23709146  0.94529713  0.02646656
   0.14776159  0.77114051  0.06798235
   0.40712921  0.93696494  0.03428965
   0.38048714  0.65831036  0.20931469
   0.23489536  0.60838411  0.12836268
   0.46066777  0.83324958  0.16386216
   0.30930515  0.79298968  0.10806833
   0.06977799  0.95739645  0.06487145
   0.58480454  0.78605011  0.25502956
   0.65943222  0.59995754  0.30186795
   0.48371711  0.61010347  0.29650479
slab_Cel1-OPT                           
           1
    13.752234    0.000000    0.000000
     0.000000   11.217390    0.000000
     0.000000    0.000000   15.000000
   C    N    Ag   Cu
    24    32     1     2
Direct configuration=     7
   0.07064582  0.38859866  0.22236710
   0.98145014  0.21842125  0.16797386
   0.22881818  0.39661692  0.18890085
   0.82448423  0.57582169  0.18487057
   0.14976034  0.24679389  0.12270839
   0.90763236  0.38445879  0.21834657
   0.56898590  0.39337087  0.23153578
   0.47738861  0.22402016  0.18026309
   0.73048508  0.39794032  0.19880840
   0.31050377  0.58119131  0.18016201
   0.64680699  0.25084564  0.13371113
   0.40254004  0.39343953  0.22109675
   0.81855885  0.89050835  0.05647368
   0.73391932  0.72530101  0.12251913
   0.97927033  0.89605442  0.07999810
   0.06849106  0.07704760  0.09383736
   0.90562901  0.74292812  0.14727328
   0.65540402  0.89386120  0.07524757
   0.31748612  0.89569051  0.05338207
   0.22614184  0.72113957  0.10016406
   0.47357430  0.90544217  0.09333521
   0.56572066  0.08071018  0.10954259
   0.38407072  0.76089262  0.16229505
   0.15486736  0.88964763  0.05252882
   0.98796779  0.43925210  0.24733217
   0.89961084  0.26921507  0.19564327
   0.15800211  0.43333517  0.24264437
   0.14791211  0.14336267  0.07990712
   0.98642313  0.10757461  0.13645186
   0.22945656  0.31525088  0.12487846
   0.06746200  0.28618490  0.16891828
   0.82259180  0.45533580  0.21092907
   0.48502687  0.44785829  0.25129593
   0.39626436  0.27601127  0.20609228
   0.65779861  0.43484355  0.25418134
   0.64485792  0.14603252  0.09338159
   0.48296332  0.11221555  0.15080858
   0.72600698  0.31880385  0.13409121
   0.56466063  0.29123224  0.17995560
   0.31857745  0.46085433  0.20353112
   0.73406922  0.94481721  0.03918941
   0.65004303  0.78085784  0.10574050
   0.90412171  0.93481349  0.03163045
   0.90711771  0.63715105  0.18770973
   0.73640245  0.61615227  0.15892045
   0.98354877  0.81174140  0.14212943
   0.82022007  0.78442991  0.10699317
   0.56791331  0.96086582  0.08460263
   0.23723667  0.94533755  0.02650973
   0.14767451  0.77099361  0.06788395
   0.40663125  0.93747318  0.03343086
   0.38031010  0.65822560  0.20931037
   0.23490942  0.60819877  0.12839716
   0.46115488  0.83320363  0.16432097
   0.30894457  0.79305728  0.10777221
   0.06976972  0.95750808  0.06478810
   0.58550598  0.78755173  0.25709360
   0.65976892  0.59887558  0.30257268
   0.48360103  0.60973017  0.29679856
slab_Cel1-OPT                           
           1
    13.739931    0.000000    0.000000
     0.000000   11.209721    0.000000
     0.000000    0.000000   15.000000
   C    N    Ag   Cu
    24    32     1     2
Direct configuration=     8
   0.07067974  0.38875247  0.22245274
   0.98150143  0.21825896  0.16794364
   0.22881389  0.39658306  0.18893685
   0.82441658  0.57602239  0.18499312
   0.14977482  0.24678477  0.12261181
   0.90765579  0.38440143  0.21850029
   0.56888693  0.39330615  0.23146999
   0.47744985  0.22363554  0.18017898
   0.73052234  0.39793812  0.19890456
   0.31042687  0.58141775  0.18013033
   0.64672424  0.25063865  0.13352229
   0.40252636  0.39338363  0.22111725
   0.81871492  0.89088362  0.05642099
   0.73363536  0.72490329  0.12198001
   0.97937920  0.89602730  0.07992500
   0.06848529  0.07711505  0.09376108
   0.90573659  0.74270180  0.14750130
   0.65542714  0.89345298  0.07461856
   0.31724427  0.89584533  0.05293968
   0.22584030  0.72043652  0.10002657
   0.47302253  0.90513057  0.09330024
   0.56576727  0.08078905  0.10945626
   0.38462150  0.76137067  0.16247848
   0.15479210  0.88964312  0.05234156
   0.98797389  0.43933407  0.24738995
   0.89962383  0.26923708  0.19573960
   0.15802034  0.43333458  0.24270494
   0.14785044  0.14333644  0.07980135
   0.98641927  0.10749916  0.13642388
   0.22945267  0.31533400  0.12484508
   0.06743487  0.28625755  0.16889678
   0.82262485  0.45518895  0.21120331
   0.48495775  0.44762087  0.25128564
   0.39614477  0.27592423  0.20610933
   0.65793397  0.43451594  0.25418075
   0.64480217  0.14615011  0.09327368
   0.48295936  0.11216310  0.15079764
   0.72605738  0.31885662  0.13392927
   0.56466057  0.29125744  0.17985744
   0.31859341  0.46056892  0.20368439
   0.73428112  0.94531094  0.03925547
   0.64953989  0.78027375  0.10493571
   0.90445295  0.93488598  0.03151968
   0.90709683  0.63709743  0.18771318
   0.73642125  0.61627569  0.15869029
   0.98377469  0.81186510  0.14214790
   0.82007175  0.78475204  0.10705560
   0.56786955  0.96067953  0.08417886
   0.23639372  0.94576023  0.02635089
   0.14705150  0.77115061  0.06747663
   0.40676726  0.93751672  0.03310658
   0.38001537  0.65859892  0.20913900
   0.23479793  0.60799424  0.12838803
   0.46202462  0.83315117  0.16462112
   0.30928970  0.79334572  0.10757232
   0.06979401  0.95739531  0.06462331
   0.58619731  0.78926599  0.26013308
   0.65986734  0.59783742  0.30359453
   0.48389924  0.60993133  0.29704083
slab_Cel1-OPT                           
           1
    13.725648    0.000000    0.000000
     0.000000   11.200818    0.000000
     0.000000    0.000000   15.000000
   C    N    Ag   Cu
    24    32     1     2
Direct configuration=     9
   0.07071917  0.38893116  0.22255218
   0.98156103  0.21807043  0.16790857
   0.22880892  0.39654372  0.18897865
   0.82433797  0.57625555  0.18513540
   0.14979164  0.24677418  0.12249968
   0.90768301  0.38433480  0.21867874
   0.56877194  0.39323096  0.23139361
   0.47752100  0.22318871  0.18008133
   0.73056562  0.39793555  0.19901620
   0.31033751  0.58168081  0.18009355
   0.64662808  0.25039818  0.13330306
   0.40251046  0.39331869  0.22114105
   0.81889627  0.89131958  0.05635981
   0.73330541  0.72444125  0.12135412
   0.97950570  0.89599579  0.07984015
   0.06847858  0.07719341  0.09367252
   0.90586161  0.74243889  0.14776602
   0.65545401  0.89297873  0.07388831
   0.31696325  0.89602520  0.05242609
   0.22548992  0.71961975  0.09986695
   0.47238138  0.90476857  0.09325963
   0.56582143  0.08088067  0.10935604
   0.38526150  0.76192605  0.16269144
   0.15470464  0.88963788  0.05212416
   0.98798097  0.43942929  0.24745702
   0.89963893  0.26926264  0.19585143
   0.15804153  0.43333389  0.24277526
   0.14777877  0.14330597  0.07967856
   0.98641479  0.10741151  0.13639140
   0.22944815  0.31543057  0.12480633
   0.06740334  0.28634196  0.16887181
   0.82266325  0.45501834  0.21152168
   0.48487743  0.44734506  0.25127370
   0.39600580  0.27582311  0.20612912
   0.65809125  0.43413534  0.25418007
   0.64473738  0.14628673  0.09314840
   0.48295477  0.11210217  0.15078494
   0.72611594  0.31891792  0.13374127
   0.56466051  0.29128672  0.17974348
   0.31861196  0.46023735  0.20386233
   0.73452735  0.94588452  0.03933215
   0.64895525  0.77959519  0.10400141
   0.90483785  0.93497019  0.03139108
   0.90707256  0.63703515  0.18771718
   0.73644310  0.61641906  0.15842308
   0.98403721  0.81200881  0.14216935
   0.81989941  0.78512626  0.10712807
   0.56781870  0.96046310  0.08368689
   0.23541423  0.94625128  0.02616649
   0.14632757  0.77133301  0.06700374
   0.40692529  0.93756730  0.03273011
   0.37967289  0.65903261  0.20894004
   0.23466839  0.60775662  0.12837744
   0.46303525  0.83309023  0.16496957
   0.30969072  0.79368081  0.10734027
   0.06982224  0.95726430  0.06443199
   0.58700062  0.79125751  0.26366174
   0.65998171  0.59663135  0.30478085
   0.48424576  0.61016503  0.29732210
slab_Cel1-OPT                           
           1
    13.706521    0.000000    0.000000
     0.000000   11.189914    0.000000
     0.000000    0.000000   15.000000
   C    N    Ag   Cu
    24    32     1     2
Direct configuration=    10
   0.07068593  0.38884402  0.22254158
   0.98157223  0.21813891  0.16797180
   0.22885552  0.39649745  0.18906150
   0.82415332  0.57618632  0.18527895
   0.14972878  0.24688138  0.12242068
   0.90760508  0.38431506  0.21888093
   0.56879918  0.39292540  0.23125440
   0.47742378  0.22315488  0.18011825
   0.73066686  0.39761801  0.19893380
   0.31038813  0.58170558  0.18013131
   0.64668218  0.25065698  0.13318646
   0.40230945  0.39307723  0.22111688
   0.81890234  0.89157940  0.05641888
   0.73292012  0.72428625  0.12071474
   0.97985649  0.89598312  0.07977706
   0.06846891  0.07694759  0.09348535
   0.90576489  0.74283660  0.14774804
   0.65506800  0.89267771  0.07319805
   0.31678992  0.89614320  0.05184843
   0.22528690  0.71999303  0.09943176
   0.47266112  0.90492689  0.09307543
   0.56576618  0.08035541  0.10912506
   0.38548867  0.76209684  0.16289679
   0.15391129  0.88952123  0.05190376
   0.98803435  0.43960364  0.24764367
   0.89970726  0.26911674  0.19598214
   0.15810483  0.43340734  0.24293218
   0.14782633  0.14349249  0.07951181
   0.98630705  0.10728840  0.13638233
   0.22944681  0.31548088  0.12470696
   0.06740620  0.28637426  0.16881704
   0.82264840  0.45509120  0.21184997
   0.48490602  0.44741153  0.25141600
   0.39601388  0.27541859  0.20612132
   0.65804959  0.43377457  0.25433376
   0.64481345  0.14635910  0.09284226
   0.48292756  0.11183228  0.15071596
   0.72618852  0.31905094  0.13359426
   0.56456859  0.29111591  0.17953298
   0.31869601  0.46035592  0.20401547
   0.73455177  0.94601400  0.03953303
   0.64852001  0.77907478  0.10299310
   0.90525982  0.93513882  0.03114605
   0.90724390  0.63698029  0.18783466
   0.73634134  0.61637011  0.15809940
   0.98417289  0.81195500  0.14232710
   0.81964751  0.78533673  0.10723027
   0.56766169  0.95997593  0.08307080
   0.23516521  0.94682518  0.02578236
   0.14620402  0.77073305  0.06668455
   0.40706074  0.93693508  0.03308694
   0.37967954  0.65967173  0.20895443
   0.23421387  0.60737511  0.12825423
   0.46379083  0.83314888  0.16487536
   0.31023743  0.79381855  0.10722571
   0.06967695  0.95733554  0.06427443
   0.58766001  0.79287804  0.26746623
   0.65973877  0.59598866  0.30604711
   0.48493441  0.61101164  0.29737389
slab_Cel1-OPT                           
           1
    13.689950    0.000000    0.000000
     0.000000   11.180467    0.000000
     0.000000    0.000000   15.000000
   C    N    Ag   Cu
    24    32     1     2
Direct configuration=    11
   0.07065710  0.38876845  0.22253241
   0.98158196  0.21819830  0.16802658
   0.22889596  0.39645732  0.18913328
   0.82399312  0.57612629  0.18540332
   0.14967425  0.24697435  0.12235223
   0.90753747  0.38429794  0.21905610
   0.56882282  0.39266042  0.23113379
   0.47733944  0.22312555  0.18015023
   0.73075468  0.39734263  0.19886242
   0.31043205  0.58172706  0.18016402
   0.64672911  0.25088142  0.13308544
   0.40213505  0.39286783  0.22109594
   0.81890761  0.89180473  0.05647006
   0.73258584  0.72415183  0.12016079
   0.98016084  0.89597213  0.07972241
   0.06846052  0.07673440  0.09332319
   0.90568098  0.74318150  0.14773246
   0.65473311  0.89241665  0.07260002
   0.31663954  0.89624553  0.05134795
   0.22511077  0.72031674  0.09905471
   0.47290382  0.90506419  0.09291584
   0.56571824  0.07989989  0.10892495
   0.38568576  0.76224495  0.16307471
   0.15322298  0.88942007  0.05171281
   0.98808065  0.43975484  0.24780539
   0.89976655  0.26899021  0.19609538
   0.15815975  0.43347104  0.24306813
   0.14786760  0.14365424  0.07936734
   0.98621357  0.10718163  0.13637447
   0.22944564  0.31552452  0.12462086
   0.06740869  0.28640227  0.16876960
   0.82263552  0.45515438  0.21213439
   0.48493083  0.44746917  0.25153929
   0.39602089  0.27506778  0.20611456
   0.65801344  0.43346171  0.25446691
   0.64487945  0.14642187  0.09257702
   0.48290395  0.11159823  0.15065619
   0.72625148  0.31916630  0.13346690
   0.56448885  0.29096779  0.17935061
   0.31876894  0.46045874  0.20414816
   0.73457296  0.94612628  0.03970708
   0.64814240  0.77862346  0.10211951
   0.90562593  0.93528505  0.03093376
   0.90739256  0.63693271  0.18793644
   0.73625306  0.61632766  0.15781897
   0.98429061  0.81190834  0.14246378
   0.81942897  0.78551925  0.10731881
   0.56752547  0.95955345  0.08253703
   0.23494916  0.94732289  0.02544955
   0.14609683  0.77021274  0.06640800
   0.40717825  0.93638681  0.03339609
   0.37968530  0.66022599  0.20896690
   0.23381954  0.60704425  0.12814748
   0.46444637  0.83319974  0.16479375
   0.31071176  0.79393800  0.10712645
   0.06955090  0.95739732  0.06413793
   0.58823209  0.79428340  0.27076236
   0.65952801  0.59543130  0.30714418
   0.48553188  0.61174584  0.29741876
slab_Cel1-OPT                           
           1
    13.677892    0.000000    0.000000
     0.000000   11.167274    0.000000
     0.000000    0.000000   15.000000
   C    N    Ag   Cu
    24    32     1     2
Direct configuration=    12
   0.07070831  0.38867531  0.22257987
   0.98165032  0.21805360  0.16803430
   0.22894910  0.39648329  0.18919454
   0.82397487  0.57631448  0.18546752
   0.14960477  0.24714116  0.12222695
   0.90752928  0.38442182  0.21937098
   0.56871798  0.39245131  0.23114511
   0.47742202  0.22270895  0.18000874
   0.73080768  0.39721194  0.19898320
   0.31025930  0.58212367  0.17999309
   0.64666553  0.25074298  0.13272554
   0.40217093  0.39277692  0.22121882
   0.81904480  0.89191860  0.05660563
   0.73218923  0.72408101  0.11963253
   0.98009439  0.89580854  0.07976740
   0.06841723  0.07704027  0.09320853
   0.90520984  0.74342433  0.14773739
   0.65415255  0.89197896  0.07201427
   0.31668613  0.89601338  0.05115603
   0.22600889  0.72050581  0.09900857
   0.47387592  0.90472936  0.09314031
   0.56580012  0.07948564  0.10851472
   0.38594740  0.76301114  0.16284108
   0.15308079  0.88932938  0.05112065
   0.98806737  0.43983662  0.24810518
   0.89957661  0.26891381  0.19640158
   0.15823166  0.43343567  0.24328364
   0.14787512  0.14370653  0.07905906
   0.98610816  0.10701323  0.13636291
   0.22960382  0.31577989  0.12455120
   0.06738480  0.28647400  0.16872946
   0.82241334  0.45518441  0.21247348
   0.48494845  0.44758426  0.25170242
   0.39569046  0.27472666  0.20625253
   0.65804408  0.43297435  0.25463950
   0.64490956  0.14634201  0.09215145
   0.48287770  0.11099498  0.15053604
   0.72652537  0.31939525  0.13320243
   0.56440377  0.29084782  0.17909927
   0.31881983  0.46074731  0.20425810
   0.73428441  0.94603819  0.03985710
   0.64772676  0.77811700  0.10077717
   0.90572331  0.93524613  0.03070366
   0.90745461  0.63718339  0.18801629
   0.73589196  0.61587982  0.15738263
   0.98443579  0.81208732  0.14258212
   0.81935724  0.78581482  0.10736845
   0.56757651  0.95950684  0.08168672
   0.23490145  0.94728365  0.02500155
   0.14596939  0.76980495  0.06586051
   0.40703890  0.93586902  0.03357897
   0.37993483  0.66008870  0.20955321
   0.23354111  0.60714499  0.12796110
   0.46486778  0.83318881  0.16447900
   0.31036081  0.79380040  0.10675524
   0.06933577  0.95736584  0.06397431
   0.58884057  0.79588011  0.27530322
   0.65900316  0.59523284  0.30865815
   0.48646900  0.61316791  0.29717421
slab_Cel1-OPT                           
           1
    13.671564    0.000000    0.000000
     0.000000   11.160351    0.000000
     0.000000    0.000000   15.000000
   C    N    Ag   Cu