  58  58   0   0
  0.4559061E+02  0.1426590E-08  0.1235700E-08  0.1500000E-08  0.1000000E-15
  1.000000000000000E-004
  CAR 
 slab_Cel1-OPT                           
      4.38728890    -28.15613524  301     -2.67169183      1.00000000
    -28.156  0.0000E+00  0.0000E+00
    -28.048  0.0000E+00  0.0000E+00
    -27.939  0.0000E+00  0.0000E+00
    -27.831  0.0000E+00  0.0000E+00
    -27.722  0.0000E+00  0.0000E+00
    -27.614  0.0000E+00  0.0000E+00
    -27.505  0.0000E+00  0.0000E+00
    -27.397  0.0000E+00  0.0000E+00
    -27.288  0.0000E+00  0.0000E+00
    -27.180  0.4736E-14  0.5137E-15
    -27.071  0.1140E-09  0.1237E-10
    -26.963  0.2837E-06  0.3078E-07
    -26.854  0.7597E-04  0.8272E-05
    -26.746  0.2370E-02  0.2653E-03
    -26.637  0.9735E-02  0.1321E-02
    -26.529  0.6482E-02  0.2025E-02
    -26.420  0.9045E-02  0.3006E-02
    -26.312  0.2120E-01  0.5306E-02
    -26.204  0.1801E-01  0.7260E-02
    -26.095  0.6332E-02  0.7947E-02
    -25.987  0.4874E-03  0.7999E-02
    -25.878  0.5205E-05  0.8000E-02
    -25.770  0.8063E-08  0.8000E-02
    -25.661  0.1784E-05  0.8000E-02
    -25.553  0.2199E-03  0.8024E-02
    -25.444  0.3637E-02  0.8419E-02
    -25.336  0.1151E-01  0.9667E-02
    -25.227  0.1451E-01  0.1124E-01
    -25.119  0.1208E-01  0.1255E-01
    -25.010  0.9227E-02  0.1355E-01
    -24.902  0.9455E-02  0.1458E-01
    -24.793  0.7103E-02  0.1535E-01
    -24.685  0.1347E-02  0.1550E-01
    -24.576  0.5398E-04  0.1550E-01
    -24.468  0.5508E-03  0.1556E-01
    -24.359  0.3841E-02  0.1598E-01
    -24.251  0.1392E-01  0.1749E-01
    -24.142  0.2364E-01  0.2005E-01
    -24.034  0.2310E-01  0.2256E-01
    -23.925  0.1519E-01  0.2421E-01
    -23.817  0.2635E-02  0.2449E-01
    -23.709  0.1275E-03  0.2451E-01
    -23.600  0.1675E-02  0.2469E-01
    -23.492  0.7602E-02  0.2551E-01
    -23.383  0.7825E-02  0.2636E-01
    -23.275  0.8019E-02  0.2723E-01
    -23.166  0.1144E-01  0.2847E-01
    -23.058  0.1380E-01  0.2997E-01
    -22.949  0.1128E-01  0.3119E-01
    -22.841  0.5826E-02  0.3182E-01
    -22.732  0.1525E-02  0.3199E-01
    -22.624  0.9443E-04  0.3200E-01
    -22.515  0.5929E-04  0.3201E-01
    -22.407  0.2273E-02  0.3225E-01
    -22.298  0.1529E-01  0.3391E-01
    -22.190  0.2857E-01  0.3701E-01
    -22.081  0.2901E-01  0.4016E-01
    -21.973  0.3033E-01  0.4345E-01
    -21.864  0.2797E-01  0.4648E-01
    -21.756  0.1258E-01  0.4785E-01
    -21.647  0.1394E-02  0.4800E-01
    -21.539  0.1712E-03  0.4802E-01
    -21.430  0.3051E-02  0.4835E-01
    -21.322  0.1400E-01  0.4987E-01
    -21.214  0.2260E-01  0.5232E-01
    -21.105  0.2071E-01  0.5456E-01
    -20.997  0.1125E-01  0.5578E-01
    -20.888  0.6113E-02  0.5645E-01
    -20.780  0.1050E-01  0.5758E-01
    -20.671  0.8805E-02  0.5854E-01
    -20.563  0.1958E-01  0.6066E-01
    -20.454  0.1964E-01  0.6279E-01
    -20.346  0.9568E-02  0.6383E-01
    -20.237  0.1509E-02  0.6400E-01
    -20.129  0.4118E-04  0.6400E-01
    -20.020  0.1494E-06  0.6400E-01
    -19.912  0.6264E-10  0.6400E-01
    -19.803  0.2795E-14  0.6400E-01
    -19.695  0.0000E+00  0.6400E-01
    -19.586  0.0000E+00  0.6400E-01
    -19.478  0.0000E+00  0.6400E-01
    -19.369  0.0000E+00  0.6400E-01
    -19.261  0.0000E+00  0.6400E-01
    -19.152  0.0000E+00  0.6400E-01
    -19.044  0.0000E+00  0.6400E-01
    -18.935  0.0000E+00  0.6400E-01
    -18.827  0.0000E+00  0.6400E-01
    -18.719  0.0000E+00  0.6400E-01
    -18.610  0.0000E+00  0.6400E-01
    -18.502  0.0000E+00  0.6400E-01
    -18.393  0.0000E+00  0.6400E-01
    -18.285  0.9625E-14  0.6400E-01
    -18.176  0.1630E-09  0.6400E-01
    -18.068  0.2929E-06  0.6400E-01
    -17.959  0.6152E-04  0.6401E-01
    -17.851  0.1801E-02  0.6420E-01
    -17.742  0.9533E-02  0.6524E-01
    -17.634  0.1401E-01  0.6676E-01
    -17.525  0.1392E-01  0.6827E-01
    -17.417  0.1739E-01  0.7015E-01
    -17.308  0.2066E-01  0.7239E-01
    -17.200  0.1837E-01  0.7439E-01
    -17.091  0.1807E-01  0.7635E-01
    -16.983  0.1598E-01  0.7808E-01
    -16.874  0.7199E-02  0.7886E-01
    -16.766  0.2611E-02  0.7914E-01
    -16.657  0.4830E-02  0.7967E-01
    -16.549  0.2804E-02  0.7997E-01
    -16.441  0.2558E-03  0.8000E-01
    -16.332  0.3143E-05  0.8000E-01
    -16.224  0.1031E-05  0.8000E-01
    -16.115  0.1720E-03  0.8002E-01
    -16.007  0.4028E-02  0.8046E-01
    -15.898  0.1859E-01  0.8247E-01
    -15.790  0.2618E-01  0.8531E-01
    -15.681  0.1596E-01  0.8704E-01
    -15.573  0.4577E-02  0.8754E-01
    -15.464  0.2688E-02  0.8783E-01
    -15.356  0.2216E-02  0.8807E-01
    -15.247  0.4284E-02  0.8854E-01
    -15.139  0.3727E-02  0.8894E-01
    -15.030  0.8149E-03  0.8903E-01
    -14.922  0.2304E-02  0.8928E-01
    -14.813  0.5147E-02  0.8984E-01
    -14.705  0.6606E-02  0.9055E-01
    -14.596  0.1002E-01  0.9164E-01
    -14.488  0.1733E-01  0.9352E-01
    -14.379  0.1959E-01  0.9565E-01
    -14.271  0.1871E-01  0.9768E-01
    -14.162  0.2417E-01  0.1003E+00
    -14.054  0.2153E-01  0.1026E+00
    -13.946  0.2360E-01  0.1052E+00
    -13.837  0.2972E-01  0.1084E+00
    -13.729  0.2656E-01  0.1113E+00
    -13.620  0.1591E-01  0.1130E+00
    -13.512  0.1049E-01  0.1142E+00
    -13.403  0.4500E-02  0.1147E+00
    -13.295  0.6478E-02  0.1154E+00
    -13.186  0.8731E-02  0.1163E+00
    -13.078  0.7601E-02  0.1171E+00
    -12.969  0.8766E-02  0.1181E+00
    -12.861  0.3626E-02  0.1185E+00
    -12.752  0.3021E-03  0.1185E+00
    -12.644  0.6566E-03  0.1186E+00
    -12.535  0.3905E-02  0.1190E+00
    -12.427  0.1081E-01  0.1202E+00
    -12.318  0.2276E-01  0.1226E+00
    -12.210  0.2882E-01  0.1258E+00
    -12.101  0.2006E-01  0.1279E+00
    -11.993  0.1457E-01  0.1295E+00
    -11.884  0.1446E-01  0.1311E+00
    -11.776  0.1301E-01  0.1325E+00
    -11.667  0.1766E-01  0.1344E+00
    -11.559  0.1923E-01  0.1365E+00
    -11.451  0.1563E-01  0.1382E+00
    -11.342  0.1279E-01  0.1396E+00
    -11.234  0.6226E-02  0.1403E+00
    -11.125  0.8682E-02  0.1412E+00
    -11.017  0.1088E-01  0.1424E+00
    -10.908  0.8754E-02  0.1433E+00
    -10.800  0.1019E-01  0.1444E+00
    -10.691  0.1681E-01  0.1463E+00
    -10.583  0.1755E-01  0.1482E+00
    -10.474  0.1297E-01  0.1496E+00
    -10.366  0.1170E-01  0.1508E+00
    -10.257  0.9652E-02  0.1519E+00
    -10.149  0.1048E-01  0.1530E+00
    -10.040  0.1111E-01  0.1542E+00
     -9.932  0.1623E-01  0.1560E+00
     -9.823  0.2148E-01  0.1583E+00
     -9.715  0.1433E-01  0.1599E+00
     -9.606  0.1302E-01  0.1613E+00
     -9.498  0.1698E-01  0.1631E+00
     -9.389  0.1789E-01  0.1651E+00
     -9.281  0.2226E-01  0.1675E+00
     -9.172  0.1683E-01  0.1693E+00
     -9.064  0.5927E-02  0.1700E+00
     -8.956  0.5231E-03  0.1700E+00
     -8.847  0.1425E-02  0.1702E+00
     -8.739  0.4000E-02  0.1706E+00
     -8.630  0.7084E-02  0.1714E+00
     -8.522  0.9631E-02  0.1724E+00
     -8.413  0.1055E-01  0.1736E+00
     -8.305  0.1492E-01  0.1752E+00
     -8.196  0.1763E-01  0.1771E+00
     -8.088  0.8144E-02  0.1780E+00
     -7.979  0.6878E-02  0.1787E+00
     -7.871  0.1577E-01  0.1804E+00
     -7.762  0.2054E-01  0.1827E+00
     -7.654  0.3639E-01  0.1866E+00
     -7.545  0.3944E-01  0.1909E+00
     -7.437  0.3248E-01  0.1944E+00
     -7.328  0.3116E-01  0.1978E+00
     -7.220  0.2703E-01  0.2007E+00
     -7.111  0.1387E-01  0.2022E+00
     -7.003  0.1521E-01  0.2039E+00
     -6.894  0.2201E-01  0.2063E+00
     -6.786  0.2101E-01  0.2085E+00
     -6.677  0.2038E-01  0.2107E+00
     -6.569  0.2077E-01  0.2130E+00
     -6.461  0.1405E-01  0.2145E+00
     -6.352  0.1203E-01  0.2158E+00
     -6.244  0.1348E-01  0.2173E+00
     -6.135  0.5987E-02  0.2179E+00
     -6.027  0.9449E-03  0.2180E+00
     -5.918  0.6416E-02  0.2187E+00
     -5.810  0.2152E-01  0.2211E+00
     -5.701  0.3113E-01  0.2245E+00
     -5.593  0.3632E-01  0.2284E+00
     -5.484  0.3329E-01  0.2320E+00
     -5.376  0.2888E-01  0.2351E+00
     -5.267  0.2771E-01  0.2381E+00
     -5.159  0.2917E-01  0.2413E+00
     -5.050  0.2904E-01  0.2445E+00
     -4.942  0.2500E-01  0.2472E+00
     -4.833  0.2429E-01  0.2498E+00
     -4.725  0.1552E-01  0.2515E+00
     -4.616  0.2156E-01  0.2538E+00
     -4.508  0.3612E-01  0.2577E+00
     -4.399  0.2704E-01  0.2607E+00
     -4.291  0.1069E-01  0.2618E+00
     -4.182  0.1445E-02  0.2620E+00
     -4.074  0.9934E-04  0.2620E+00
     -3.966  0.2806E-02  0.2623E+00
     -3.857  0.1700E-01  0.2642E+00
     -3.749  0.1622E-01  0.2659E+00
     -3.640  0.1459E-01  0.2675E+00
     -3.532  0.2006E-01  0.2697E+00
     -3.423  0.1603E-01  0.2714E+00
     -3.315  0.2111E-01  0.2737E+00
     -3.206  0.1408E-01  0.2752E+00
     -3.098  0.6565E-02  0.2759E+00
     -2.989  0.2751E-02  0.2762E+00
     -2.881  0.9608E-02  0.2773E+00
     -2.772  0.6076E-02  0.2779E+00
     -2.664  0.5405E-03  0.2780E+00
     -2.555  0.6424E-03  0.2781E+00
     -2.447  0.4347E-02  0.2785E+00
     -2.338  0.6825E-02  0.2793E+00
     -2.230  0.1037E-01  0.2804E+00
     -2.121  0.1183E-01  0.2817E+00
     -2.013  0.1232E-01  0.2830E+00
     -1.904  0.1000E-01  0.2841E+00
     -1.796  0.5300E-02  0.2847E+00
     -1.687  0.1030E-01  0.2858E+00
     -1.579  0.1630E-01  0.2876E+00
     -1.471  0.1383E-01  0.2891E+00
     -1.362  0.1686E-01  0.2909E+00
     -1.254  0.1674E-01  0.2927E+00
     -1.145  0.8273E-02  0.2936E+00
     -1.037  0.4823E-02  0.2941E+00
     -0.928  0.1116E-01  0.2953E+00
     -0.820  0.1963E-01  0.2975E+00
     -0.711  0.2082E-01  0.2997E+00
     -0.603  0.1541E-01  0.3014E+00
     -0.494  0.4997E-02  0.3020E+00
     -0.386  0.4473E-03  0.3020E+00
     -0.277  0.6468E-05  0.3020E+00
     -0.169  0.1127E-07  0.3020E+00
     -0.060  0.2584E-09  0.3020E+00
      0.048  0.4852E-06  0.3020E+00
      0.157  0.1023E-03  0.3020E+00
      0.265  0.2660E-02  0.3023E+00
      0.374  0.9731E-02  0.3034E+00
      0.482  0.5484E-02  0.3040E+00
      0.591  0.6353E-03  0.3040E+00
      0.699  0.2863E-02  0.3043E+00
      0.808  0.8625E-02  0.3053E+00
      0.916  0.1005E-01  0.3064E+00
      1.024  0.1780E-01  0.3083E+00
      1.133  0.2450E-01  0.3109E+00
      1.241  0.2212E-01  0.3133E+00
      1.350  0.1916E-01  0.3154E+00
      1.458  0.2060E-01  0.3177E+00
      1.567  0.2296E-01  0.3201E+00
      1.675  0.1989E-01  0.3223E+00
      1.784  0.1962E-01  0.3244E+00
      1.892  0.1969E-01  0.3266E+00
      2.001  0.2035E-01  0.3288E+00
      2.109  0.1669E-01  0.3306E+00
      2.218  0.1153E-01  0.3318E+00
      2.326  0.1375E-01  0.3333E+00
      2.435  0.1624E-01  0.3351E+00
      2.543  0.1959E-01  0.3372E+00
      2.652  0.2022E-01  0.3394E+00
      2.760  0.1951E-01  0.3415E+00
      2.869  0.1554E-01  0.3432E+00
      2.977  0.6278E-02  0.3439E+00
      3.086  0.9394E-03  0.3440E+00
      3.194  0.2942E-04  0.3440E+00
      3.303  0.1226E-06  0.3440E+00
      3.411  0.5607E-10  0.3440E+00
      3.519  0.2625E-14  0.3440E+00
      3.628  0.0000E+00  0.3440E+00
      3.736  0.0000E+00  0.3440E+00
      3.845  0.0000E+00  0.3440E+00
      3.953  0.0000E+00  0.3440E+00
      4.062  0.0000E+00  0.3440E+00
      4.170  0.0000E+00  0.3440E+00
      4.279  0.0000E+00  0.3440E+00
      4.387  0.0000E+00  0.3440E+00
