       N       E                     dE             d eps       ncg     rms          rms(c)
DAV:   1     0.267722008022E+04    0.26772E+04   -0.96380E+04  1576   0.102E+03
DAV:   2     0.864663380589E+02   -0.25908E+04   -0.24557E+04  2000   0.288E+02
DAV:   3    -0.470460517853E+03   -0.55693E+03   -0.55034E+03  1736   0.148E+02
DAV:   4    -0.501398142766E+03   -0.30938E+02   -0.30154E+02  2072   0.510E+01
DAV:   5    -0.502416352800E+03   -0.10182E+01   -0.99038E+00  1856   0.562E+00    0.638E+01
DAV:   6    -0.479206522589E+03    0.23210E+02   -0.23328E+02  2112   0.121E+02    0.551E+01
DAV:   7    -0.459446681863E+03    0.19760E+02   -0.95770E+01  2080   0.125E+02    0.231E+01
DAV:   8    -0.461207831557E+03   -0.17611E+01   -0.51273E+01  2152   0.394E+01    0.274E+01
DAV:   9    -0.459127103513E+03    0.20807E+01   -0.21740E+01  2032   0.311E+01    0.236E+01
DAV:  10    -0.460931257782E+03   -0.18042E+01   -0.22015E+01  2144   0.451E+01    0.141E+01
DAV:  11    -0.459470470715E+03    0.14608E+01   -0.18198E+01  2080   0.474E+01    0.155E+01
DAV:  12    -0.458826765964E+03    0.64370E+00   -0.57922E+00  2072   0.185E+01    0.120E+01
DAV:  13    -0.458704222203E+03    0.12254E+00   -0.46834E-01  2000   0.272E+00    0.456E+00
DAV:  14    -0.458682125718E+03    0.22096E-01   -0.30689E-01  1936   0.135E+00    0.431E+00
DAV:  15    -0.458626897314E+03    0.55228E-01   -0.46109E-01  1976   0.521E+00    0.591E+00
DAV:  16    -0.458619408109E+03    0.74892E-02   -0.13558E-01  2056   0.440E+00    0.750E+00
DAV:  17    -0.458610680601E+03    0.87275E-02   -0.36927E-02  2040   0.118E+00    0.567E+00
DAV:  18    -0.458594132116E+03    0.16548E-01   -0.39229E-02  2068   0.109E+00    0.267E+00
DAV:  19    -0.458594618519E+03   -0.48640E-03   -0.18914E-02  1888   0.505E-01    0.407E-01
DAV:  20    -0.458600692187E+03   -0.60737E-02   -0.21197E-02  1960   0.959E-01    0.209E+00
DAV:  21    -0.458601647057E+03   -0.95487E-03   -0.80009E-03  1956   0.251E-01    0.632E-01
DAV:  22    -0.458603892482E+03   -0.22454E-02   -0.39123E-03  1792   0.173E-01    0.364E-01
DAV:  23    -0.458605121516E+03   -0.12290E-02   -0.54896E-04  1896   0.624E-02    0.477E-01
DAV:  24    -0.458606550395E+03   -0.14289E-02   -0.61148E-04  1992   0.131E-01    0.257E-01
DAV:  25    -0.458608011097E+03   -0.14607E-02   -0.11681E-03  1956   0.173E-01    0.265E-01
DAV:  26    -0.458608325160E+03   -0.31406E-03   -0.24877E-04  1888   0.739E-02    0.610E-02
DAV:  27    -0.458609739067E+03   -0.14139E-02   -0.15533E-04  1668   0.450E-02    0.140E-01
DAV:  28    -0.458610585819E+03   -0.84675E-03   -0.12996E-04  1432   0.219E-02    0.280E-02
DAV:  29    -0.458611238160E+03   -0.65234E-03   -0.42859E-05  1188   0.170E-02    0.635E-02
DAV:  30    -0.458611831279E+03   -0.59312E-03   -0.45162E-05  1364   0.230E-02    0.601E-02
DAV:  31    -0.458611927064E+03   -0.95785E-04   -0.17578E-05  1032   0.108E-02    0.207E-02
DAV:  32    -0.458611984337E+03   -0.57273E-04   -0.51917E-06   936   0.814E-03    0.146E-02
DAV:  33    -0.458612004239E+03   -0.19902E-04   -0.28798E-06   976   0.137E-02    0.569E-03
DAV:  34    -0.458612009401E+03   -0.51617E-05   -0.18370E-06   952   0.692E-03
   1 F= -.45861201E+03 E0= -.45852369E+03  d E =-.458612E+03
       N       E                     dE             d eps       ncg     rms          rms(c)
DAV:   1    -0.462528249931E+03   -0.39162E+01   -0.63738E+02  1544   0.644E+01    0.176E+01
DAV:   2    -0.468724037861E+03   -0.61958E+01   -0.87282E+01  2036   0.646E+01    0.370E+01
DAV:   3    -0.465487407198E+03    0.32366E+01   -0.10178E+01  2048   0.175E+01    0.308E+01
DAV:   4    -0.465376611897E+03    0.11080E+00   -0.66273E-01  2192   0.747E+00    0.321E+01
DAV:   5    -0.465337036692E+03    0.39575E-01   -0.49363E+00  2056   0.130E+01    0.223E+01
DAV:   6    -0.464874459255E+03    0.46258E+00   -0.97905E+00  1948   0.116E+01    0.133E+01
DAV:   7    -0.464214906671E+03    0.65955E+00   -0.38452E+00  1892   0.584E+00    0.116E+01
DAV:   8    -0.463754405565E+03    0.46050E+00   -0.71846E-01  2028   0.313E+00    0.875E+00
DAV:   9    -0.463428907468E+03    0.32550E+00   -0.15057E+00  2064   0.574E+00    0.116E+01
DAV:  10    -0.463325169263E+03    0.10374E+00   -0.64199E-01  1968   0.161E+00    0.584E+00
DAV:  11    -0.463072678594E+03    0.25249E+00   -0.11445E+00  2072   0.717E+00    0.676E+00
DAV:  12    -0.463023180909E+03    0.49498E-01   -0.10285E-01  2064   0.277E+00    0.510E+00
DAV:  13    -0.463011345077E+03    0.11836E-01   -0.24119E-02  2208   0.967E-01    0.446E+00
DAV:  14    -0.463009338806E+03    0.20063E-02   -0.82399E-03  2008   0.410E-01    0.401E+00
DAV:  15    -0.462998359112E+03    0.10980E-01   -0.95623E-02  2064   0.217E+00    0.415E-01
DAV:  16    -0.462999951675E+03   -0.15926E-02   -0.13604E-02  1920   0.459E-01    0.114E+00
DAV:  17    -0.462999494037E+03    0.45764E-03   -0.15884E-03  1984   0.113E-01    0.845E-01
DAV:  18    -0.462999349427E+03    0.14461E-03   -0.24079E-04  1816   0.144E-01    0.701E-01
DAV:  19    -0.462999286422E+03    0.63006E-04   -0.10798E-03  1808   0.105E-01    0.228E-01
DAV:  20    -0.462999402070E+03   -0.11565E-03   -0.24329E-04  2024   0.656E-02    0.861E-02
DAV:  21    -0.462999388095E+03    0.13975E-04   -0.15224E-04  1648   0.120E-01    0.100E-01
DAV:  22    -0.462999402918E+03   -0.14823E-04   -0.66126E-05  1152   0.330E-02    0.108E-02
DAV:  23    -0.462999421884E+03   -0.18966E-04   -0.66650E-06   928   0.154E-02    0.135E-02
DAV:  24    -0.462999431365E+03   -0.94803E-05   -0.72031E-06  1032   0.988E-03
   2 F= -.46299943E+03 E0= -.46292550E+03  d E =-.438742E+01
       N       E                     dE             d eps       ncg     rms          rms(c)
DAV:   1    -0.463475180727E+03   -0.47576E+00   -0.40010E+01  1432   0.156E+01    0.680E+00
DAV:   2    -0.465817071076E+03   -0.23419E+01   -0.30605E+01  2088   0.321E+01    0.210E+01
DAV:   3    -0.463822447978E+03    0.19946E+01   -0.25691E+00  2068   0.233E+01    0.152E+01
DAV:   4    -0.463650753950E+03    0.17169E+00   -0.23673E-01  2008   0.255E+00    0.128E+01
DAV:   5    -0.463464824558E+03    0.18593E+00   -0.16669E+00  2060   0.812E+00    0.473E+00
DAV:   6    -0.463517927675E+03   -0.53103E-01   -0.50784E-01  1940   0.202E+00    0.794E+00
DAV:   7    -0.463450339987E+03    0.67588E-01   -0.17371E-01  1744   0.891E-01    0.466E+00
DAV:   8    -0.463434797770E+03    0.15542E-01   -0.35153E-02  1872   0.521E-01    0.327E+00
DAV:   9    -0.463432120954E+03    0.26768E-02   -0.16323E-02  1892   0.679E-01    0.255E+00
DAV:  10    -0.463428082416E+03    0.40385E-02   -0.18763E-02  1848   0.315E-01    0.767E-01
DAV:  11    -0.463429662114E+03   -0.15797E-02   -0.19541E-02  1988   0.737E-01    0.926E-01
DAV:  12    -0.463430738509E+03   -0.10764E-02   -0.25405E-02  1968   0.587E-01    0.113E+00
DAV:  13    -0.463430152115E+03    0.58639E-03   -0.20889E-02  1696   0.476E-01    0.809E-01
DAV:  14    -0.463429706503E+03    0.44561E-03   -0.66488E-03  1720   0.216E-01    0.265E-01
DAV:  15    -0.463429663125E+03    0.43378E-04   -0.97886E-04  1496   0.775E-02    0.133E-01
DAV:  16    -0.463429686376E+03   -0.23251E-04   -0.67767E-04  1276   0.723E-02    0.220E-01
DAV:  17    -0.463429654712E+03    0.31664E-04   -0.18651E-04   984   0.361E-02    0.393E-02
DAV:  18    -0.463429665985E+03   -0.11273E-04   -0.75905E-06   952   0.224E-02    0.284E-02
DAV:  19    -0.463429671223E+03   -0.52378E-05   -0.45488E-06   952   0.649E-03
   3 F= -.46342967E+03 E0= -.46335065E+03  d E =-.481766E+01
       N       E                     dE             d eps       ncg     rms          rms(c)
DAV:   1    -0.466152920106E+03   -0.27233E+01   -0.20292E+02  1608   0.386E+01    0.608E+00
DAV:   2    -0.467775776925E+03   -0.16229E+01   -0.21451E+01  2104   0.274E+01    0.166E+01
DAV:   3    -0.466210456558E+03    0.15653E+01   -0.32199E+00  2076   0.182E+01    0.603E+00
DAV:   4    -0.466215992709E+03   -0.55362E-02   -0.59320E-01  2088   0.637E+00    0.922E+00
DAV:   5    -0.466152839609E+03    0.63153E-01   -0.35632E-01  1920   0.107E+00    0.356E+00
DAV:   6    -0.466131036082E+03    0.21804E-01   -0.61266E-01  2012   0.451E+00    0.411E+00
DAV:   7    -0.466123725740E+03    0.73103E-02   -0.15931E-01  1752   0.105E+00    0.384E+00
DAV:   8    -0.466099335384E+03    0.24390E-01   -0.43807E-02  1920   0.729E-01    0.282E+00
DAV:   9    -0.466093154057E+03    0.61813E-02   -0.11949E-02  1888   0.315E-01    0.212E+00
DAV:  10    -0.466091137952E+03    0.20161E-02   -0.49562E-03  1912   0.290E-01    0.154E+00
DAV:  11    -0.466088725408E+03    0.24125E-02   -0.13865E-02  1928   0.295E-01    0.291E-01
DAV:  12    -0.466089704136E+03   -0.97873E-03   -0.21412E-03  1808   0.151E-01    0.782E-02
DAV:  13    -0.466089932806E+03   -0.22867E-03   -0.42056E-04  1856   0.510E-02    0.146E-01
DAV:  14    -0.466090002704E+03   -0.69897E-04   -0.11204E-04  1208   0.253E-02    0.471E-02
DAV:  15    -0.466090151500E+03   -0.14880E-03   -0.11772E-04  1424   0.580E-02    0.651E-02
DAV:  16    -0.466090211164E+03   -0.59664E-04   -0.46694E-05  1320   0.273E-02    0.860E-03
DAV:  17    -0.466090265212E+03   -0.54049E-04   -0.16009E-05  1048   0.130E-02    0.358E-02
DAV:  18    -0.466090326537E+03   -0.61325E-04   -0.19480E-05  1096   0.108E-02    0.578E-03
DAV:  19    -0.466090347242E+03   -0.20705E-04   -0.28363E-06  1056   0.540E-03    0.282E-03
DAV:  20    -0.466090373836E+03   -0.26593E-04   -0.31003E-06   976   0.500E-03    0.487E-03
DAV:  21    -0.466090388525E+03   -0.14689E-04   -0.24333E-06  1016   0.347E-03    0.382E-03
DAV:  22    -0.466090392859E+03   -0.43345E-05   -0.94281E-07   984   0.292E-03
   4 F= -.46609039E+03 E0= -.46602362E+03  d E =-.266072E+01
       N       E                     dE             d eps       ncg     rms          rms(c)
DAV:   1    -0.466572514045E+03   -0.48213E+00   -0.90281E+01  1592   0.252E+01    0.367E+00
DAV:   2    -0.467209287734E+03   -0.63677E+00   -0.82937E+00  2088   0.150E+01    0.137E+01
DAV:   3    -0.466620660029E+03    0.58863E+00   -0.30639E+00  2056   0.919E+00    0.341E+00
DAV:   4    -0.466698305361E+03   -0.77645E-01   -0.73294E-01  2056   0.568E+00    0.829E+00
DAV:   5    -0.466594525631E+03    0.10378E+00   -0.10061E+00  1984   0.296E+00    0.126E+00
DAV:   6    -0.466565953241E+03    0.28572E-01   -0.21967E-01  1980   0.360E+00    0.770E-01
DAV:   7    -0.466565889641E+03    0.63600E-04   -0.39095E-02  1912   0.837E-01    0.396E-01
DAV:   8    -0.466565588472E+03    0.30117E-03   -0.57483E-03  2024   0.265E-01    0.328E-01
DAV:   9    -0.466565456952E+03    0.13152E-03   -0.20315E-03  1912   0.151E-01    0.229E-01
DAV:  10    -0.466565530722E+03   -0.73770E-04   -0.93502E-04  1864   0.108E-01    0.761E-02
DAV:  11    -0.466565649609E+03   -0.11889E-03   -0.29335E-04  1928   0.605E-02    0.454E-02
DAV:  12    -0.466565719316E+03   -0.69706E-04   -0.35373E-05  1208   0.383E-02    0.197E-02
DAV:  13    -0.466565782470E+03   -0.63155E-04   -0.12428E-05  1024   0.216E-02    0.175E-02
DAV:  14    -0.466565869580E+03   -0.87110E-04   -0.18921E-05  1136   0.173E-02    0.105E-02
DAV:  15    -0.466565905782E+03   -0.36202E-04   -0.57351E-06  1048   0.187E-02    0.392E-03
DAV:  16    -0.466565946432E+03   -0.40650E-04   -0.71759E-06  1024   0.764E-03    0.196E-03
DAV:  17    -0.466565985346E+03   -0.38914E-04   -0.71454E-06  1080   0.745E-03    0.173E-03
DAV:  18    -0.466565992900E+03   -0.75536E-05   -0.16835E-06  1008   0.378E-03
   5 F= -.46656599E+03 E0= -.46650624E+03  d E =-.313632E+01
       N       E                     dE             d eps       ncg     rms          rms(c)
DAV:   1    -0.467404818654E+03   -0.83883E+00   -0.74246E+01  1384   0.223E+01    0.247E+00
DAV:   2    -0.467634155552E+03   -0.22934E+00   -0.28205E+00  1936   0.495E+00    0.572E+00
DAV:   3    -0.467618672020E+03    0.15484E-01   -0.17567E-01  1928   0.125E+00    0.379E+00
DAV:   4    -0.467650116380E+03   -0.31444E-01   -0.21620E-01  2016   0.286E+00    0.620E+00
DAV:   5    -0.467596243043E+03    0.53873E-01   -0.26819E-01  1944   0.336E+00    0.336E+00
DAV:   6    -0.467610926865E+03   -0.14684E-01   -0.90068E-02  2072   0.207E+00    0.414E+00
DAV:   7    -0.467586815145E+03    0.24112E-01   -0.96339E-02  2080   0.182E+00    0.229E+00
DAV:   8    -0.467586553205E+03    0.26194E-03   -0.48880E-03  1824   0.310E-01    0.225E+00
DAV:   9    -0.467582952859E+03    0.36003E-02   -0.41519E-03  2008   0.212E-01    0.177E+00
DAV:  10    -0.467580304677E+03    0.26482E-02   -0.28773E-03  1904   0.210E-01    0.132E+00
DAV:  11    -0.467578172345E+03    0.21323E-02   -0.40174E-03  1968   0.263E-01    0.761E-01
DAV:  12    -0.467577651664E+03    0.52068E-03   -0.18445E-03  1936   0.132E-01    0.408E-01
DAV:  13    -0.467577576180E+03    0.75484E-04   -0.66006E-04  1992   0.111E-01    0.191E-01
DAV:  14    -0.467577581742E+03   -0.55620E-05   -0.48629E-04  1936   0.999E-02    0.100E-02
DAV:  15    -0.467577614817E+03   -0.33075E-04   -0.52810E-05  1424   0.252E-02    0.266E-02
DAV:  16    -0.467577621815E+03   -0.69987E-05   -0.30720E-06   992   0.771E-03
   6 F= -.46757762E+03 E0= -.46752220E+03  d E =-.101163E+01
       N       E                     dE             d eps       ncg     rms          rms(c)
DAV:   1    -0.467747453406E+03   -0.16984E+00   -0.13086E+02  1404   0.295E+01    0.351E+00
DAV:   2    -0.468090045060E+03   -0.34259E+00   -0.42863E+00  1944   0.695E+00    0.354E+00
DAV:   3    -0.468066135177E+03    0.23910E-01   -0.27820E-01  1856   0.185E+00    0.167E+00
DAV:   4    -0.468054454502E+03    0.11681E-01   -0.10474E-01  1864   0.132E+00    0.164E+00
DAV:   5    -0.468049676729E+03    0.47778E-02   -0.40780E-02  1856   0.767E-01    0.537E-01
DAV:   6    -0.468050177447E+03   -0.50072E-03   -0.11632E-02  1920   0.351E-01    0.283E-01
DAV:   7    -0.468049534849E+03    0.64260E-03   -0.43247E-03  2024   0.361E-01    0.206E-01
DAV:   8    -0.468049794005E+03   -0.25916E-03   -0.14617E-03  1968   0.274E-01    0.101E-01
DAV:   9    -0.468049833191E+03   -0.39186E-04   -0.90450E-04  2016   0.281E-01    0.684E-02
DAV:  10    -0.468049956942E+03   -0.12375E-03   -0.27492E-04  1904   0.138E-01    0.217E-02
DAV:  11    -0.468050015842E+03   -0.58900E-04   -0.57361E-05  1336   0.555E-02    0.108E-02
DAV:  12    -0.468050074532E+03   -0.58690E-04   -0.85287E-06   928   0.216E-02    0.627E-03
DAV:  13    -0.468050170913E+03   -0.96381E-04   -0.10838E-05  1016   0.951E-03    0.278E-03
DAV:  14    -0.468050226149E+03   -0.55236E-04   -0.47274E-06  1008   0.922E-03    0.245E-03
DAV:  15    -0.468050272232E+03   -0.46083E-04   -0.32587E-06   984   0.105E-02    0.232E-03
DAV:  16    -0.468050306457E+03   -0.34225E-04   -0.41595E-06  1008   0.709E-03    0.147E-03
DAV:  17    -0.468050317588E+03   -0.11130E-04   -0.25605E-06   976   0.650E-03    0.127E-03
DAV:  18    -0.468050324203E+03   -0.66149E-05   -0.13409E-06   976   0.534E-03
   7 F= -.46805032E+03 E0= -.46799850E+03  d E =-.148433E+01
       N       E                     dE             d eps       ncg     rms          rms(c)
DAV:   1    -0.468548148088E+03   -0.49783E+00   -0.10817E+02  1376   0.257E+01    0.346E+00
DAV:   2    -0.468813356372E+03   -0.26521E+00   -0.33494E+00  2008   0.701E+00    0.294E+00
DAV:   3    -0.468798628361E+03    0.14728E-01   -0.25631E-01  2016   0.389E+00    0.148E+00
DAV:   4    -0.468805378731E+03   -0.67504E-02   -0.19027E-01  2064   0.546E+00    0.138E+00
DAV:   5    -0.468791216370E+03    0.14162E-01   -0.12025E-01  2088   0.436E+00    0.767E-01
DAV:   6    -0.468790279376E+03    0.93699E-03   -0.20257E-02  2012   0.913E-01    0.198E-01
DAV:   7    -0.468790197689E+03    0.81687E-04   -0.33989E-03  2032   0.335E-01    0.110E-01
DAV:   8    -0.468790158097E+03    0.39592E-04   -0.10096E-03  1944   0.903E-02    0.731E-02
DAV:   9    -0.468790207405E+03   -0.49307E-04   -0.27709E-04  1848   0.657E-02    0.295E-02
DAV:  10    -0.468790268480E+03   -0.61075E-04   -0.63563E-05  1544   0.430E-02    0.158E-02
DAV:  11    -0.468790295506E+03   -0.27026E-04   -0.27337E-05  1064   0.141E-02    0.891E-03
DAV:  12    -0.468790320314E+03   -0.24807E-04   -0.76029E-06  1024   0.107E-02    0.396E-03
DAV:  13    -0.468790353129E+03   -0.32815E-04   -0.42409E-06  1048   0.556E-03    0.180E-03
DAV:  14    -0.468790379248E+03   -0.26119E-04   -0.20596E-06  1040   0.538E-03    0.126E-03
DAV:  15    -0.468790402273E+03   -0.23025E-04   -0.19436E-06  1032   0.465E-03    0.106E-03
DAV:  16    -0.468790416832E+03   -0.14559E-04   -0.15709E-06  1040   0.505E-03    0.872E-04
DAV:  17    -0.468790423915E+03   -0.70831E-05   -0.10852E-06  1024   0.307E-03
   8 F= -.46879042E+03 E0= -.46873838E+03  d E =-.740100E+00
       N       E                     dE             d eps       ncg     rms          rms(c)
DAV:   1    -0.468813072629E+03   -0.22656E-01   -0.91664E+01  1376   0.237E+01    0.305E+00
DAV:   2    -0.469032326850E+03   -0.21925E+00   -0.28105E+00  1992   0.655E+00    0.251E+00
DAV:   3    -0.469018215077E+03    0.14112E-01   -0.23912E-01  2008   0.365E+00    0.124E+00
DAV:   4    -0.469020360023E+03   -0.21449E-02   -0.13599E-01  2088   0.458E+00    0.115E+00
DAV:   5    -0.469012140474E+03    0.82195E-02   -0.88171E-02  2104   0.360E+00    0.630E-01
DAV:   6    -0.469010942888E+03    0.11976E-02   -0.17592E-02  2036   0.101E+00    0.177E-01
DAV:   7    -0.469010876192E+03    0.66696E-04   -0.25866E-03  2072   0.397E-01    0.871E-02
DAV:   8    -0.469010910422E+03   -0.34230E-04   -0.82553E-04  1984   0.909E-02    0.526E-02
DAV:   9    -0.469010948879E+03   -0.38458E-04   -0.25490E-04  1752   0.399E-02    0.268E-02
DAV:  10    -0.469011009606E+03   -0.60727E-04   -0.35103E-05  1192   0.226E-02    0.132E-02
DAV:  11    -0.469011043835E+03   -0.34229E-04   -0.10060E-05  1056   0.203E-02    0.652E-03
DAV:  12    -0.469011070182E+03   -0.26347E-04   -0.60707E-06  1040   0.110E-02    0.372E-03
DAV:  13    -0.469011096035E+03   -0.25853E-04   -0.46739E-06  1048   0.108E-02    0.218E-03
DAV:  14    -0.469011124328E+03   -0.28293E-04   -0.37690E-06  1040   0.756E-03    0.166E-03
DAV:  15    -0.469011143592E+03   -0.19264E-04   -0.29208E-06  1056   0.779E-03    0.144E-03
DAV:  16    -0.469011159665E+03   -0.16073E-04   -0.25681E-06  1032   0.571E-03    0.102E-03
DAV:  17    -0.469011168336E+03   -0.86715E-05   -0.21130E-06  1048   0.418E-03
   9 F= -.46901117E+03 E0= -.46895778E+03  d E =-.960844E+00
       N       E                     dE             d eps       ncg     rms          rms(c)
DAV:   1    -0.469371311818E+03   -0.36015E+00   -0.86895E+01  1384   0.227E+01    0.235E+00
DAV:   2    -0.469578179625E+03   -0.20687E+00   -0.27961E+00  1976   0.502E+00    0.230E+00
DAV:   3    -0.469558051935E+03    0.20128E-01   -0.20343E-01  1828   0.159E+00    0.120E+00
DAV:   4    -0.469554392693E+03    0.36592E-02   -0.47741E-02  2016   0.119E+00    0.102E+00
DAV:   5    -0.469553199909E+03    0.11928E-02   -0.42925E-02  2080   0.194E+00    0.559E-01
DAV:   6    -0.469552289158E+03    0.91075E-03   -0.26482E-02  2088   0.179E+00    0.296E-01
DAV:   7    -0.469551810141E+03    0.47902E-03   -0.52007E-03  2112   0.833E-01    0.149E-01
DAV:   8    -0.469551753312E+03    0.56830E-04   -0.14789E-03  2080   0.197E-01    0.844E-02
DAV:   9    -0.469551884552E+03   -0.13124E-03   -0.37394E-04  1952   0.903E-02    0.288E-02
DAV:  10    -0.469552001696E+03   -0.11714E-03   -0.82010E-05  1696   0.266E-02    0.141E-02
DAV:  11    -0.469552053250E+03   -0.51553E-04   -0.14254E-05  1056   0.145E-02    0.928E-03
DAV:  12    -0.469552101347E+03   -0.48097E-04   -0.77846E-06  1016   0.171E-02    0.493E-03
DAV:  13    -0.469552179285E+03   -0.77938E-04   -0.11588E-05  1064   0.794E-03    0.282E-03
DAV:  14    -0.469552222189E+03   -0.42903E-04   -0.46866E-06  1072   0.998E-03    0.240E-03
DAV:  15    -0.469552263512E+03   -0.41323E-04   -0.56946E-06  1000   0.706E-03    0.184E-03
DAV:  16    -0.469552280557E+03   -0.17045E-04   -0.40498E-06  1064   0.800E-03    0.146E-03
DAV:  17    -0.469552287337E+03   -0.67792E-05   -0.23703E-06   972   0.572E-03
  10 F= -.46955229E+03 E0= -.46949949E+03  d E =-.541119E+00
       N       E                     dE             d eps       ncg     rms          rms(c)
DAV:   1    -0.469567143941E+03   -0.14863E-01   -0.71647E+01  1384   0.206E+01    0.210E+00
DAV:   2    -0.469733735096E+03   -0.16659E+00   -0.22486E+00  1964   0.459E+00    0.198E+00
DAV:   3    -0.469718468023E+03    0.15267E-01   -0.16244E-01  1896   0.166E+00    0.106E+00
DAV:   4    -0.469716387162E+03    0.20809E-02   -0.47254E-02  2048   0.154E+00    0.920E-01
DAV:   5    -0.469714779417E+03    0.16077E-02   -0.42030E-02  2120   0.214E+00    0.523E-01
DAV:   6    -0.469713727741E+03    0.10517E-02   -0.20293E-02  2096   0.155E+00    0.249E-01
DAV:   7    -0.469713518005E+03    0.20974E-03   -0.40212E-03  2088   0.633E-01    0.134E-01
DAV:   8    -0.469713442019E+03    0.75986E-04   -0.12680E-03  2000   0.143E-01    0.762E-02
DAV:   9    -0.469713531115E+03   -0.89095E-04   -0.29590E-04  1832   0.585E-02    0.288E-02
DAV:  10    -0.469713621513E+03   -0.90398E-04   -0.78790E-05  1616   0.360E-02    0.152E-02
DAV:  11    -0.469713668468E+03   -0.46955E-04   -0.20001E-05  1080   0.261E-02    0.871E-03
DAV:  12    -0.469713717328E+03   -0.48860E-04   -0.63999E-06  1008   0.119E-02    0.457E-03
DAV:  13    -0.469713780935E+03   -0.63607E-04   -0.10943E-05  1112   0.102E-02    0.319E-03
DAV:  14    -0.469713815594E+03   -0.34659E-04   -0.41427E-06  1056   0.143E-02    0.177E-03
DAV:  15    -0.469713849950E+03   -0.34356E-04   -0.72815E-06  1040   0.470E-03    0.123E-03
DAV:  16    -0.469713864194E+03   -0.14244E-04   -0.25644E-06  1048   0.559E-03    0.106E-03
DAV:  17    -0.469713870774E+03   -0.65802E-05   -0.12208E-06   964   0.469E-03
  11 F= -.46971387E+03 E0= -.46966182E+03  d E =-.702702E+00
       N       E                     dE             d eps       ncg     rms          rms(c)
DAV:   1    -0.470019032824E+03   -0.30517E+00   -0.10621E+02  1376   0.245E+01    0.285E+00
DAV:   2    -0.470225430073E+03   -0.20640E+00   -0.31113E+00  1968   0.497E+00    0.194E+00
DAV:   3    -0.470207752189E+03    0.17678E-01   -0.37108E-01  1860   0.188E+00    0.106E+00
DAV:   4    -0.470197091388E+03    0.10661E-01   -0.15650E-01  2048   0.148E+00    0.707E-01
DAV:   5    -0.470196154351E+03    0.93704E-03   -0.46603E-02  2080   0.207E+00    0.468E-01
DAV:   6    -0.470194135952E+03    0.20184E-02   -0.16845E-02  2136   0.159E+00    0.191E-01
DAV:   7    -0.470194280459E+03   -0.14451E-03   -0.23484E-03  2040   0.406E-01    0.799E-02
DAV:   8    -0.470194361800E+03   -0.81341E-04   -0.73047E-04  1936   0.812E-02    0.463E-02
DAV:   9    -0.470194468059E+03   -0.10626E-03   -0.22563E-04  1728   0.368E-02    0.224E-02
DAV:  10    -0.470194572511E+03   -0.10445E-03   -0.37410E-05  1080   0.278E-02    0.121E-02
DAV:  11    -0.470194632810E+03   -0.60300E-04   -0.15533E-05  1128   0.295E-02    0.685E-03
DAV:  12    -0.470194704645E+03   -0.71835E-04   -0.88329E-06  1048   0.130E-02    0.361E-03
DAV:  13    -0.470194801669E+03   -0.97024E-04   -0.12673E-05  1104   0.116E-02    0.296E-03
DAV:  14    -0.470194851691E+03   -0.50022E-04   -0.60736E-06  1072   0.117E-02    0.187E-03
DAV:  15    -0.470194903045E+03   -0.51354E-04   -0.86162E-06  1024   0.775E-03    0.136E-03
DAV:  16    -0.470194916606E+03   -0.13561E-04   -0.31944E-06  1064   0.821E-03    0.130E-03
DAV:  17    -0.470194927529E+03   -0.10922E-04   -0.19188E-06   984   0.583E-03    0.786E-04
DAV:  18    -0.470194932769E+03   -0.52406E-05   -0.12662E-06  1000   0.440E-03
  12 F= -.47019493E+03 E0= -.47014180E+03  d E =-.481062E+00
       N       E                     dE             d eps       ncg     rms          rms(c)
DAV:   1    -0.470196595287E+03   -0.16678E-02   -0.81306E+01  1376   0.214E+01    0.250E+00
DAV:   2    -0.470357548548E+03   -0.16095E+00   -0.24846E+00  1948   0.440E+00    0.179E+00
DAV:   3    -0.470342022671E+03    0.15526E-01   -0.42065E-01  1864   0.194E+00    0.103E+00
DAV:   4    -0.470330603234E+03    0.11419E-01   -0.19051E-01  2040   0.184E+00    0.675E-01
DAV:   5    -0.470329632765E+03    0.97047E-03   -0.53135E-02  2056   0.231E+00    0.490E-01
DAV:   6    -0.470327061838E+03    0.25709E-02   -0.16907E-02  2080   0.145E+00    0.152E-01
DAV:   7    -0.470327368743E+03   -0.30690E-03   -0.16533E-03  2048   0.257E-01    0.745E-02
DAV:   8    -0.470327451071E+03   -0.82328E-04   -0.57560E-04  2000   0.155E-01    0.501E-02
DAV:   9    -0.470327510446E+03   -0.59374E-04   -0.21490E-04  1832   0.916E-02    0.224E-02
DAV:  10    -0.470327607709E+03   -0.97263E-04   -0.30160E-05  1152   0.226E-02    0.107E-02
DAV:  11    -0.470327683461E+03   -0.75752E-04   -0.12380E-05  1056   0.171E-02    0.511E-03
DAV:  12    -0.470327770042E+03   -0.86582E-04   -0.10831E-05  1012   0.117E-02    0.274E-03
DAV:  13    -0.470327816209E+03   -0.46167E-04   -0.58480E-06  1056   0.119E-02    0.251E-03
DAV:  14    -0.470327857336E+03   -0.41127E-04   -0.52423E-06  1004   0.741E-03    0.165E-03
DAV:  15    -0.470327897707E+03   -0.40370E-04   -0.75962E-06  1020   0.604E-03    0.148E-03
DAV:  16    -0.470327909203E+03   -0.11496E-04   -0.26905E-06  1016   0.791E-03    0.110E-03
DAV:  17    -0.470327915363E+03   -0.61607E-05   -0.14457E-06   968   0.479E-03
  13 F= -.47032792E+03 E0= -.47027591E+03  d E =-.614045E+00
       N       E                     dE             d eps       ncg     rms          rms(c)
DAV:   1    -0.470531871622E+03   -0.20396E+00   -0.16827E+02  1376   0.288E+01    0.310E+00
DAV:   2    -0.470865532229E+03   -0.33366E+00   -0.54292E+00  1972   0.662E+00    0.298E+00
DAV:   3    -0.470776930994E+03    0.88601E-01   -0.11036E+00  1996   0.375E+00    0.140E+00
DAV:   4    -0.470763148107E+03    0.13783E-01   -0.19318E-01  2092   0.328E+00    0.977E-01
DAV:   5    -0.470761714971E+03    0.14331E-02   -0.11013E-01  2120   0.362E+00    0.734E-01
DAV:   6    -0.470757021079E+03    0.46939E-02   -0.32514E-02  2104   0.197E+00    0.196E-01
DAV:   7    -0.470757351742E+03   -0.33066E-03   -0.31604E-03  1824   0.157E-01    0.962E-02
DAV:   8    -0.470757474756E+03   -0.12301E-03   -0.77233E-04  1672   0.753E-02    0.479E-02
DAV:   9    -0.470757688293E+03   -0.21354E-03   -0.16386E-04  1636   0.326E-02    0.206E-02
DAV:  10    -0.470757819848E+03   -0.13155E-03   -0.30514E-05  1128   0.161E-02    0.104E-02
DAV:  11    -0.470757978263E+03   -0.15842E-03   -0.19686E-05  1044   0.106E-02    0.468E-03
DAV:  12    -0.470758108646E+03   -0.13038E-03   -0.15638E-05  1032   0.971E-03    0.389E-03
DAV:  13    -0.470758194080E+03   -0.85435E-04   -0.10452E-05  1024   0.821E-03    0.302E-03
DAV:  14    -0.470758280796E+03   -0.86716E-04   -0.12911E-05  1028   0.742E-03    0.209E-03
DAV:  15    -0.470758328859E+03   -0.48063E-04   -0.87942E-06  1024   0.926E-03    0.159E-03
DAV:  16    -0.470758341436E+03   -0.12577E-04   -0.25850E-06  1008   0.734E-03    0.974E-04
DAV:  17    -0.470758356992E+03   -0.15556E-04   -0.29098E-06  1000   0.470E-03    0.822E-04
DAV:  18    -0.470758360951E+03   -0.39595E-05   -0.11875E-06   992   0.417E-03
  14 F= -.47075836E+03 E0= -.47071068E+03  d E =-.430446E+00
       N       E                     dE             d eps       ncg     rms          rms(c)
DAV:   1    -0.470739860439E+03    0.18497E-01   -0.65942E+01  1376   0.181E+01    0.189E+00
DAV:   2    -0.470878432391E+03   -0.13857E+00   -0.20193E+00  1996   0.422E+00    0.194E+00
DAV:   3    -0.470840147851E+03    0.38285E-01   -0.47436E-01  1972   0.265E+00    0.909E-01
DAV:   4    -0.470833308536E+03    0.68393E-02   -0.68385E-02  2052   0.196E+00    0.565E-01
DAV:   5    -0.470833640852E+03   -0.33232E-03   -0.41575E-02  2128   0.212E+00    0.448E-01
DAV:   6    -0.470831548489E+03    0.20924E-02   -0.13504E-02  2088   0.125E+00    0.114E-01
DAV:   7    -0.470831705806E+03   -0.15732E-03   -0.10618E-03  1964   0.126E-01    0.564E-02
DAV:   8    -0.470831786567E+03   -0.80761E-04   -0.24471E-04  1744   0.482E-02    0.247E-02
DAV:   9    -0.470831864524E+03   -0.77957E-04   -0.52711E-05  1108   0.184E-02    0.115E-02
DAV:  10    -0.470831912218E+03   -0.47694E-04   -0.15108E-05  1048   0.116E-02    0.647E-03
DAV:  11    -0.470831979510E+03   -0.67292E-04   -0.72878E-06   996   0.782E-03    0.306E-03
DAV:  12    -0.470832050967E+03   -0.71457E-04   -0.89973E-06  1004   0.657E-03    0.220E-03
DAV:  13    -0.470832088305E+03   -0.37338E-04   -0.44094E-06  1032   0.664E-03    0.183E-03
DAV:  14    -0.470832128621E+03   -0.40316E-04   -0.60966E-06   996   0.729E-03    0.157E-03
DAV:  15    -0.470832142499E+03   -0.13878E-04   -0.27922E-06  1032   0.654E-03    0.810E-04
DAV:  16    -0.470832147867E+03   -0.53681E-05   -0.14571E-06   976   0.375E-03
  15 F= -.47083215E+03 E0= -.47078933E+03  d E =-.504233E+00
       N       E                     dE             d eps       ncg     rms          rms(c)
DAV:   1    -0.471020263793E+03   -0.18812E+00   -0.11285E+02  1376   0.220E+01    0.186E+00
DAV:   2    -0.471287186976E+03   -0.26692E+00   -0.34311E+00  1924   0.508E+00    0.228E+00
DAV:   3    -0.471235290816E+03    0.51896E-01   -0.54696E-01  1796   0.169E+00    0.104E+00
DAV:   4    -0.471230920807E+03    0.43700E-02   -0.70437E-02  2108   0.181E+00    0.851E-01
DAV:   5    -0.471231000399E+03   -0.79592E-04   -0.72869E-02  2144   0.259E+00    0.734E-01
DAV:   6    -0.471226496056E+03    0.45043E-02   -0.28659E-02  2108   0.172E+00    0.192E-01
DAV:   7    -0.471226575802E+03   -0.79746E-04   -0.26163E-03  1708   0.131E-01    0.893E-02
DAV:   8    -0.471226659032E+03   -0.83230E-04   -0.56834E-04  1832   0.637E-02    0.407E-02
DAV:   9    -0.471226782272E+03   -0.12324E-03   -0.81516E-05  1532   0.356E-02    0.155E-02
DAV:  10    -0.471226864141E+03   -0.81869E-04   -0.15813E-05  1040   0.143E-02    0.795E-03
DAV:  11    -0.471226950877E+03   -0.86736E-04   -0.12374E-05  1032   0.809E-03    0.374E-03
DAV:  12    -0.471227021046E+03   -0.70169E-04   -0.66211E-06  1032   0.636E-03    0.259E-03
DAV:  13    -0.471227084469E+03   -0.63423E-04   -0.76554E-06  1044   0.518E-03    0.198E-03
DAV:  14    -0.471227131009E+03   -0.46541E-04   -0.84007E-06  1028   0.590E-03    0.142E-03
DAV:  15    -0.471227148262E+03   -0.17253E-04   -0.30832E-06  1064   0.513E-03    0.834E-04
DAV:  16    -0.471227157607E+03   -0.93455E-05   -0.17664E-06  1016   0.390E-03
  16 F= -.47122716E+03 E0= -.47119046E+03  d E =-.395010E+00
       N       E                     dE             d eps       ncg     rms          rms(c)
DAV:   1    -0.470498398572E+03    0.72875E+00   -0.45596E+02  1376   0.448E+01    0.356E+00
DAV:   2    -0.471622158695E+03   -0.11238E+01   -0.12982E+01  1944   0.955E+00    0.365E+00
DAV:   3    -0.471590611072E+03    0.31548E-01   -0.15832E+00  2012   0.524E+00    0.246E+00
DAV:   4    -0.471544563400E+03    0.46048E-01   -0.35917E-01  2124   0.517E+00    0.183E+00
DAV:   5    -0.471545025300E+03   -0.46190E-03   -0.31835E-01  2168   0.397E+00    0.157E+00
DAV:   6    -0.471523557427E+03    0.21468E-01   -0.14511E-01  2040   0.279E+00    0.403E-01
DAV:   7    -0.471524674575E+03   -0.11171E-02   -0.14459E-02  1912   0.399E-01    0.193E-01
DAV:   8    -0.471524609386E+03    0.65189E-04   -0.18571E-03  1592   0.116E-01    0.105E-01
DAV:   9    -0.471524846816E+03   -0.23743E-03   -0.48373E-04  1760   0.572E-02    0.399E-02
DAV:  10    -0.471525135207E+03   -0.28839E-03   -0.10265E-04  1816   0.417E-02    0.144E-02
DAV:  11    -0.471525311747E+03   -0.17654E-03   -0.16560E-05  1112   0.132E-02    0.845E-03
DAV:  12    -0.471525516108E+03   -0.20436E-03   -0.23118E-05  1096   0.137E-02    0.452E-03
DAV:  13    -0.471525734307E+03   -0.21820E-03   -0.43141E-05  1256   0.115E-02    0.406E-03
DAV:  14    -0.471525811998E+03   -0.77691E-04   -0.10299E-05  1088   0.106E-02    0.220E-03
DAV:  15    -0.471525858424E+03   -0.46426E-04   -0.81930E-06  1056   0.540E-03    0.109E-03
DAV:  16    -0.471525874339E+03   -0.15915E-04   -0.30564E-06  1048   0.590E-03    0.127E-03
DAV:  17    -0.471525883043E+03   -0.87035E-05   -0.12121E-06  1000   0.405E-03
  17 F= -.47152588E+03 E0= -.47149655E+03  d E =-.693735E+00
       N       E                     dE             d eps       ncg     rms          rms(c)
DAV:   1    -0.471577048968E+03   -0.51175E-01   -0.21219E+02  1376   0.282E+01    0.207E+00
DAV:   2    -0.472074474031E+03   -0.49743E+00   -0.56194E+00  1940   0.692E+00    0.201E+00
DAV:   3    -0.472057140258E+03    0.17334E-01   -0.32403E-01  2140   0.304E+00    0.132E+00
DAV:   4    -0.472067217564E+03   -0.10077E-01   -0.29035E-01  2176   0.360E+00    0.158E+00
DAV:   5    -0.472045198309E+03    0.22019E-01   -0.92191E-02  2132   0.226E+00    0.763E-01
DAV:   6    -0.472040933483E+03    0.42648E-02   -0.32339E-02  1716   0.495E-01    0.284E-01
DAV:   7    -0.472040764220E+03    0.16926E-03   -0.42192E-03  2048   0.344E-01    0.113E-01
DAV:   8    -0.472040830515E+03   -0.66294E-04   -0.11266E-03  1944   0.149E-01    0.105E-01
DAV:   9    -0.472040872190E+03   -0.41675E-04   -0.74064E-04  1840   0.172E-01    0.281E-02
DAV:  10    -0.472041002153E+03   -0.12996E-03   -0.10596E-04  1552   0.467E-02    0.146E-02
DAV:  11    -0.472041090119E+03   -0.87967E-04   -0.20191E-05  1104   0.268E-02    0.728E-03
DAV:  12    -0.472041182573E+03   -0.92453E-04   -0.12319E-05  1016   0.129E-02    0.292E-03
DAV:  13    -0.472041280491E+03   -0.97918E-04   -0.18681E-05  1096   0.107E-02    0.348E-03
DAV:  14    -0.472041322966E+03   -0.42475E-04   -0.80676E-06  1080   0.114E-02    0.245E-03
DAV:  15    -0.472041347020E+03   -0.24054E-04   -0.45395E-06  1024   0.719E-03    0.124E-03
DAV:  16    -0.472041361510E+03   -0.14490E-04   -0.33036E-06  1048   0.533E-03    0.103E-03
DAV:  17    -0.472041369310E+03   -0.78000E-05   -0.16026E-06   992   0.473E-03
  18 F= -.47204137E+03 E0= -.47201477E+03  d E =-.515486E+00
       N       E                     dE             d eps       ncg     rms          rms(c)
DAV:   1    -0.470422021470E+03    0.16193E+01   -0.10061E+03  1456   0.648E+01    0.470E+00
DAV:   2    -0.472727959548E+03   -0.23059E+01   -0.24317E+01  2000   0.162E+01    0.503E+00
DAV:   3    -0.472508559712E+03    0.21940E+00   -0.19150E+00  2176   0.135E+01    0.418E+00
DAV:   4    -0.472529744262E+03   -0.21185E-01   -0.14139E+00  2184   0.593E+00    0.303E+00
DAV:   5    -0.472433531260E+03    0.96213E-01   -0.29441E-01  2152   0.455E+00    0.156E+00
DAV:   6    -0.472426626457E+03    0.69048E-02   -0.83366E-02  1760   0.921E-01    0.665E-01
DAV:   7    -0.472424190775E+03    0.24357E-02   -0.21000E-02  2072   0.890E-01    0.217E-01
DAV:   8    -0.472424905131E+03   -0.71436E-03   -0.29357E-03  1952   0.233E-01    0.178E-01
DAV:   9    -0.472425207534E+03   -0.30240E-03   -0.14436E-03  2064   0.205E-01    0.129E-01
DAV:  10    -0.472425454523E+03   -0.24699E-03   -0.68151E-04  1888   0.152E-01    0.729E-02
DAV:  11    -0.472425668749E+03   -0.21423E-03   -0.24422E-04  1384   0.806E-02    0.418E-02
DAV:  12    -0.472425911811E+03   -0.24306E-03   -0.82611E-05  1192   0.430E-02    0.156E-02
DAV:  13    -0.472426130569E+03   -0.21876E-03   -0.47743E-05  1336   0.164E-02    0.481E-03
DAV:  14    -0.472426289620E+03   -0.15905E-03   -0.28257E-05  1088   0.986E-03    0.808E-03
DAV:  15    -0.472426342378E+03   -0.52758E-04   -0.82011E-06  1088   0.117E-02    0.319E-03
DAV:  16    -0.472426383745E+03   -0.41366E-04   -0.59339E-06  1008   0.692E-03    0.170E-03
DAV:  17    -0.472426398324E+03   -0.14579E-04   -0.25582E-06  1016   0.789E-03    0.306E-03
DAV:  18    -0.472426414266E+03   -0.15943E-04   -0.23458E-06   996   0.502E-03    0.104E-03
DAV:  19    -0.472426420441E+03   -0.61743E-05   -0.11235E-06   968   0.390E-03
  19 F= -.47242642E+03 E0= -.47240170E+03  d E =-.900537E+00
       N       E                     dE             d eps       ncg     rms          rms(c)
DAV:   1    -0.472299899482E+03    0.12651E+00   -0.30111E+02  1432   0.335E+01    0.226E+00
DAV:   2    -0.472969265899E+03   -0.66937E+00   -0.71265E+00  1848   0.630E+00    0.165E+00
DAV:   3    -0.472981301146E+03   -0.12035E-01   -0.33878E-01  2128   0.224E+00    0.170E+00
DAV:   4    -0.472975825930E+03    0.54752E-02   -0.16303E-01  2072   0.280E+00    0.189E+00
DAV:   5    -0.472962914171E+03    0.12912E-01   -0.19105E-01  2136   0.205E+00    0.107E+00
DAV:   6    -0.472954923517E+03    0.79907E-02   -0.36428E-02  2024   0.948E-01    0.204E-01
DAV:   7    -0.472955076457E+03   -0.15294E-03   -0.29792E-03  1936   0.179E-01    0.233E-01
DAV:   8    -0.472954794228E+03    0.28223E-03   -0.69997E-04  2024   0.131E-01    0.979E-02
DAV:   9    -0.472954891899E+03   -0.97671E-04   -0.18699E-04  1808   0.650E-02    0.504E-02
DAV:  10    -0.472954982465E+03   -0.90565E-04   -0.64824E-05  1248   0.390E-02    0.990E-03
DAV:  11    -0.472955050655E+03   -0.68190E-04   -0.17007E-05  1092   0.152E-02    0.740E-03
DAV:  12    -0.472955127154E+03   -0.76499E-04   -0.10096E-05  1008   0.104E-02    0.565E-03
DAV:  13    -0.472955204508E+03   -0.77354E-04   -0.12971E-05  1040   0.101E-02    0.325E-03
DAV:  14    -0.472955241115E+03   -0.36606E-04   -0.61939E-06  1064   0.804E-03    0.306E-03
DAV:  15    -0.472955261461E+03   -0.20346E-04   -0.37788E-06  1000   0.677E-03    0.127E-03
DAV:  16    -0.472955273203E+03   -0.11742E-04   -0.23210E-06   976   0.493E-03    0.119E-03
DAV:  17    -0.472955278348E+03   -0.51447E-05   -0.14216E-06   936   0.415E-03
  20 F= -.47295528E+03 E0= -.47293547E+03  d E =-.528858E+00
       N       E                     dE             d eps       ncg     rms          rms(c)
DAV:   1    -0.472410069461E+03    0.54520E+00   -0.34742E+02  1432   0.360E+01    0.247E+00
DAV:   2    -0.473142540680E+03   -0.73247E+00   -0.77988E+00  1832   0.635E+00    0.176E+00
DAV:   3    -0.473188499107E+03   -0.45958E-01   -0.74978E-01  2128   0.390E+00    0.210E+00
DAV:   4    -0.473149668504E+03    0.38831E-01   -0.19449E-01  2136   0.334E+00    0.106E+00
DAV:   5    -0.473141136509E+03    0.85320E-02   -0.43670E-02  2024   0.825E-01    0.655E-01
DAV:   6    -0.473140238222E+03    0.89829E-03   -0.27855E-02  1984   0.791E-01    0.452E-01
DAV:   7    -0.473139827200E+03    0.41102E-03   -0.16101E-02  2116   0.631E-01    0.284E-01
DAV:   8    -0.473139261785E+03    0.56541E-03   -0.20561E-03  1992   0.195E-01    0.927E-02
DAV:   9    -0.473139318262E+03   -0.56477E-04   -0.33245E-04  1800   0.598E-02    0.517E-02
DAV:  10    -0.473139410333E+03   -0.92072E-04   -0.12715E-04  1544   0.507E-02    0.163E-02
DAV:  11    -0.473139480486E+03   -0.70152E-04   -0.19036E-05  1088   0.185E-02    0.103E-02
DAV:  12    -0.473139579302E+03   -0.98816E-04   -0.16656E-05  1032   0.144E-02    0.661E-03
DAV:  13    -0.473139645037E+03   -0.65736E-04   -0.92201E-06  1048   0.113E-02    0.265E-03
DAV:  14    -0.473139708125E+03   -0.63088E-04   -0.12783E-05  1052   0.931E-03    0.428E-03
DAV:  15    -0.473139728826E+03   -0.20701E-04   -0.51545E-06  1056   0.110E-02    0.250E-03
DAV:  16    -0.473139740484E+03   -0.11658E-04   -0.26361E-06   912   0.569E-03    0.117E-03
DAV:  17    -0.473139747407E+03   -0.69230E-05   -0.20036E-06   976   0.492E-03
  21 F= -.47313975E+03 E0= -.47312644E+03  d E =-.713327E+00
       N       E                     dE             d eps       ncg     rms          rms(c)
DAV:   1    -0.473208172345E+03   -0.68432E-01   -0.21151E+02  1392   0.311E+01    0.217E+00
DAV:   2    -0.473687119530E+03   -0.47895E+00   -0.53025E+00  2008   0.592E+00    0.149E+00
DAV:   3    -0.473692719635E+03   -0.56001E-02   -0.28749E-01  2104   0.285E+00    0.257E+00
DAV:   4    -0.473677037070E+03    0.15683E-01   -0.50019E-01  2136   0.280E+00    0.135E+00
DAV:   5    -0.473662747199E+03    0.14290E-01   -0.36986E-02  1940   0.946E-01    0.611E-01
DAV:   6    -0.473660055904E+03    0.26913E-02   -0.15409E-02  1968   0.642E-01    0.136E-01
DAV:   7    -0.473660365954E+03   -0.31005E-03   -0.22929E-03  1800   0.148E-01    0.125E-01
DAV:   8    -0.473660368690E+03   -0.27357E-05   -0.29696E-04  2088   0.841E-02    0.606E-02
DAV:   9    -0.473660440553E+03   -0.71864E-04   -0.68681E-05  1352   0.296E-02    0.249E-02
DAV:  10    -0.473660517228E+03   -0.76675E-04   -0.28935E-05  1120   0.287E-02    0.646E-03
DAV:  11    -0.473660577187E+03   -0.59959E-04   -0.14863E-05  1120   0.123E-02    0.444E-03
DAV:  12    -0.473660644848E+03   -0.67661E-04   -0.77178E-06  1000   0.967E-03    0.228E-03
DAV:  13    -0.473660685250E+03   -0.40402E-04   -0.60680E-06  1064   0.737E-03    0.210E-03
DAV:  14    -0.473660711151E+03   -0.25901E-04   -0.35234E-06   976   0.560E-03    0.120E-03
DAV:  15    -0.473660726851E+03   -0.15700E-04   -0.32267E-06  1020   0.466E-03    0.634E-04
DAV:  16    -0.473660732794E+03   -0.59435E-05   -0.13762E-06  1000   0.374E-03
  22 F= -.47366073E+03 E0= -.47364867E+03  d E =-.520985E+00
       N       E                     dE             d eps       ncg     rms          rms(c)
DAV:   1    -0.473524050920E+03    0.13668E+00   -0.12127E+02  1376   0.232E+01    0.162E+00
DAV:   2    -0.473799277559E+03   -0.27523E+00   -0.30572E+00  2032   0.461E+00    0.114E+00
DAV:   3    -0.473803546412E+03   -0.42689E-02   -0.18287E-01  2128   0.227E+00    0.194E+00
DAV:   4    -0.473792380580E+03    0.11166E-01   -0.29167E-01  2104   0.218E+00    0.104E+00
DAV:   5    -0.473784305118E+03    0.80755E-02   -0.26427E-02  1944   0.762E-01    0.405E-01
DAV:   6    -0.473783248026E+03    0.10571E-02   -0.82412E-03  1960   0.425E-01    0.955E-02
DAV:   7    -0.473783387643E+03   -0.13962E-03   -0.11480E-03  1808   0.104E-01    0.778E-02
DAV:   8    -0.473783401530E+03   -0.13887E-04   -0.13328E-04  1880   0.528E-02    0.385E-02
DAV:   9    -0.473783446716E+03   -0.45186E-04   -0.34287E-05  1176   0.181E-02    0.147E-02
DAV:  10    -0.473783492601E+03   -0.45884E-04   -0.14651E-05  1028   0.170E-02    0.476E-03
DAV:  11    -0.473783529150E+03   -0.36549E-04   -0.68426E-06  1040   0.989E-03    0.283E-03
DAV:  12    -0.473783578434E+03   -0.49284E-04   -0.63607E-06  1028   0.784E-03    0.164E-03
DAV:  13    -0.473783599179E+03   -0.20745E-04   -0.36330E-06  1008   0.625E-03    0.144E-03
DAV:  14    -0.473783609171E+03   -0.99911E-05   -0.22137E-06   984   0.456E-03
  23 F= -.47378361E+03 E0= -.47377222E+03  d E =-.643862E+00
       N       E                     dE             d eps       ncg     rms          rms(c)
DAV:   1    -0.473964279014E+03   -0.18068E+00   -0.19539E+02  1408   0.313E+01    0.263E+00
DAV:   2    -0.474436426526E+03   -0.47215E+00   -0.54929E+00  2040   0.919E+00    0.281E+00
DAV:   3    -0.474365386507E+03    0.71040E-01   -0.91432E-01  2096   0.773E+00    0.243E+00
DAV:   4    -0.474346444150E+03    0.18942E-01   -0.58484E-01  2128   0.313E+00    0.131E+00
DAV:   5    -0.474333404810E+03    0.13039E-01   -0.12927E-01  2088   0.186E+00    0.685E-01
DAV:   6    -0.474331477995E+03    0.19268E-02   -0.26133E-02  1928   0.546E-01    0.119E-01
DAV:   7    -0.474331602109E+03   -0.12411E-03   -0.16794E-03  1856   0.132E-01    0.946E-02
DAV:   8    -0.474331628788E+03   -0.26679E-04   -0.36479E-04  1952   0.746E-02    0.406E-02
DAV:   9    -0.474331707849E+03   -0.79061E-04   -0.67992E-05  1440   0.240E-02    0.132E-02
DAV:  10    -0.474331765851E+03   -0.58002E-04   -0.10373E-05   976   0.124E-02    0.104E-02
DAV:  11    -0.474331827344E+03   -0.61493E-04   -0.76415E-06   960   0.132E-02    0.393E-03
DAV:  12    -0.474331888563E+03   -0.61219E-04   -0.81885E-06   944   0.849E-03    0.262E-03
DAV:  13    -0.474331925095E+03   -0.36531E-04   -0.50520E-06   992   0.710E-03    0.216E-03
DAV:  14    -0.474331942507E+03   -0.17412E-04   -0.27682E-06   944   0.493E-03    0.899E-04
DAV:  15    -0.474331946425E+03   -0.39180E-05   -0.17983E-06   936   0.409E-03
  24 F= -.47433195E+03 E0= -.47432581E+03  d E =-.548337E+00
       N       E                     dE             d eps       ncg     rms          rms(c)
DAV:   1    -0.474025209125E+03    0.30673E+00   -0.58126E+02  1480   0.559E+01    0.458E+00
DAV:   2    -0.474838768771E+03   -0.81356E+00   -0.10397E+01  2056   0.129E+01    0.354E+00
DAV:   3    -0.474772300306E+03    0.66468E-01   -0.16702E+00  2068   0.118E+01    0.461E+00
DAV:   4    -0.474709113640E+03    0.63187E-01   -0.23600E+00  2104   0.516E+00    0.204E+00
DAV:   5    -0.474669634738E+03    0.39479E-01   -0.18404E-01  2056   0.282E+00    0.837E-01
DAV:   6    -0.474673809376E+03   -0.41746E-02   -0.62929E-02  2016   0.102E+00    0.776E-01
DAV:   7    -0.474669041961E+03    0.47674E-02   -0.44718E-02  2056   0.958E-01    0.142E-01
DAV:   8    -0.474669536421E+03   -0.49446E-03   -0.19496E-03  1840   0.154E-01    0.767E-02
DAV:   9    -0.474669730802E+03   -0.19438E-03   -0.73698E-04  1856   0.114E-01    0.529E-02
DAV:  10    -0.474669861719E+03   -0.13092E-03   -0.13129E-04  1152   0.540E-02    0.155E-02
DAV:  11    -0.474669999273E+03   -0.13755E-03   -0.39418E-05  1312   0.208E-02    0.716E-03
DAV:  12    -0.474670129353E+03   -0.13008E-03   -0.17729E-05   976   0.196E-02    0.742E-03
DAV:  13    -0.474670215521E+03   -0.86168E-04   -0.10708E-05   976   0.130E-02    0.353E-03
DAV:  14    -0.474670276763E+03   -0.61242E-04   -0.12160E-05  1044   0.841E-03    0.152E-03
DAV:  15    -0.474670295372E+03   -0.18609E-04   -0.27521E-06   992   0.656E-03    0.996E-04
DAV:  16    -0.474670301317E+03   -0.59448E-05   -0.18792E-06   908   0.461E-03
  25 F= -.47467030E+03 E0= -.47466889E+03  d E =-.886692E+00
       N       E                     dE             d eps       ncg     rms          rms(c)
DAV:   1    -0.474670225275E+03    0.70097E-04   -0.20632E+02  1392   0.341E+01    0.311E+00
DAV:   2    -0.475230602923E+03   -0.56038E+00   -0.67597E+00  2032   0.107E+01    0.308E+00
DAV:   3    -0.475123242139E+03    0.10736E+00   -0.98162E-01  2088   0.881E+00    0.190E+00
DAV:   4    -0.475103406492E+03    0.19836E-01   -0.34910E-01  2128   0.280E+00    0.118E+00
DAV:   5    -0.475096515264E+03    0.68912E-02   -0.12164E-01  2104   0.212E+00    0.719E-01
DAV:   6    -0.475093502364E+03    0.30129E-02   -0.44966E-02  2024   0.102E+00    0.182E-01
DAV:   7    -0.475093694527E+03   -0.19216E-03   -0.54678E-03  1952   0.350E-01    0.112E-01
DAV:   8    -0.475093651596E+03    0.42932E-04   -0.53557E-04  1960   0.101E-01    0.524E-02
DAV:   9    -0.475093736804E+03   -0.85208E-04   -0.13731E-04  1728   0.329E-02    0.149E-02
DAV:  10    -0.475093781679E+03   -0.44876E-04   -0.24800E-05  1144   0.283E-02    0.800E-03
DAV:  11    -0.475093835540E+03   -0.53861E-04   -0.66287E-06   944   0.130E-02    0.416E-03
DAV:  12    -0.475093889501E+03   -0.53961E-04   -0.78140E-06   988   0.110E-02    0.194E-03
DAV:  13    -0.475093927571E+03   -0.38070E-04   -0.56469E-06   952   0.826E-03    0.170E-03
DAV:  14    -0.475093941967E+03   -0.14396E-04   -0.28805E-06   968   0.587E-03    0.142E-03
DAV:  15    -0.475093949881E+03   -0.79141E-05   -0.19998E-06   944   0.555E-03
  26 F= -.47509395E+03 E0= -.47509341E+03  d E =-.423649E+00
       N       E                     dE             d eps       ncg     rms          rms(c)
DAV:   1    -0.475011172357E+03    0.82770E-01   -0.74591E+01  1376   0.203E+01    0.186E+00
DAV:   2    -0.475224022943E+03   -0.21285E+00   -0.25407E+00  2008   0.673E+00    0.212E+00
DAV:   3    -0.475174274099E+03    0.49749E-01   -0.44509E-01  2120   0.536E+00    0.106E+00
DAV:   4    -0.475166470734E+03    0.78034E-02   -0.83126E-02  2104   0.152E+00    0.641E-01
DAV:   5    -0.475164832029E+03    0.16387E-02   -0.31837E-02  2048   0.101E+00    0.351E-01
DAV:   6    -0.475164152650E+03    0.67938E-03   -0.10494E-02  2000   0.527E-01    0.959E-02
DAV:   7    -0.475164229588E+03   -0.76937E-04   -0.12517E-03  1936   0.175E-01    0.657E-02
DAV:   8    -0.475164223551E+03    0.60368E-05   -0.20694E-04  1568   0.716E-02    0.246E-02
DAV:   9    -0.475164263487E+03   -0.39936E-04   -0.41697E-05  1204   0.241E-02    0.704E-03
DAV:  10    -0.475164285075E+03   -0.21587E-04   -0.82155E-06   976   0.184E-02    0.453E-03
DAV:  11    -0.475164310702E+03   -0.25627E-04   -0.48179E-06   940   0.110E-02    0.166E-03
DAV:  12    -0.475164328600E+03   -0.17898E-04   -0.39218E-06   960   0.720E-03    0.160E-03
DAV:  13    -0.475164341068E+03   -0.12468E-04   -0.24880E-06   928   0.881E-03    0.245E-03
DAV:  14    -0.475164348247E+03   -0.71789E-05   -0.18181E-06   960   0.600E-03
  27 F= -.47516435E+03 E0= -.47516404E+03  d E =-.494047E+00
       N       E                     dE             d eps       ncg     rms          rms(c)
DAV:   1    -0.475301424580E+03   -0.13708E+00   -0.85505E+01  1376   0.236E+01    0.196E+00
DAV:   2    -0.475513006845E+03   -0.21158E+00   -0.25196E+00  2040   0.588E+00    0.167E+00
DAV:   3    -0.475503995390E+03    0.90115E-02   -0.38572E-01  2064   0.450E+00    0.165E+00
DAV:   4    -0.475485317126E+03    0.18678E-01   -0.23077E-01  2040   0.230E+00    0.822E-01
DAV:   5    -0.475481978001E+03    0.33391E-02   -0.28877E-02  2032   0.101E+00    0.344E-01
DAV:   6    -0.475482032053E+03   -0.54052E-04   -0.59459E-03  1736   0.205E-01    0.108E-01
DAV:   7    -0.475482084760E+03   -0.52707E-04   -0.79840E-04  1992   0.140E-01    0.599E-02
DAV:   8    -0.475482161665E+03   -0.76905E-04   -0.94057E-05  1624   0.310E-02    0.266E-02
DAV:   9    -0.475482234620E+03   -0.72955E-04   -0.19569E-05   976   0.158E-02    0.949E-03
DAV:  10    -0.475482288520E+03   -0.53901E-04   -0.89189E-06   952   0.129E-02    0.441E-03
DAV:  11    -0.475482330345E+03   -0.41824E-04   -0.56903E-06   936   0.854E-03    0.251E-03
DAV:  12    -0.475482386260E+03   -0.55915E-04   -0.79511E-06   992   0.801E-03    0.243E-03
DAV:  13    -0.475482397102E+03   -0.10842E-04   -0.26623E-06   984   0.564E-03    0.109E-03
DAV:  14    -0.475482407931E+03   -0.10829E-04   -0.19533E-06   920   0.389E-03    0.878E-04
DAV:  15    -0.475482414123E+03   -0.61924E-05   -0.11763E-06   976   0.429E-03
  28 F= -.47548241E+03 E0= -.47548224E+03  d E =-.318066E+00
       N       E                     dE             d eps       ncg     rms          rms(c)
DAV:   1    -0.475455766659E+03    0.26641E-01   -0.47017E+01  1376   0.174E+01    0.145E+00
DAV:   2    -0.475570774563E+03   -0.11501E+00   -0.13712E+00  2016   0.449E+00    0.133E+00
DAV:   3    -0.475562674971E+03    0.80996E-02   -0.23080E-01  2040   0.345E+00    0.114E+00
DAV:   4    -0.475552806318E+03    0.98687E-02   -0.98200E-02  2024   0.163E+00    0.577E-01
DAV:   5    -0.475551429399E+03    0.13769E-02   -0.14678E-02  2008   0.688E-01    0.240E-01
DAV:   6    -0.475551449476E+03   -0.20077E-04   -0.32583E-03  1816   0.175E-01    0.703E-02
DAV:   7    -0.475551495342E+03   -0.45865E-04   -0.33270E-04  1928   0.655E-02    0.430E-02
DAV:   8    -0.475551535746E+03   -0.40404E-04   -0.38771E-05  1288   0.215E-02    0.184E-02
DAV:   9    -0.475551578501E+03   -0.42755E-04   -0.12820E-05   912   0.141E-02    0.628E-03
DAV:  10    -0.475551610458E+03   -0.31956E-04   -0.52268E-06   944   0.104E-02    0.322E-03
DAV:  11    -0.475551641509E+03   -0.31051E-04   -0.39051E-06   912   0.703E-03    0.177E-03
DAV:  12    -0.475551664049E+03   -0.22539E-04   -0.29647E-06   968   0.662E-03    0.153E-03
DAV:  13    -0.475551680740E+03   -0.16691E-04   -0.24228E-06   936   0.471E-03    0.804E-04
DAV:  14    -0.475551687624E+03   -0.68840E-05   -0.14740E-06   984   0.426E-03
  29 F= -.47555169E+03 E0= -.47555156E+03  d E =-.387339E+00
       N       E                     dE             d eps       ncg     rms          rms(c)
DAV:   1    -0.475670683087E+03   -0.11900E+00   -0.59299E+01  1376   0.203E+01    0.167E+00
DAV:   2    -0.475800385043E+03   -0.12970E+00   -0.15667E+00  2056   0.461E+00    0.132E+00
DAV:   3    -0.475796392592E+03    0.39925E-02   -0.23578E-01  2048   0.354E+00    0.133E+00
DAV:   4    -0.475783544131E+03    0.12848E-01   -0.14357E-01  2016   0.196E+00    0.651E-01
DAV:   5    -0.475781703535E+03    0.18406E-02   -0.16706E-02  1992   0.756E-01    0.252E-01
DAV:   6    -0.475781959551E+03   -0.25602E-03   -0.32556E-03  1616   0.150E-01    0.732E-02
DAV:   7    -0.475781992929E+03   -0.33379E-04   -0.50622E-04  2008   0.107E-01    0.408E-02
DAV:   8    -0.475782031703E+03   -0.38774E-04   -0.52522E-05  1256   0.276E-02    0.192E-02
DAV:   9    -0.475782073650E+03   -0.41947E-04   -0.15520E-05   984   0.151E-02    0.736E-03
DAV:  10    -0.475782106751E+03   -0.33101E-04   -0.68275E-06   944   0.131E-02    0.308E-03
DAV:  11    -0.475782132573E+03   -0.25822E-04   -0.45405E-06   952   0.729E-03    0.163E-03
DAV:  12    -0.475782156906E+03   -0.24333E-04   -0.30545E-06   920   0.582E-03    0.141E-03
DAV:  13    -0.475782171806E+03   -0.14900E-04   -0.20551E-06   936   0.501E-03    0.863E-04
DAV:  14    -0.475782181057E+03   -0.92509E-05   -0.15230E-06   952   0.407E-03
  30 F= -.47578218E+03 E0= -.47578213E+03  d E =-.230493E+00
       N       E                     dE             d eps       ncg     rms          rms(c)
DAV:   1    -0.475771530648E+03    0.10641E-01   -0.35952E+01  1376   0.158E+01    0.129E+00
DAV:   2    -0.475848743426E+03   -0.77213E-01   -0.93657E-01  2048   0.367E+00    0.108E+00
DAV:   3    -0.475844363623E+03    0.43798E-02   -0.14826E-01  2052   0.284E+00    0.971E-01
DAV:   4    -0.475837010053E+03    0.73536E-02   -0.68905E-02  2016   0.146E+00    0.483E-01
DAV:   5    -0.475836197670E+03    0.81238E-03   -0.93484E-03  1952   0.549E-01    0.188E-01
DAV:   6    -0.475836335328E+03   -0.13766E-03   -0.18954E-03  1808   0.129E-01    0.526E-02
DAV:   7    -0.475836357990E+03   -0.22663E-04   -0.22586E-04  1888   0.599E-02    0.308E-02
DAV:   8    -0.475836383224E+03   -0.25234E-04   -0.21451E-05   968   0.190E-02    0.141E-02
DAV:   9    -0.475836412299E+03   -0.29075E-04   -0.15187E-05  1032   0.149E-02    0.545E-03
DAV:  10    -0.475836435230E+03   -0.22931E-04   -0.43195E-06   936   0.904E-03    0.235E-03
DAV:  11    -0.475836450985E+03   -0.15755E-04   -0.23979E-06   944   0.611E-03    0.144E-03
DAV:  12    -0.475836468885E+03   -0.17900E-04   -0.20050E-06   912   0.543E-03    0.124E-03
DAV:  13    -0.475836478717E+03   -0.98318E-05   -0.13572E-06   960   0.424E-03
  31 F= -.47583648E+03 E0= -.47583645E+03  d E =-.284791E+00
       N       E                     dE             d eps       ncg     rms          rms(c)
DAV:   1    -0.475926622942E+03   -0.90154E-01   -0.71692E+01  1376   0.226E+01    0.183E+00
DAV:   2    -0.476088211209E+03   -0.16159E+00   -0.19967E+00  2016   0.581E+00    0.176E+00
DAV:   3    -0.476062504676E+03    0.25707E-01   -0.32762E-01  2072   0.472E+00    0.118E+00
DAV:   4    -0.476052562748E+03    0.99419E-02   -0.89614E-02  2000   0.158E+00    0.621E-01
DAV:   5    -0.476051627553E+03    0.93519E-03   -0.22904E-02  1868   0.895E-01    0.277E-01
DAV:   6    -0.476051528237E+03    0.99316E-04   -0.56712E-03  1976   0.360E-01    0.759E-02
DAV:   7    -0.476051573209E+03   -0.44972E-04   -0.48669E-04  1716   0.674E-02    0.457E-02
DAV:   8    -0.476051610049E+03   -0.36840E-04   -0.10801E-04  1736   0.380E-02    0.175E-02
DAV:   9    -0.476051642814E+03   -0.32765E-04   -0.12862E-05  1024   0.166E-02    0.635E-03
DAV:  10    -0.476051675763E+03   -0.32949E-04   -0.52064E-06   928   0.962E-03    0.310E-03
DAV:  11    -0.476051724986E+03   -0.49224E-04   -0.49991E-06   928   0.844E-03    0.160E-03
DAV:  12    -0.476051750988E+03   -0.26001E-04   -0.36300E-06   960   0.659E-03    0.124E-03
DAV:  13    -0.476051766540E+03   -0.15553E-04   -0.25470E-06   944   0.500E-03    0.651E-04
DAV:  14    -0.476051773282E+03   -0.67419E-05   -0.16709E-06   960   0.460E-03
  32 F= -.47605177E+03 E0= -.47605176E+03  d E =-.215295E+00
       N       E                     dE             d eps       ncg     rms          rms(c)
DAV:   1    -0.476040779958E+03    0.10987E-01   -0.30862E+01  1376   0.148E+01    0.118E+00
DAV:   2    -0.476106026805E+03   -0.65247E-01   -0.81380E-01  1988   0.366E+00    0.118E+00
DAV:   3    -0.476094995613E+03    0.11031E-01   -0.14685E-01  2044   0.293E+00    0.772E-01
DAV:   4    -0.476090578975E+03    0.44166E-02   -0.34787E-02  1968   0.101E+00    0.388E-01
DAV:   5    -0.476090393003E+03    0.18597E-03   -0.82437E-03  1848   0.464E-01    0.156E-01
DAV:   6    -0.476090412499E+03   -0.19496E-04   -0.17921E-03  1912   0.199E-01    0.501E-02
DAV:   7    -0.476090430845E+03   -0.18345E-04   -0.16532E-04  1728   0.405E-02    0.292E-02
DAV:   8    -0.476090451580E+03   -0.20736E-04   -0.38963E-05  1224   0.237E-02    0.942E-03
DAV:   9    -0.476090469140E+03   -0.17560E-04   -0.71465E-06   976   0.144E-02    0.360E-03
DAV:  10    -0.476090487723E+03   -0.18584E-04   -0.39340E-06   892   0.758E-03    0.215E-03
DAV:  11    -0.476090510537E+03   -0.22813E-04   -0.25635E-06   916   0.770E-03    0.115E-03
DAV:  12    -0.476090519055E+03   -0.85184E-05   -0.17519E-06   968   0.508E-03
  33 F= -.47609052E+03 E0= -.47609051E+03  d E =-.254040E+00
       N       E                     dE             d eps       ncg     rms          rms(c)
DAV:   1    -0.476118241886E+03   -0.27731E-01   -0.78931E+01  1376   0.242E+01    0.179E+00
DAV:   2    -0.476268851227E+03   -0.15061E+00   -0.18686E+00  2032   0.476E+00    0.133E+00
DAV:   3    -0.476267038167E+03    0.18131E-02   -0.20524E-01  2032   0.314E+00    0.134E+00
DAV:   4    -0.476255377009E+03    0.11661E-01   -0.16736E-01  1988   0.204E+00    0.735E-01
DAV:   5    -0.476252376501E+03    0.30005E-02   -0.21076E-02  1856   0.905E-01    0.221E-01
DAV:   6    -0.476252910631E+03   -0.53413E-03   -0.38104E-03  1696   0.157E-01    0.846E-02
DAV:   7    -0.476252944361E+03   -0.33730E-04   -0.52531E-04  1848   0.111E-01    0.437E-02
DAV:   8    -0.476253007230E+03   -0.62869E-04   -0.98526E-05  1720   0.409E-02    0.170E-02
DAV:   9    -0.476253063002E+03   -0.55773E-04   -0.13232E-05  1016   0.162E-02    0.737E-03
DAV:  10    -0.476253117616E+03   -0.54613E-04   -0.62411E-06   912   0.114E-02    0.316E-03
DAV:  11    -0.476253178571E+03   -0.60955E-04   -0.73976E-06   964   0.758E-03    0.200E-03
DAV:  12    -0.476253225891E+03   -0.47320E-04   -0.57557E-06   988   0.692E-03    0.159E-03
DAV:  13    -0.476253248691E+03   -0.22800E-04   -0.39742E-06   960   0.585E-03    0.116E-03
DAV:  14    -0.476253258134E+03   -0.94430E-05   -0.23376E-06   964   0.552E-03
  34 F= -.47625326E+03 E0= -.47625325E+03  d E =-.162739E+00
       N       E                     dE             d eps       ncg     rms          rms(c)
DAV:   1    -0.476253073634E+03    0.17506E-03   -0.37898E+00  1380   0.527E+00    0.388E-01
DAV:   2    -0.476259376510E+03   -0.63029E-02   -0.80991E-02  2004   0.104E+00    0.308E-01
DAV:   3    -0.476259288845E+03    0.87666E-04   -0.12855E-02  1996   0.704E-01    0.289E-01
DAV:   4    -0.476258596473E+03    0.69237E-03   -0.62913E-03  1944   0.449E-01    0.143E-01
DAV:   5    -0.476258565942E+03    0.30531E-04   -0.88197E-04  1820   0.156E-01    0.461E-02
DAV:   6    -0.476258587965E+03   -0.22023E-04   -0.13415E-04  1696   0.346E-02    0.160E-02
DAV:   7    -0.476258590900E+03   -0.29346E-05   -0.12869E-05   940   0.138E-02
  35 F= -.47625859E+03 E0= -.47625858E+03  d E =-.168072E+00
       N       E                     dE             d eps       ncg     rms          rms(c)
DAV:   1    -0.476299953259E+03   -0.41365E-01   -0.54103E+01  1376   0.203E+01    0.160E+00
DAV:   2    -0.476391877986E+03   -0.91925E-01   -0.12126E+00  1996   0.322E+00    0.996E-01
DAV:   3    -0.476385458194E+03    0.64198E-02   -0.59978E-02  1968   0.105E+00    0.685E-01
DAV:   4    -0.476390092974E+03   -0.46348E-02   -0.66987E-02  1920   0.159E+00    0.870E-01
DAV:   5    -0.476383661598E+03    0.64314E-02   -0.63285E-02  1948   0.130E+00    0.285E-01
DAV:   6    -0.476383710382E+03   -0.48784E-04   -0.45582E-03  1824   0.353E-01    0.627E-02
DAV:   7    -0.476383763344E+03   -0.52962E-04   -0.55542E-04  1752   0.667E-02    0.389E-02
DAV:   8    -0.476383812065E+03   -0.48720E-04   -0.58071E-05  1448   0.267E-02    0.171E-02
DAV:   9    -0.476383852071E+03   -0.40006E-04   -0.91770E-06   944   0.118E-02    0.725E-03
DAV:  10    -0.476383888805E+03   -0.36735E-04   -0.51237E-06   940   0.792E-03    0.297E-03
DAV:  11    -0.476383929898E+03   -0.41093E-04   -0.46060E-06   940   0.686E-03    0.189E-03
DAV:  12    -0.476383949060E+03   -0.19162E-04   -0.25245E-06   968   0.560E-03    0.116E-03
DAV:  13    -0.476383965339E+03   -0.16279E-04   -0.24291E-06   932   0.453E-03    0.666E-04
DAV:  14    -0.476383971723E+03   -0.63841E-05   -0.14583E-06   968   0.413E-03
  36 F= -.47638397E+03 E0= -.47638397E+03  d E =-.125381E+00
       N       E                     dE             d eps       ncg     rms          rms(c)
DAV:   1    -0.476384357641E+03   -0.39230E-03   -0.26373E+00  1376   0.448E+00    0.347E-01
DAV:   2    -0.476388499076E+03   -0.41414E-02   -0.56361E-02  1980   0.703E-01    0.217E-01
DAV:   3    -0.476388168280E+03    0.33080E-03   -0.24793E-03  1808   0.169E-01    0.136E-01
DAV:   4    -0.476388215666E+03   -0.47386E-04   -0.11164E-03  1764   0.183E-01    0.995E-02
DAV:   5    -0.476388216952E+03   -0.12863E-05   -0.15314E-03  1608   0.234E-01    0.832E-02
DAV:   6    -0.476388158063E+03    0.58890E-04   -0.42441E-04  1288   0.130E-01    0.135E-02
DAV:   7    -0.476388165452E+03   -0.73893E-05   -0.29599E-05  1160   0.179E-02
  37 F= -.47638817E+03 E0= -.47638816E+03  d E =-.129575E+00
       N       E                     dE             d eps       ncg     rms          rms(c)
DAV:   1    -0.476439134824E+03   -0.50977E-01   -0.53102E+01  1376   0.200E+01    0.154E+00
DAV:   2    -0.476519823086E+03   -0.80688E-01   -0.10765E+00  1924   0.294E+00    0.962E-01
DAV:   3    -0.476513869692E+03    0.59534E-02   -0.50689E-02  1976   0.976E-01    0.625E-01
DAV:   4    -0.476517728119E+03   -0.38584E-02   -0.52587E-02  1940   0.137E+00    0.788E-01
DAV:   5    -0.476512653515E+03    0.50746E-02   -0.52189E-02  1940   0.120E+00    0.259E-01
DAV:   6    -0.476512715089E+03   -0.61575E-04   -0.36038E-03  1848   0.301E-01    0.650E-02
DAV:   7    -0.476512773548E+03   -0.58458E-04   -0.45129E-04  1848   0.779E-02    0.365E-02
DAV:   8    -0.476512820025E+03   -0.46477E-04   -0.51769E-05  1432   0.294E-02    0.140E-02
DAV:   9    -0.476512851934E+03   -0.31910E-04   -0.74060E-06   952   0.107E-02    0.604E-03
DAV:  10    -0.476512884400E+03   -0.32465E-04   -0.46088E-06   936   0.719E-03    0.260E-03
DAV:  11    -0.476512925887E+03   -0.41487E-04   -0.43755E-06   956   0.707E-03    0.191E-03
DAV:  12    -0.476512943094E+03   -0.17208E-04   -0.26038E-06   968   0.540E-03    0.117E-03
DAV:  13    -0.476512957991E+03   -0.14897E-04   -0.24340E-06   940   0.449E-03    0.862E-04
DAV:  14    -0.476512963950E+03   -0.59581E-05   -0.14233E-06   976   0.409E-03
  38 F= -.47651296E+03 E0= -.47651295E+03  d E =-.124798E+00
       N       E                     dE             d eps       ncg     rms          rms(c)
DAV:   1    -0.476508173730E+03    0.47843E-02   -0.16549E+01  1376   0.112E+01    0.842E-01
DAV:   2    -0.476533325153E+03   -0.25151E-01   -0.33621E-01  1892   0.165E+00    0.537E-01
DAV:   3    -0.476531576044E+03    0.17491E-02   -0.16790E-02  1972   0.593E-01    0.354E-01
DAV:   4    -0.476533065896E+03   -0.14899E-02   -0.19708E-02  1876   0.837E-01    0.459E-01
DAV:   5    -0.476531184055E+03    0.18818E-02   -0.16112E-02  1904   0.698E-01    0.130E-01
DAV:   6    -0.476531273018E+03   -0.88963E-04   -0.10396E-03  1800   0.147E-01    0.358E-02
DAV:   7    -0.476531288484E+03   -0.15466E-04   -0.12614E-04  1720   0.365E-02    0.205E-02
DAV:   8    -0.476531304878E+03   -0.16394E-04   -0.12892E-05   920   0.156E-02    0.753E-03
DAV:   9    -0.476531317854E+03   -0.12976E-04   -0.53641E-06   968   0.937E-03    0.354E-03
DAV:  10    -0.476531332604E+03   -0.14750E-04   -0.26934E-06   920   0.588E-03    0.151E-03
DAV:  11    -0.476531340214E+03   -0.76094E-05   -0.12959E-06   984   0.460E-03
  39 F= -.47653134E+03 E0= -.47653132E+03  d E =-.143175E+00
       N       E                     dE             d eps       ncg     rms          rms(c)
DAV:   1    -0.476573440455E+03   -0.42108E-01   -0.42834E+01  1376   0.179E+01    0.139E+00
DAV:   2    -0.476641333279E+03   -0.67893E-01   -0.89631E-01  1856   0.270E+00    0.884E-01
DAV:   3    -0.476640613826E+03    0.71945E-03   -0.94188E-02  2064   0.181E+00    0.892E-01
DAV:   4    -0.476636458601E+03    0.41552E-02   -0.76693E-02  1928   0.150E+00    0.543E-01
DAV:   5    -0.476634719944E+03    0.17387E-02   -0.12513E-02  1880   0.670E-01    0.168E-01
DAV:   6    -0.476635128347E+03   -0.40840E-03   -0.19353E-03  1696   0.113E-01    0.561E-02
DAV:   7    -0.476635149161E+03   -0.20813E-04   -0.28882E-04  1816   0.736E-02    0.293E-02
DAV:   8    -0.476635180802E+03   -0.31642E-04   -0.45361E-05  1208   0.361E-02    0.119E-02
DAV:   9    -0.476635206533E+03   -0.25731E-04   -0.10641E-05   992   0.175E-02    0.432E-03
DAV:  10    -0.476635236283E+03   -0.29750E-04   -0.62314E-06   976   0.908E-03    0.217E-03
DAV:  11    -0.476635257807E+03   -0.21525E-04   -0.36639E-06   976   0.828E-03    0.141E-03
DAV:  12    -0.476635277247E+03   -0.19439E-04   -0.36110E-06   976   0.520E-03    0.855E-04
DAV:  13    -0.476635286663E+03   -0.94169E-05   -0.19367E-06   980   0.466E-03
  40 F= -.47663529E+03 E0= -.47663526E+03  d E =-.103946E+00
       N       E                     dE             d eps       ncg     rms          rms(c)
DAV:   1    -0.476628361799E+03    0.69154E-02   -0.17402E+01  1376   0.114E+01    0.875E-01
DAV:   2    -0.476656288948E+03   -0.27927E-01   -0.36763E-01  1884   0.174E+00    0.572E-01
DAV:   3    -0.476656033106E+03    0.25584E-03   -0.40704E-02  2008   0.119E+00    0.582E-01
DAV:   4    -0.476654042730E+03    0.19904E-02   -0.30784E-02  1924   0.976E-01    0.337E-01
DAV:   5    -0.476653526818E+03    0.51591E-03   -0.51043E-03  1876   0.408E-01    0.104E-01
DAV:   6    -0.476653690819E+03   -0.16400E-03   -0.75173E-04  1696   0.761E-02    0.342E-02
DAV:   7    -0.476653700192E+03   -0.93730E-05   -0.99657E-05  1696   0.368E-02
  41 F= -.47665370E+03 E0= -.47665365E+03  d E =-.122360E+00
       N       E                     dE             d eps       ncg     rms          rms(c)
DAV:   1    -0.476687155793E+03   -0.33465E-01   -0.39327E+01  1376   0.170E+01    0.135E+00
DAV:   2    -0.476749446142E+03   -0.62290E-01   -0.84363E-01  1920   0.272E+00    0.892E-01
DAV:   3    -0.476750637779E+03   -0.11916E-02   -0.11720E-01  2036   0.215E+00    0.101E+00
DAV:   4    -0.476743292209E+03    0.73456E-02   -0.82252E-02  1960   0.151E+00    0.487E-01
DAV:   5    -0.476742444052E+03    0.84816E-03   -0.99970E-03  1876   0.551E-01    0.173E-01
DAV:   6    -0.476742824253E+03   -0.38020E-03   -0.16470E-03  1696   0.119E-01    0.542E-02
DAV:   7    -0.476742845951E+03   -0.21698E-04   -0.22383E-04  1832   0.641E-02    0.280E-02
DAV:   8    -0.476742889208E+03   -0.43257E-04   -0.24942E-05  1104   0.274E-02    0.102E-02
DAV:   9    -0.476742920436E+03   -0.31229E-04   -0.11190E-05  1040   0.140E-02    0.431E-03
DAV:  10    -0.476742950490E+03   -0.30054E-04   -0.50441E-06   984   0.794E-03    0.217E-03
DAV:  11    -0.476742971558E+03   -0.21068E-04   -0.24715E-06   920   0.585E-03    0.132E-03
DAV:  12    -0.476742995408E+03   -0.23850E-04   -0.33726E-06   936   0.459E-03    0.126E-03
DAV:  13    -0.476743004672E+03   -0.92643E-05   -0.14917E-06   984   0.453E-03
  42 F= -.47674300E+03 E0= -.47674294E+03  d E =-.893045E-01
       N       E                     dE             d eps       ncg     rms          rms(c)
DAV:   1    -0.476734969136E+03    0.80263E-02   -0.18032E+01  1376   0.115E+01    0.899E-01
DAV:   2    -0.476763589292E+03   -0.28620E-01   -0.38645E-01  1912   0.185E+00    0.605E-01
DAV:   3    -0.476764081105E+03   -0.49181E-03   -0.54129E-02  2040   0.146E+00    0.675E-01
DAV:   4    -0.476760617629E+03    0.34635E-02   -0.34460E-02  1948   0.104E+00    0.319E-01
DAV:   5    -0.476760400154E+03    0.21747E-03   -0.44591E-03  1828   0.361E-01    0.112E-01
DAV:   6    -0.476760569774E+03   -0.16962E-03   -0.71551E-04  1824   0.868E-02    0.352E-02
DAV:   7    -0.476760583635E+03   -0.13860E-04   -0.85063E-05  1548   0.316E-02    0.182E-02
DAV:   8    -0.476760601496E+03   -0.17862E-04   -0.93304E-06   920   0.169E-02    0.638E-03
DAV:   9    -0.476760614162E+03   -0.12666E-04   -0.46880E-06   936   0.970E-03    0.293E-03
DAV:  10    -0.476760627420E+03   -0.13258E-04   -0.31242E-06   920   0.666E-03    0.218E-03
DAV:  11    -0.476760636436E+03   -0.90162E-05   -0.15681E-06   960   0.630E-03
  43 F= -.47676064E+03 E0= -.47676056E+03  d E =-.106936E+00
       N       E                     dE             d eps       ncg     rms          rms(c)
DAV:   1    -0.476774911832E+03   -0.14284E-01   -0.48862E+01  1376   0.189E+01    0.150E+00
DAV:   2    -0.476854631659E+03   -0.79720E-01   -0.10425E+00  1840   0.306E+00    0.100E+00
DAV:   3    -0.476855693364E+03   -0.10617E-02   -0.14792E-01  2112   0.251E+00    0.117E+00
DAV:   4    -0.476845859404E+03    0.98340E-02   -0.10516E-01  1932   0.170E+00    0.536E-01
DAV:   5    -0.476844747321E+03    0.11121E-02   -0.12512E-02  1944   0.628E-01    0.178E-01
DAV:   6    -0.476845189904E+03   -0.44258E-03   -0.19206E-03  1688   0.129E-01    0.589E-02
DAV:   7    -0.476845226581E+03   -0.36677E-04   -0.26998E-04  1944   0.731E-02    0.297E-02
DAV:   8    -0.476845266935E+03   -0.40354E-04   -0.28077E-05  1140   0.306E-02    0.111E-02
DAV:   9    -0.476845298467E+03   -0.31532E-04   -0.13724E-05  1048   0.150E-02    0.466E-03
DAV:  10    -0.476845332574E+03   -0.34107E-04   -0.53602E-06   968   0.917E-03    0.218E-03
DAV:  11    -0.476845357076E+03   -0.24502E-04   -0.33408E-06   944   0.659E-03    0.148E-03
DAV:  12    -0.476845380648E+03   -0.23572E-04   -0.36284E-06   944   0.562E-03    0.119E-03
DAV:  13    -0.476845379971E+03    0.67744E-06   -0.17555E-06   900   0.477E-03
  44 F= -.47684538E+03 E0= -.47684522E+03  d E =-.847435E-01
       N       E                     dE             d eps       ncg     rms          rms(c)
DAV:   1    -0.476841207164E+03    0.41735E-02   -0.82405E+00  1376   0.777E+00    0.588E-01
DAV:   2    -0.476854654153E+03   -0.13447E-01   -0.17564E-01  1836   0.127E+00    0.419E-01
DAV:   3    -0.476854787357E+03   -0.13320E-03   -0.26485E-02  2036   0.103E+00    0.459E-01
DAV:   4    -0.476853090499E+03    0.16969E-02   -0.14196E-02  1928   0.718E-01    0.202E-01
DAV:   5    -0.476853092538E+03   -0.20389E-05   -0.19445E-03  1900   0.227E-01    0.650E-02
DAV:   6    -0.476853161784E+03   -0.69246E-04   -0.28195E-04  1824   0.599E-02    0.233E-02
DAV:   7    -0.476853169337E+03   -0.75523E-05   -0.31896E-05  1100   0.181E-02
  45 F= -.47685317E+03 E0= -.47685295E+03  d E =-.925329E-01
       N       E                     dE             d eps       ncg     rms          rms(c)
DAV:   1    -0.476867248327E+03   -0.14087E-01   -0.48900E+01  1424   0.188E+01    0.147E+00
DAV:   2    -0.476940231983E+03   -0.72984E-01   -0.95506E-01  1812   0.272E+00    0.874E-01
DAV:   3    -0.476937290621E+03    0.29414E-02   -0.66738E-02  2088   0.141E+00    0.781E-01
DAV:   4    -0.476937028414E+03    0.26221E-03   -0.72031E-02  1944   0.159E+00    0.658E-01
DAV:   5    -0.476933547177E+03    0.34812E-02   -0.17866E-02  1908   0.920E-01    0.178E-01
DAV:   6    -0.476934151586E+03   -0.60441E-03   -0.23974E-03  1792   0.142E-01    0.640E-02
DAV:   7    -0.476934189699E+03   -0.38113E-04   -0.35295E-04  1864   0.981E-02    0.347E-02
DAV:   8    -0.476934226015E+03   -0.36316E-04   -0.66091E-05  1216   0.491E-02    0.150E-02
DAV:   9    -0.476934258557E+03   -0.32543E-04   -0.17750E-05  1008   0.257E-02    0.467E-03
DAV:  10    -0.476934290448E+03   -0.31890E-04   -0.84395E-06   960   0.134E-02    0.327E-03
DAV:  11    -0.476934319985E+03   -0.29537E-04   -0.56068E-06   960   0.120E-02    0.163E-03
DAV:  12    -0.476934339169E+03   -0.19184E-04   -0.43712E-06   948   0.618E-03    0.128E-03
DAV:  13    -0.476934349038E+03   -0.98684E-05   -0.25867E-06   944   0.626E-03
  46 F= -.47693435E+03 E0= -.47693401E+03  d E =-.811797E-01
       N       E                     dE             d eps       ncg     rms          rms(c)
DAV:   1    -0.476923110937E+03    0.11228E-01   -0.19668E+01  1440   0.119E+01    0.892E-01
DAV:   2    -0.476951758184E+03   -0.28647E-01   -0.37785E-01  1820   0.173E+00    0.554E-01
DAV:   3    -0.476950768789E+03    0.98939E-03   -0.28843E-02  2052   0.947E-01    0.506E-01
DAV:   4    -0.476950325885E+03    0.44290E-03   -0.28740E-02  1888   0.104E+00    0.402E-01
DAV:   5    -0.476949226533E+03    0.10994E-02   -0.72571E-03  1924   0.553E-01    0.102E-01
DAV:   6    -0.476949461445E+03   -0.23491E-03   -0.86412E-04  1712   0.786E-02    0.377E-02
DAV:   7    -0.476949468572E+03   -0.71274E-05   -0.10608E-04  1656   0.478E-02    0.203E-02
DAV:   8    -0.476949488313E+03   -0.19741E-04   -0.14060E-05  1000   0.234E-02    0.793E-03
DAV:   9    -0.476949503755E+03   -0.15442E-04   -0.50104E-06   928   0.122E-02    0.247E-03
DAV:  10    -0.476949518891E+03   -0.15136E-04   -0.37479E-06   948   0.704E-03    0.205E-03
DAV:  11    -0.476949529707E+03   -0.10816E-04   -0.20771E-06   936   0.763E-03    0.104E-03
DAV:  12    -0.476949540345E+03   -0.10638E-04   -0.20430E-06   924   0.364E-03    0.726E-04
DAV:  13    -0.476949546158E+03   -0.58133E-05   -0.11346E-06   960   0.402E-03
  47 F= -.47694955E+03 E0= -.47694910E+03  d E =-.963768E-01
       N       E                     dE             d eps       ncg     rms          rms(c)
DAV:   1    -0.476974255967E+03   -0.24716E-01   -0.35335E+01  1440   0.160E+01    0.119E+00
DAV:   2    -0.477025491216E+03   -0.51235E-01   -0.67768E-01  1784   0.232E+00    0.736E-01
DAV:   3    -0.477023913139E+03    0.15781E-02   -0.53154E-02  2060   0.131E+00    0.696E-01
DAV:   4    -0.477022679979E+03    0.12332E-02   -0.51382E-02  1940   0.135E+00    0.523E-01
DAV:   5    -0.477020861689E+03    0.18183E-02   -0.11365E-02  1916   0.697E-01    0.147E-01
DAV:   6    -0.477021297120E+03   -0.43543E-03   -0.15649E-03  1772   0.110E-01    0.486E-02
DAV:   7    -0.477021327755E+03   -0.30635E-04   -0.22315E-04  1792   0.733E-02    0.253E-02
DAV:   8    -0.477021353641E+03   -0.25886E-04   -0.32015E-05  1144   0.344E-02    0.102E-02
DAV:   9    -0.477021379924E+03   -0.26283E-04   -0.87046E-06   944   0.173E-02    0.397E-03
DAV:  10    -0.477021404288E+03   -0.24364E-04   -0.55341E-06   972   0.109E-02    0.227E-03
DAV:  11    -0.477021423704E+03   -0.19416E-04   -0.36688E-06   944   0.844E-03    0.121E-03
DAV:  12    -0.477021434623E+03   -0.10919E-04   -0.28331E-06   960   0.539E-03    0.996E-04
DAV:  13    -0.477021442064E+03   -0.74412E-05   -0.18833E-06   936   0.508E-03
  48 F= -.47702144E+03 E0= -.47702091E+03  d E =-.718959E-01
       N       E                     dE             d eps       ncg     rms          rms(c)
DAV:   1    -0.476993263463E+03    0.28171E-01   -0.40439E+01  1440   0.171E+01    0.129E+00
DAV:   2    -0.477052321358E+03   -0.59058E-01   -0.77931E-01  1788   0.250E+00    0.791E-01
DAV:   3    -0.477050782378E+03    0.15390E-02   -0.64107E-02  2044   0.145E+00    0.774E-01
DAV:   4    -0.477048835989E+03    0.19464E-02   -0.60151E-02  1944   0.144E+00    0.554E-01
DAV:   5    -0.477046893555E+03    0.19424E-02   -0.12170E-02  1920   0.713E-01    0.163E-01
DAV:   6    -0.477047391240E+03   -0.49768E-03   -0.18093E-03  1812   0.123E-01    0.527E-02
DAV:   7    -0.477047416872E+03   -0.25632E-04   -0.26605E-04  1760   0.814E-02    0.274E-02
DAV:   8    -0.477047456473E+03   -0.39601E-04   -0.37268E-05  1184   0.378E-02    0.111E-02
DAV:   9    -0.477047486368E+03   -0.29895E-04   -0.99853E-06   960   0.182E-02    0.438E-03
DAV:  10    -0.477047514262E+03   -0.27894E-04   -0.63787E-06   992   0.115E-02    0.237E-03
DAV:  11    -0.477047536803E+03   -0.22540E-04   -0.43691E-06   948   0.892E-03    0.134E-03
DAV:  12    -0.477047550400E+03   -0.13598E-04   -0.33930E-06   960   0.571E-03    0.112E-03
DAV:  13    -0.477047558406E+03   -0.80062E-05   -0.22121E-06   968   0.551E-03
  49 F= -.47704756E+03 E0= -.47704691E+03  d E =-.980122E-01
       N       E                     dE             d eps       ncg     rms          rms(c)
DAV:   1    -0.477056477040E+03   -0.89266E-02   -0.50944E+01  1424   0.191E+01    0.141E+00
DAV:   2    -0.477136641145E+03   -0.80164E-01   -0.10244E+00  1812   0.304E+00    0.969E-01
DAV:   3    -0.477137919154E+03   -0.12780E-02   -0.14348E-01  2144   0.239E+00    0.116E+00
DAV:   4    -0.477128289005E+03    0.96301E-02   -0.94988E-02  1992   0.164E+00    0.506E-01
DAV:   5    -0.477127688692E+03    0.60031E-03   -0.11834E-02  1928   0.580E-01    0.164E-01
DAV:   6    -0.477128234854E+03   -0.54616E-03   -0.19035E-03  1656   0.121E-01    0.527E-02
DAV:   7    -0.477128268486E+03   -0.33632E-04   -0.19736E-04  1952   0.598E-02    0.262E-02
DAV:   8    -0.477128306672E+03   -0.38186E-04   -0.17804E-05   940   0.209E-02    0.908E-03
DAV:   9    -0.477128330283E+03   -0.23611E-04   -0.88454E-06  1008   0.117E-02    0.423E-03
DAV:  10    -0.477128354046E+03   -0.23762E-04   -0.46513E-06   940   0.848E-03    0.196E-03
DAV:  11    -0.477128369692E+03   -0.15646E-04   -0.28512E-06   964   0.654E-03    0.117E-03
DAV:  12    -0.477128384860E+03   -0.15168E-04   -0.25076E-06   936   0.511E-03    0.106E-03
DAV:  13    -0.477128394783E+03   -0.99227E-05   -0.19516E-06   972   0.475E-03
  50 F= -.47712839E+03 E0= -.47712785E+03  d E =-.808364E-01
       N       E                     dE             d eps       ncg     rms          rms(c)
DAV:   1    -0.477050198532E+03    0.78186E-01   -0.82013E+01  1440   0.242E+01    0.188E+00
DAV:   2    -0.477179650019E+03   -0.12945E+00   -0.16608E+00  1800   0.391E+00    0.126E+00
DAV:   3    -0.477182017264E+03   -0.23672E-02   -0.25280E-01  2156   0.321E+00    0.157E+00
DAV:   4    -0.477165185364E+03    0.16832E-01   -0.17991E-01  1988   0.208E+00    0.674E-01
DAV:   5    -0.477163654305E+03    0.15311E-02   -0.20552E-02  1900   0.769E-01    0.235E-01
DAV:   6    -0.477164481828E+03   -0.82752E-03   -0.34282E-03  1712   0.164E-01    0.733E-02
DAV:   7    -0.477164528699E+03   -0.46870E-04   -0.41136E-04  2004   0.961E-02    0.341E-02
DAV:   8    -0.477164594044E+03   -0.65346E-04   -0.44853E-05  1356   0.267E-02    0.120E-02
DAV:   9    -0.477164628401E+03   -0.34357E-04   -0.75676E-06   984   0.120E-02    0.613E-03
DAV:  10    -0.477164665841E+03   -0.37440E-04   -0.58544E-06   968   0.114E-02    0.220E-03
DAV:  11    -0.477164694825E+03   -0.28984E-04   -0.44219E-06   976   0.678E-03    0.136E-03
DAV:  12    -0.477164715418E+03   -0.20593E-04   -0.31904E-06   952   0.558E-03    0.132E-03
DAV:  13    -0.477164730072E+03   -0.14655E-04   -0.25477E-06   952   0.535E-03    0.103E-03
DAV:  14    -0.477164738768E+03   -0.86951E-05   -0.21921E-06   952   0.461E-03
  51 F= -.47716474E+03 E0= -.47716429E+03  d E =-.117180E+00
       N       E                     dE             d eps       ncg     rms          rms(c)
DAV:   1    -0.477177454410E+03   -0.12724E-01   -0.50104E+01  1440   0.188E+01    0.134E+00
DAV:   2    -0.477249710423E+03   -0.72256E-01   -0.91902E-01  1848   0.289E+00    0.842E-01
DAV:   3    -0.477246538047E+03    0.31724E-02   -0.56356E-02  2052   0.131E+00    0.725E-01
DAV:   4    -0.477246974714E+03   -0.43667E-03   -0.71237E-02  2008   0.156E+00    0.649E-01
DAV:   5    -0.477243465402E+03    0.35093E-02   -0.18692E-02  1952   0.916E-01    0.147E-01
DAV:   6    -0.477244048914E+03   -0.58351E-03   -0.21853E-03  1740   0.148E-01    0.535E-02
DAV:   7    -0.477244082217E+03   -0.33302E-04   -0.26600E-04  1808   0.827E-02    0.265E-02
DAV:   8    -0.477244123118E+03   -0.40901E-04   -0.44247E-05  1184   0.369E-02    0.132E-02
DAV:   9    -0.477244155381E+03   -0.32263E-04   -0.17686E-05   988   0.246E-02    0.519E-03
DAV:  10    -0.477244182947E+03   -0.27567E-04   -0.66254E-06   952   0.140E-02    0.251E-03
[...]
       N       E                     dE             d eps       ncg     rms          rms(c)
DAV:   1    -0.481573241303E+03    0.15611E-01   -0.10294E+01  1440   0.719E+00    0.433E-01
DAV:   2    -0.481590304935E+03   -0.17064E-01   -0.19468E-01  1880   0.144E+00    0.349E-01
DAV:   3    -0.481589658146E+03    0.64679E-03   -0.13937E-02  2104   0.701E-01    0.268E-01
DAV:   4    -0.481589194892E+03    0.46325E-03   -0.58574E-03  2012   0.457E-01    0.172E-01
DAV:   5    -0.481589132614E+03    0.62277E-04   -0.16721E-03  1916   0.201E-01    0.433E-02
DAV:   6    -0.481589170000E+03   -0.37385E-04   -0.18670E-04  1752   0.373E-02    0.200E-02
DAV:   7    -0.481589169929E+03    0.70642E-07   -0.19822E-05  1056   0.176E-02
 239 F= -.48158917E+03 E0= -.48158912E+03  d E =-.276239E-02
       N       E                     dE             d eps       ncg     rms          rms(c)
DAV:   1    -0.481586469000E+03    0.27010E-02   -0.18611E+00  1440   0.306E+00    0.180E-01
DAV:   2    -0.481589516958E+03   -0.30480E-02   -0.34504E-02  1892   0.584E-01    0.137E-01
DAV:   3    -0.481589401635E+03    0.11532E-03   -0.16180E-03  2128   0.236E-01    0.103E-01
DAV:   4    -0.481589373313E+03    0.28322E-04   -0.11405E-03  1876   0.206E-01    0.813E-02
DAV:   5    -0.481589341229E+03    0.32084E-04   -0.40283E-04  1764   0.117E-01    0.185E-02
DAV:   6    -0.481589352206E+03   -0.10977E-04   -0.45828E-05  1236   0.164E-02    0.879E-03
DAV:   7    -0.481589352389E+03   -0.18290E-06   -0.45811E-06   968   0.104E-02
 240 F= -.48158935E+03 E0= -.48158931E+03  d E =-.294485E-02
       N       E                     dE             d eps       ncg     rms          rms(c)
DAV:   1    -0.481589325901E+03    0.26305E-04   -0.13220E+00  1440   0.263E+00    0.168E-01
DAV:   2    -0.481591547394E+03   -0.22215E-02   -0.25762E-02  1900   0.502E-01    0.118E-01
DAV:   3    -0.481591444748E+03    0.10265E-03   -0.93107E-04  2112   0.168E-01    0.823E-02
DAV:   4    -0.481591471445E+03   -0.26696E-04   -0.10043E-03  1924   0.195E-01    0.858E-02
DAV:   5    -0.481591407502E+03    0.63943E-04   -0.48750E-04  1432   0.137E-01    0.191E-02
DAV:   6    -0.481591416518E+03   -0.90161E-05   -0.55629E-05  1192   0.199E-02
 241 F= -.48159142E+03 E0= -.48159137E+03  d E =-.206413E-02
       N       E                     dE             d eps       ncg     rms          rms(c)
DAV:   1    -0.481588811160E+03    0.25963E-02   -0.22318E+00  1440   0.341E+00    0.219E-01
DAV:   2    -0.481592548163E+03   -0.37370E-02   -0.43238E-02  1888   0.645E-01    0.152E-01
DAV:   3    -0.481592375430E+03    0.17273E-03   -0.14172E-03  2096   0.198E-01    0.103E-01
DAV:   4    -0.481592442072E+03   -0.66642E-04   -0.16236E-03  2020   0.247E-01    0.112E-01
DAV:   5    -0.481592328633E+03    0.11344E-03   -0.89944E-04  1600   0.187E-01    0.253E-02
DAV:   6    -0.481592343102E+03   -0.14469E-04   -0.93469E-05  1424   0.244E-02    0.121E-02
DAV:   7    -0.481592342425E+03    0.67748E-06   -0.11276E-05  1008   0.152E-02
 242 F= -.48159234E+03 E0= -.48159229E+03  d E =-.299004E-02
       N       E                     dE             d eps       ncg     rms          rms(c)
DAV:   1    -0.481591846146E+03    0.49696E-03   -0.14724E+00  1440   0.281E+00    0.178E-01
DAV:   2    -0.481594222256E+03   -0.23761E-02   -0.27462E-02  1904   0.512E-01    0.121E-01
DAV:   3    -0.481594112940E+03    0.10932E-03   -0.84106E-04  2048   0.136E-01    0.810E-02
DAV:   4    -0.481594171887E+03   -0.58947E-04   -0.92753E-04  2020   0.186E-01    0.879E-02
DAV:   5    -0.481594104752E+03    0.67135E-04   -0.61058E-04  1432   0.154E-01    0.223E-02
DAV:   6    -0.481594115357E+03   -0.10605E-04   -0.59472E-05  1164   0.254E-02    0.848E-03
DAV:   7    -0.481594115728E+03   -0.37155E-06   -0.89628E-06   912   0.147E-02
 243 F= -.48159412E+03 E0= -.48159406E+03  d E =-.177330E-02
       N       E                     dE             d eps       ncg     rms          rms(c)
DAV:   1    -0.481590975513E+03    0.31398E-02   -0.25354E+00  1440   0.369E+00    0.234E-01
DAV:   2    -0.481595051406E+03   -0.40759E-02   -0.47147E-02  1904   0.662E-01    0.156E-01
DAV:   3    -0.481594841407E+03    0.21000E-03   -0.11291E-03  1696   0.110E-01    0.100E-01
DAV:   4    -0.481594836941E+03    0.44661E-05   -0.36693E-04  1784   0.560E-02    0.396E-02
DAV:   5    -0.481594858039E+03   -0.21098E-04   -0.58546E-05  1392   0.246E-02    0.139E-02
DAV:   6    -0.481594861426E+03   -0.33876E-05   -0.16251E-05   992   0.247E-02
 244 F= -.48159486E+03 E0= -.48159481E+03  d E =-.251900E-02
       N       E                     dE             d eps       ncg     rms          rms(c)
DAV:   1    -0.481594063385E+03    0.79465E-03   -0.16548E+00  1440   0.300E+00    0.193E-01
DAV:   2    -0.481596670908E+03   -0.26075E-02   -0.30673E-02  1884   0.540E-01    0.131E-01
DAV:   3    -0.481596580352E+03    0.90556E-04   -0.13852E-03  2088   0.197E-01    0.957E-02
DAV:   4    -0.481596608112E+03   -0.27761E-04   -0.12657E-03  1920   0.216E-01    0.924E-02
DAV:   5    -0.481596553273E+03    0.54839E-04   -0.52323E-04  1504   0.141E-01    0.241E-02
DAV:   6    -0.481596568756E+03   -0.15482E-04   -0.65525E-05  1376   0.223E-02    0.974E-03
DAV:   7    -0.481596568723E+03    0.32807E-07   -0.88056E-06   968   0.145E-02
 245 F= -.48159657E+03 E0= -.48159651E+03  d E =-.170730E-02
       N       E                     dE             d eps       ncg     rms          rms(c)
DAV:   1    -0.481593556955E+03    0.30118E-02   -0.25092E+00  1440   0.370E+00    0.236E-01
DAV:   2    -0.481597578454E+03   -0.40215E-02   -0.47218E-02  1884   0.668E-01    0.162E-01
DAV:   3    -0.481597430196E+03    0.14826E-03   -0.21255E-03  2088   0.246E-01    0.119E-01
DAV:   4    -0.481597464091E+03   -0.33895E-04   -0.19711E-03  1996   0.267E-01    0.115E-01
DAV:   5    -0.481597376318E+03    0.87773E-04   -0.80521E-04  1888   0.173E-01    0.293E-02
DAV:   6    -0.481597398785E+03   -0.22467E-04   -0.90063E-05  1432   0.226E-02    0.122E-02
DAV:   7    -0.481597398397E+03    0.38751E-06   -0.11054E-05  1008   0.140E-02
 246 F= -.48159740E+03 E0= -.48159733E+03  d E =-.253697E-02
       N       E                     dE             d eps       ncg     rms          rms(c)
DAV:   1    -0.481597365156E+03    0.33629E-04   -0.12026E+00  1440   0.260E+00    0.172E-01
DAV:   2    -0.481599275744E+03   -0.19106E-02   -0.22966E-02  1872   0.448E-01    0.111E-01
DAV:   3    -0.481599203271E+03    0.72473E-04   -0.85471E-04  1976   0.121E-01    0.755E-02
DAV:   4    -0.481599247525E+03   -0.44254E-04   -0.68006E-04  1952   0.155E-01    0.780E-02
DAV:   5    -0.481599202247E+03    0.45278E-04   -0.48772E-04  1372   0.137E-01    0.257E-02
DAV:   6    -0.481599212308E+03   -0.10060E-04   -0.54738E-05  1168   0.311E-02    0.754E-03
DAV:   7    -0.481599212950E+03   -0.64213E-06   -0.10161E-05   968   0.151E-02
 247 F= -.48159921E+03 E0= -.48159914E+03  d E =-.181455E-02
       N       E                     dE             d eps       ncg     rms          rms(c)
DAV:   1    -0.481596306554E+03    0.29058E-02   -0.23812E+00  1440   0.366E+00    0.242E-01
DAV:   2    -0.481600136684E+03   -0.38301E-02   -0.45816E-02  1852   0.634E-01    0.157E-01
DAV:   3    -0.481599990248E+03    0.14644E-03   -0.16902E-03  1984   0.169E-01    0.106E-01
DAV:   4    -0.481600075003E+03   -0.84756E-04   -0.13800E-03  2032   0.220E-01    0.111E-01
DAV:   5    -0.481599980764E+03    0.94239E-04   -0.97968E-04  1548   0.194E-01    0.356E-02
DAV:   6    -0.481600000287E+03   -0.19522E-04   -0.11336E-04  1524   0.408E-02    0.113E-02
DAV:   7    -0.481599999981E+03    0.30602E-06   -0.16251E-05  1112   0.152E-02
 248 F= -.48160000E+03 E0= -.48159992E+03  d E =-.260158E-02
       N       E                     dE             d eps       ncg     rms          rms(c)
DAV:   1    -0.481599869147E+03    0.13114E-03   -0.10472E+00  1440   0.242E+00    0.155E-01
DAV:   2    -0.481601422574E+03   -0.15534E-02   -0.18481E-02  1816   0.411E-01    0.101E-01
DAV:   3    -0.481601368787E+03    0.53787E-04   -0.70193E-04  2060   0.110E-01    0.691E-02
DAV:   4    -0.481601409803E+03   -0.41016E-04   -0.58939E-04  1908   0.143E-01    0.710E-02
DAV:   5    -0.481601371973E+03    0.37830E-04   -0.46029E-04  1320   0.131E-01    0.229E-02
DAV:   6    -0.481601379067E+03   -0.70943E-05   -0.49019E-05  1148   0.304E-02
 249 F= -.48160138E+03 E0= -.48160130E+03  d E =-.137909E-02
       N       E                     dE             d eps       ncg     rms          rms(c)
DAV:   1    -0.481591985019E+03    0.93870E-02   -0.73273E+00  1440   0.641E+00    0.413E-01
DAV:   2    -0.481602780031E+03   -0.10795E-01   -0.12803E-01  1832   0.105E+00    0.266E-01
DAV:   3    -0.481602397125E+03    0.38291E-03   -0.51077E-03  2008   0.291E-01    0.186E-01
DAV:   4    -0.481602649857E+03   -0.25273E-03   -0.48031E-03  2048   0.410E-01    0.192E-01
DAV:   5    -0.481602333525E+03    0.31633E-03   -0.31590E-03  2024   0.346E-01    0.577E-02
DAV:   6    -0.481602382764E+03   -0.49239E-04   -0.30775E-04  1856   0.741E-02    0.184E-02
DAV:   7    -0.481602381076E+03    0.16883E-05   -0.32345E-05  1144   0.152E-02
 250 F= -.48160238E+03 E0= -.48160229E+03  d E =-.238110E-02
       N       E                     dE             d eps       ncg     rms          rms(c)
DAV:   1    -0.481601971251E+03    0.41151E-03   -0.12682E+00  1440   0.267E+00    0.173E-01
DAV:   2    -0.481604001277E+03   -0.20300E-02   -0.23959E-02  1832   0.471E-01    0.117E-01
DAV:   3    -0.481603922803E+03    0.78474E-04   -0.94112E-04  2040   0.151E-01    0.805E-02
DAV:   4    -0.481603979888E+03   -0.57084E-04   -0.10745E-03  1972   0.193E-01    0.918E-02
DAV:   5    -0.481603910218E+03    0.69670E-04   -0.63229E-04  1440   0.151E-01    0.207E-02
DAV:   6    -0.481603923272E+03   -0.13055E-04   -0.54526E-05  1080   0.212E-02    0.828E-03
DAV:   7    -0.481603925051E+03   -0.17789E-05   -0.79920E-06   928   0.138E-02
 251 F= -.48160393E+03 E0= -.48160382E+03  d E =-.154398E-02
       N       E                     dE             d eps       ncg     rms          rms(c)
DAV:   1    -0.481602010027E+03    0.19132E-02   -0.20968E+00  1440   0.343E+00    0.223E-01
DAV:   2    -0.481605300748E+03   -0.32907E-02   -0.38937E-02  1800   0.599E-01    0.149E-01
DAV:   3    -0.481605168055E+03    0.13269E-03   -0.15224E-03  2072   0.188E-01    0.102E-01
DAV:   4    -0.481605263496E+03   -0.95441E-04   -0.17522E-03  2056   0.246E-01    0.119E-01
DAV:   5    -0.481605142190E+03    0.12131E-03   -0.10828E-03  1544   0.196E-01    0.267E-02
DAV:   6    -0.481605160772E+03   -0.18583E-04   -0.93075E-05  1344   0.267E-02    0.111E-02
DAV:   7    -0.481605161629E+03   -0.85701E-06   -0.12014E-05  1020   0.150E-02
 252 F= -.48160516E+03 E0= -.48160505E+03  d E =-.278055E-02
       N       E                     dE             d eps       ncg     rms          rms(c)
DAV:   1    -0.481592813579E+03    0.12347E-01   -0.83943E+00  1440   0.686E+00    0.449E-01
DAV:   2    -0.481605746661E+03   -0.12933E-01   -0.15323E-01  1824   0.115E+00    0.292E-01
DAV:   3    -0.481605110764E+03    0.63590E-03   -0.45171E-03  1712   0.212E-01    0.187E-01
DAV:   4    -0.481605077881E+03    0.32883E-04   -0.15433E-03  1916   0.169E-01    0.876E-02
DAV:   5    -0.481605211634E+03   -0.13375E-03   -0.18893E-03  1980   0.253E-01    0.103E-01
DAV:   6    -0.481605107732E+03    0.10390E-03   -0.96125E-04  1544   0.187E-01    0.215E-02
DAV:   7    -0.481605116032E+03   -0.83005E-05   -0.42137E-05  1112   0.256E-02
 253 F= -.48160512E+03 E0= -.48160498E+03  d E =-.273496E-02
       N       E                     dE             d eps       ncg     rms          rms(c)
DAV:   1    -0.481602034843E+03    0.30729E-02   -0.22408E+00  1440   0.355E+00    0.230E-01
DAV:   2    -0.481605765102E+03   -0.37303E-02   -0.43479E-02  1844   0.638E-01    0.158E-01
DAV:   3    -0.481605602758E+03    0.16234E-03   -0.17835E-03  2072   0.226E-01    0.113E-01
DAV:   4    -0.481605674744E+03   -0.71986E-04   -0.21463E-03  2072   0.270E-01    0.122E-01
DAV:   5    -0.481605554308E+03    0.12044E-03   -0.98336E-04  1832   0.191E-01    0.268E-02
DAV:   6    -0.481605576088E+03   -0.21780E-04   -0.98991E-05  1388   0.220E-02    0.124E-02
DAV:   7    -0.481605575234E+03    0.85443E-06   -0.81548E-06  1024   0.144E-02
 254 F= -.48160558E+03 E0= -.48160546E+03  d E =-.319416E-02
       N       E                     dE             d eps       ncg     rms          rms(c)
DAV:   1    -0.481606043118E+03   -0.46703E-03   -0.11066E+00  1440   0.254E+00    0.165E-01
DAV:   2    -0.481607625375E+03   -0.15823E-02   -0.19222E-02  1844   0.416E-01    0.107E-01
DAV:   3    -0.481607559940E+03    0.65435E-04   -0.79573E-04  2032   0.117E-01    0.715E-02
DAV:   4    -0.481607604971E+03   -0.45031E-04   -0.69553E-04  1940   0.153E-01    0.765E-02
DAV:   5    -0.481607555432E+03    0.49539E-04   -0.55848E-04  1432   0.142E-01    0.247E-02
DAV:   6    -0.481607560890E+03   -0.54578E-05   -0.53139E-05  1152   0.320E-02
 255 F= -.48160756E+03 E0= -.48160744E+03  d E =-.198566E-02
       N       E                     dE             d eps       ncg     rms          rms(c)
DAV:   1    -0.481605949895E+03    0.16055E-02   -0.17064E+00  1440   0.316E+00    0.206E-01
DAV:   2    -0.481608422806E+03   -0.24729E-02   -0.29800E-02  1860   0.520E-01    0.133E-01
DAV:   3    -0.481608322497E+03    0.10031E-03   -0.11616E-03  1976   0.130E-01    0.872E-02
DAV:   4    -0.481608373328E+03   -0.50831E-04   -0.80486E-04  1984   0.161E-01    0.832E-02
DAV:   5    -0.481608324609E+03    0.48719E-04   -0.78601E-04  1536   0.167E-01    0.348E-02
DAV:   6    -0.481608326741E+03   -0.21325E-05   -0.90899E-05  1160   0.487E-02
 256 F= -.48160833E+03 E0= -.48160819E+03  d E =-.275151E-02
       N       E                     dE             d eps       ncg     rms          rms(c)
DAV:   1    -0.481607924909E+03    0.39970E-03   -0.13851E+00  1440   0.287E+00    0.185E-01
DAV:   2    -0.481609906565E+03   -0.19817E-02   -0.24169E-02  1876   0.482E-01    0.123E-01
DAV:   3    -0.481609854394E+03    0.52171E-04   -0.13854E-03  2064   0.180E-01    0.927E-02
DAV:   4    -0.481609880715E+03   -0.26321E-04   -0.12894E-03  1872   0.211E-01    0.910E-02
DAV:   5    -0.481609818578E+03    0.62137E-04   -0.57001E-04  1532   0.142E-01    0.250E-02
DAV:   6    -0.481609826110E+03   -0.75325E-05   -0.55533E-05  1252   0.283E-02
 257 F= -.48160983E+03 E0= -.48160967E+03  d E =-.149937E-02
       N       E                     dE             d eps       ncg     rms          rms(c)
DAV:   1    -0.481609547346E+03    0.27123E-03   -0.32173E-01  1440   0.138E+00    0.901E-02
DAV:   2    -0.481610012053E+03   -0.46471E-03   -0.56549E-03  1928   0.229E-01    0.597E-02
DAV:   3    -0.481610001081E+03    0.10972E-04   -0.32908E-04  2000   0.898E-02    0.455E-02
DAV:   4    -0.481610006090E+03   -0.50090E-05   -0.30173E-04  1316   0.103E-01    0.436E-02
DAV:   5    -0.481609992440E+03    0.13650E-04   -0.12776E-04  1104   0.707E-02    0.119E-02
DAV:   6    -0.481609996710E+03   -0.42696E-05   -0.24199E-05  1164   0.172E-02
 258 F= -.48161000E+03 E0= -.48160983E+03  d E =-.166997E-02
       N       E                     dE             d eps       ncg     rms          rms(c)
DAV:   1    -0.481610326534E+03   -0.33409E-03   -0.63120E-01  1432   0.197E+00    0.126E-01
DAV:   2    -0.481611230960E+03   -0.90443E-03   -0.11077E-02  1824   0.323E-01    0.865E-02
DAV:   3    -0.481611203632E+03    0.27328E-04   -0.70715E-04  2088   0.136E-01    0.652E-02
DAV:   4    -0.481611209649E+03   -0.60170E-05   -0.67196E-04  1540   0.153E-01    0.622E-02
DAV:   5    -0.481611179339E+03    0.30310E-04   -0.26380E-04  1332   0.987E-02    0.142E-02
DAV:   6    -0.481611181296E+03   -0.19567E-05   -0.32809E-05  1144   0.187E-02
 259 F= -.48161118E+03 E0= -.48161101E+03  d E =-.118459E-02
       N       E                     dE             d eps       ncg     rms          rms(c)
DAV:   1    -0.481611013173E+03    0.16617E-03   -0.27909E-01  1432   0.131E+00    0.845E-02
DAV:   2    -0.481611422121E+03   -0.40895E-03   -0.49517E-03  1828   0.220E-01    0.584E-02
DAV:   3    -0.481611411906E+03    0.10215E-04   -0.35380E-04  2008   0.994E-02    0.459E-02
DAV:   4    -0.481611409455E+03    0.24512E-05   -0.30106E-04  1292   0.102E-01    0.397E-02
DAV:   5    -0.481611394929E+03    0.14526E-04   -0.10136E-04  1060   0.622E-02    0.919E-03
DAV:   6    -0.481611397931E+03   -0.30023E-05   -0.20324E-05  1112   0.151E-02
 260 F= -.48161140E+03 E0= -.48161122E+03  d E =-.140122E-02
       N       E                     dE             d eps       ncg     rms          rms(c)
DAV:   1    -0.481611779082E+03   -0.38415E-03   -0.55726E-01  1432   0.186E+00    0.119E-01
DAV:   2    -0.481612569477E+03   -0.79040E-03   -0.96787E-03  1828   0.304E-01    0.827E-02
DAV:   3    -0.481612547640E+03    0.21837E-04   -0.69245E-04  2028   0.140E-01    0.647E-02
DAV:   4    -0.481612544449E+03    0.31912E-05   -0.61691E-04  1492   0.145E-01    0.572E-02
DAV:   5    -0.481612523103E+03    0.21346E-04   -0.20604E-04  1296   0.862E-02    0.136E-02
DAV:   6    -0.481612528528E+03   -0.54249E-05   -0.29967E-05  1168   0.170E-02
 261 F= -.48161253E+03 E0= -.48161234E+03  d E =-.113060E-02
       N       E                     dE             d eps       ncg     rms          rms(c)
DAV:   1    -0.481611859204E+03    0.66390E-03   -0.83242E-01  1432   0.227E+00    0.146E-01
DAV:   2    -0.481613045214E+03   -0.11860E-02   -0.14548E-02  1828   0.379E-01    0.103E-01
DAV:   3    -0.481613026883E+03    0.18331E-04   -0.11692E-03  2080   0.187E-01    0.831E-02
DAV:   4    -0.481613009675E+03    0.17209E-04   -0.94583E-04  1616   0.178E-01    0.672E-02
DAV:   5    -0.481612984549E+03    0.25125E-04   -0.28011E-04  1608   0.966E-02    0.163E-02
DAV:   6    -0.481612987070E+03   -0.25206E-05   -0.29054E-05  1064   0.158E-02
 262 F= -.48161299E+03 E0= -.48161279E+03  d E =-.158914E-02
       N       E                     dE             d eps       ncg     rms          rms(c)
DAV:   1    -0.481613156315E+03   -0.17177E-03   -0.61277E-01  1432   0.196E+00    0.128E-01
DAV:   2    -0.481614046649E+03   -0.89033E-03   -0.10941E-02  1808   0.328E-01    0.916E-02
DAV:   3    -0.481614034372E+03    0.12278E-04   -0.11194E-03  2136   0.186E-01    0.804E-02
DAV:   4    -0.481613997907E+03    0.36465E-04   -0.70173E-04  1504   0.153E-01    0.520E-02
DAV:   5    -0.481613989650E+03    0.82566E-05   -0.16370E-04  1508   0.718E-02    0.138E-02
DAV:   6    -0.481613991146E+03   -0.14961E-05   -0.25311E-05  1176   0.153E-02
 263 F= -.48161399E+03 E0= -.48161379E+03  d E =-.100408E-02
       N       E                     dE             d eps       ncg     rms          rms(c)
DAV:   1    -0.481613794241E+03    0.19541E-03   -0.30620E-01  1432   0.139E+00    0.911E-02
DAV:   2    -0.481614241546E+03   -0.44730E-03   -0.54538E-03  1796   0.230E-01    0.641E-02
DAV:   3    -0.481614234954E+03    0.65916E-05   -0.52715E-04  2088   0.127E-01    0.559E-02
DAV:   4    -0.481614218777E+03    0.16177E-04   -0.35145E-04  1296   0.109E-01    0.375E-02
DAV:   5    -0.481614209952E+03    0.88247E-05   -0.81705E-05  1080   0.539E-02
 264 F= -.48161421E+03 E0= -.48161400E+03  d E =-.122288E-02
       N       E                     dE             d eps       ncg     rms          rms(c)
DAV:   1    -0.481614325739E+03   -0.10696E-03   -0.67695E-01  1440   0.207E+00    0.136E-01
DAV:   2    -0.481615274697E+03   -0.94896E-03   -0.11879E-02  1816   0.329E-01    0.888E-02
DAV:   3    -0.481615226742E+03    0.47955E-04   -0.48512E-04  1904   0.698E-02    0.542E-02
DAV:   4    -0.481615233741E+03   -0.69984E-05   -0.16771E-04  1868   0.680E-02    0.350E-02
DAV:   5    -0.481615238030E+03   -0.42896E-05   -0.24140E-04  1296   0.914E-02    0.308E-02
DAV:   6    -0.481615231051E+03    0.69791E-05   -0.73828E-05  1056   0.545E-02
 265 F= -.48161523E+03 E0= -.48161501E+03  d E =-.102110E-02
