<?xml version="1.0" encoding="ISO-8859-1"?>
<modeling>
 <generator>
  <i name="program" type="string">vasp </i>
  <i name="version" type="string">6.3.2  </i>
  <i name="subversion" type="string">27Jun22 (build May 04 2024 18:40:40) complex                          parallel </i>
  <i name="platform" type="string">LinuxIFC </i>
  <i name="date" type="string">2024 09 03 </i>
  <i name="time" type="string">04:43:01 </i>
 </generator>
 <incar>
  <i type="string" name="SYSTEM">slab_Cel1-OPT</i>
  <i type="int" name="ISTART">     0</i>
  <i type="string" name="PREC">N</i>
  <i type="string" name="ALGO">N</i>
  <i type="int" name="ICHARG">     2</i>
  <i type="int" name="NELM">   200</i>
  <i type="int" name="IBRION">     2</i>
  <i name="EDIFF">      0.00001000</i>
  <i name="EDIFFG">     -0.05000000</i>
  <i type="int" name="NSW">  1000</i>
  <i type="int" name="ISIF">     3</i>
  <i name="ENCUT">    400.00000000</i>
  <i name="POTIM">      0.10000000</i>
  <i type="string" name="LREAL">AUTO</i>
  <i type="int" name="ISMEAR">     0</i>
  <i name="SIGMA">      0.10000000</i>
  <i type="logical" name="LWAVE"> F  </i>
  <i type="logical" name="LCHARG"> F  </i>
  <i type="logical" name="LELF"> F  </i>
  <i type="logical" name="LAECHG"> F  </i>
  <i type="logical" name="LDIPOL"> T  </i>
  <i type="int" name="IDIPOL">     3</i>
 </incar>
 <primitive_cell>
  <structure name="primitive_cell" >
   <crystal>
    <varray name="basis" >
     <v>      14.26590000       0.00000000       0.00000000 </v>
     <v>       0.00000000      12.35699650       0.00000000 </v>
     <v>       0.00000000       0.00000000      15.00000000 </v>
    </varray>
    <i name="volume">   2644.25514646 </i>
    <varray name="rec_basis" >
     <v>       0.07009722       0.00000000       0.00000000 </v>
     <v>       0.00000000       0.08092581       0.00000000 </v>
     <v>       0.00000000       0.00000000       0.06666667 </v>
    </varray>
   </crystal>
   <varray name="positions" >
    <v>       0.06537593       0.40364000       0.13333000 </v>
    <v>       0.98097748       0.23494000       0.13333000 </v>
    <v>       0.22593437       0.39820000       0.13333000 </v>
    <v>       0.81543575       0.57710000       0.13333000 </v>
    <v>       0.14973747       0.23490000       0.13333000 </v>
    <v>       0.90517930       0.39797000       0.13333000 </v>
    <v>       0.56537593       0.40364000       0.13333000 </v>
    <v>       0.48097748       0.23494000       0.13333000 </v>
    <v>       0.72593437       0.39820000       0.13333000 </v>
    <v>       0.31543575       0.57710000       0.13333000 </v>
    <v>       0.64973747       0.23490000       0.13333000 </v>
    <v>       0.40517930       0.39797000       0.13333000 </v>
    <v>       0.81551954       0.90364000       0.13333000 </v>
    <v>       0.73112108       0.73494000       0.13333000 </v>
    <v>       0.97607797       0.89820000       0.13333000 </v>
    <v>       0.06529214       0.07710000       0.13333000 </v>
    <v>       0.89988107       0.73490000       0.13333000 </v>
    <v>       0.65532291       0.89797000       0.13333000 </v>
    <v>       0.31551954       0.90364000       0.13333000 </v>
    <v>       0.23112108       0.73494000       0.13333000 </v>
    <v>       0.47607797       0.89820000       0.13333000 </v>
    <v>       0.56529214       0.07710000       0.13333000 </v>
    <v>       0.39988107       0.73490000       0.13333000 </v>
    <v>       0.15532291       0.89797000       0.13333000 </v>
    <v>       0.98400093       0.45588000       0.13333000 </v>
    <v>       0.90111835       0.29021000       0.13333000 </v>
    <v>       0.14710595       0.45595000       0.13333000 </v>
    <v>       0.14840652       0.12714000       0.13333000 </v>
    <v>       0.98256150       0.12707000       0.13333000 </v>
    <v>       0.22992331       0.29008000       0.13333000 </v>
    <v>       0.06536362       0.29116000       0.13333000 </v>
    <v>       0.81553147       0.45774000       0.13333000 </v>
    <v>       0.48400093       0.45588000       0.13333000 </v>
    <v>       0.40111835       0.29021000       0.13333000 </v>
    <v>       0.64710595       0.45595000       0.13333000 </v>
    <v>       0.64840652       0.12714000       0.13333000 </v>
    <v>       0.48256150       0.12707000       0.13333000 </v>
    <v>       0.72992331       0.29008000       0.13333000 </v>
    <v>       0.56536362       0.29116000       0.13333000 </v>
    <v>       0.31553147       0.45774000       0.13333000 </v>
    <v>       0.73414454       0.95588000       0.13333000 </v>
    <v>       0.65126196       0.79021000       0.13333000 </v>
    <v>       0.89724956       0.95595000       0.13333000 </v>
    <v>       0.89855012       0.62714000       0.13333000 </v>
    <v>       0.73270510       0.62707000       0.13333000 </v>
    <v>       0.98006692       0.79008000       0.13333000 </v>
    <v>       0.81550723       0.79116000       0.13333000 </v>
    <v>       0.56567507       0.95774000       0.13333000 </v>
    <v>       0.23414454       0.95588000       0.13333000 </v>
    <v>       0.15126196       0.79021000       0.13333000 </v>
    <v>       0.39724956       0.95595000       0.13333000 </v>
    <v>       0.39855012       0.62714000       0.13333000 </v>
    <v>       0.23270510       0.62707000       0.13333000 </v>
    <v>       0.48006692       0.79008000       0.13333000 </v>
    <v>       0.31550723       0.79116000       0.13333000 </v>
    <v>       0.06567507       0.95774000       0.13333000 </v>
    <v>       0.51318019       0.65760505       0.14333042 </v>
    <v>       0.63498818       0.58816656       0.13951958 </v>
   </varray>
  </structure>
  <varray name="primitive_index" >
   <v type="int" >        1 </v>
   <v type="int" >        2 </v>
   <v type="int" >        3 </v>
   <v type="int" >        4 </v>
   <v type="int" >        5 </v>
   <v type="int" >        6 </v>
   <v type="int" >        7 </v>
   <v type="int" >        8 </v>
   <v type="int" >        9 </v>
   <v type="int" >       10 </v>
   <v type="int" >       11 </v>
   <v type="int" >       12 </v>
   <v type="int" >       13 </v>
   <v type="int" >       14 </v>
   <v type="int" >       15 </v>
   <v type="int" >       16 </v>
   <v type="int" >       17 </v>
   <v type="int" >       18 </v>
   <v type="int" >       19 </v>
   <v type="int" >       20 </v>
   <v type="int" >       21 </v>
   <v type="int" >       22 </v>
   <v type="int" >       23 </v>
   <v type="int" >       24 </v>
   <v type="int" >       25 </v>
   <v type="int" >       26 </v>
   <v type="int" >       27 </v>
   <v type="int" >       28 </v>
   <v type="int" >       29 </v>
   <v type="int" >       30 </v>
   <v type="int" >       31 </v>
   <v type="int" >       32 </v>
   <v type="int" >       33 </v>
   <v type="int" >       34 </v>
   <v type="int" >       35 </v>
   <v type="int" >       36 </v>
   <v type="int" >       37 </v>
   <v type="int" >       38 </v>
   <v type="int" >       39 </v>
   <v type="int" >       40 </v>
   <v type="int" >       41 </v>
   <v type="int" >       42 </v>
   <v type="int" >       43 </v>
   <v type="int" >       44 </v>
   <v type="int" >       45 </v>
   <v type="int" >       46 </v>
   <v type="int" >       47 </v>
   <v type="int" >       48 </v>
   <v type="int" >       49 </v>
   <v type="int" >       50 </v>
   <v type="int" >       51 </v>
   <v type="int" >       52 </v>
   <v type="int" >       53 </v>
   <v type="int" >       54 </v>
   <v type="int" >       55 </v>
   <v type="int" >       56 </v>
   <v type="int" >       57 </v>
   <v type="int" >       58 </v>
  </varray>
 </primitive_cell>
 <kpoints>
  <generation param="Gamma">
   <v type="int" name="divisions">       2        2        1 </v>
   <v name="usershift">      0.00000000       0.00000000       0.00000000 </v>
   <v name="genvec1">      0.50000000       0.00000000       0.00000000 </v>
   <v name="genvec2">      0.00000000       0.50000000       0.00000000 </v>
   <v name="genvec3">      0.00000000       0.00000000       1.00000000 </v>
   <v name="shift">      0.00000000       0.00000000       0.00000000 </v>
  </generation>
  <varray name="kpointlist" >
   <v>       0.00000000       0.00000000       0.00000000 </v>
   <v>       0.50000000       0.00000000       0.00000000 </v>
   <v>       0.00000000       0.50000000       0.00000000 </v>
   <v>       0.50000000       0.50000000       0.00000000 </v>
  </varray>
  <varray name="weights" >
   <v>       0.25000000 </v>
   <v>       0.25000000 </v>
   <v>       0.25000000 </v>
   <v>       0.25000000 </v>
  </varray>
 </kpoints>
 <parameters>
  <separator name="general" >
   <i type="string" name="SYSTEM">slab_Cel1-OPT</i>
   <i type="logical" name="LCOMPAT"> F  </i>
  </separator>
  <separator name="electronic" >
   <i type="string" name="PREC">n</i>
   <i name="ENMAX">    400.00000000</i>
   <i name="ENAUG">    644.87300000</i>
   <i name="EDIFF">      0.00001000</i>
   <i type="int" name="IALGO">    38</i>
   <i type="int" name="IWAVPR">    11</i>
   <i type="int" name="NBANDS">   172</i>
   <i type="int" name="NBANDSLOW">    -1</i>
   <i type="int" name="NBANDSHIGH">    -1</i>
   <i name="NELECT">    278.00000000</i>
   <i type="int" name="TURBO">     0</i>
   <i type="int" name="IRESTART">     0</i>
   <i type="int" name="NREBOOT">     0</i>
   <i type="int" name="NMIN">     0</i>
   <i name="EREF">      0.00000000</i>
   <separator name="electronic smearing" >
    <i type="int" name="ISMEAR">     0</i>
    <i name="SIGMA">      0.10000000</i>
    <i name="KSPACING">      0.50000000</i>
    <i type="logical" name="KGAMMA"> T  </i>
    <i type="logical" name="KBLOWUP"> T  </i>
   </separator>
   <separator name="electronic projectors" >
    <i type="logical" name="LREAL"> T  </i>
    <v name="ROPT">     -0.00050000     -0.00050000     -0.00050000     -0.00050000</v>
    <i type="int" name="LMAXPAW">  -100</i>
    <i type="int" name="LMAXMIX">     2</i>
    <i type="logical" name="NLSPLINE"> F  </i>
   </separator>
   <separator name="electronic startup" >
    <i type="int" name="ISTART">     0</i>
    <i type="int" name="ICHARG">     2</i>
    <i type="int" name="INIWAV">     1</i>
   </separator>
   <separator name="electronic spin" >
    <i type="int" name="ISPIN">     1</i>
    <i type="logical" name="LNONCOLLINEAR"> F  </i>
    <v name="MAGMOM">      1.00000000      1.00000000      1.00000000      1.00000000      1.00000000      1.00000000      1.00000000      1.00000000      1.00000000      1.00000000      1.00000000      1.00000000      1.00000000      1.00000000      1.00000000      1.00000000      1.00000000      1.00000000      1.00000000      1.00000000
      1.00000000      1.00000000      1.00000000      1.00000000      1.00000000      1.00000000      1.00000000      1.00000000      1.00000000      1.00000000      1.00000000      1.00000000      1.00000000      1.00000000      1.00000000      1.00000000      1.00000000      1.00000000      1.00000000      1.00000000
      1.00000000      1.00000000      1.00000000      1.00000000      1.00000000      1.00000000      1.00000000      1.00000000      1.00000000      1.00000000      1.00000000      1.00000000      1.00000000      1.00000000      1.00000000      1.00000000      1.00000000      1.00000000</v>
    <i name="NUPDOWN">     -1.00000000</i>
    <i type="logical" name="LSORBIT"> F  </i>
    <v name="SAXIS">      0.00000000      0.00000000      1.00000000</v>
    <i type="logical" name="LSPIRAL"> F  </i>
    <v name="QSPIRAL">      0.00000000      0.00000000      0.00000000</v>
    <i type="logical" name="LZEROZ"> F  </i>
   </separator>
   <separator name="electronic exchange-correlation" >
    <i type="logical" name="LASPH"> F  </i>
    <i type="logical" name="LMETAGGA"> F  </i>
   </separator>
   <separator name="electronic convergence" >
    <i type="int" name="NELM">   200</i>
    <i type="int" name="NELMDL">    -5</i>
    <i type="int" name="NELMIN">     2</i>
    <i name="ENINI">    400.00000000</i>
    <separator name="electronic convergence detail" >
     <i type="logical" name="LDIAG"> T  </i>
     <i type="logical" name="LSUBROT"> F  </i>
     <i name="WEIMIN">      0.00100000</i>
     <i name="EBREAK">      0.00000001</i>
     <i name="DEPER">      0.30000000</i>
     <i type="int" name="NRMM">     4</i>
     <i name="TIME">      0.40000000</i>
    </separator>
   </separator>
   <separator name="electronic mixer" >
    <i name="AMIX">      0.40000000</i>
    <i name="BMIX">      1.00000000</i>
    <i name="AMIN">      0.10000000</i>
    <i name="AMIX_MAG">      1.60000000</i>
    <i name="BMIX_MAG">      1.00000000</i>
    <separator name="electronic mixer details" >
     <i type="int" name="IMIX">     4</i>
     <i type="logical" name="MIXFIRST"> F  </i>
     <i type="int" name="MAXMIX">   -45</i>
     <i name="WC">    100.00000000</i>
     <i type="int" name="INIMIX">     1</i>
     <i type="int" name="MIXPRE">     1</i>
     <i type="int" name="MREMOVE">     5</i>
    </separator>
   </separator>
   <separator name="electronic dipolcorrection" >
    <i type="logical" name="LDIPOL"> T  </i>
    <i type="logical" name="LMONO"> F  </i>
    <i type="int" name="IDIPOL">     3</i>
    <i name="EPSILON">      1.00000000</i>
    <v name="DIPOL">   -100.00000000   -100.00000000   -100.00000000</v>
    <i name="EFIELD">      0.00000000</i>
   </separator>
  </separator>
  <separator name="grids" >
   <i type="int" name="NGX">    70</i>
   <i type="int" name="NGY">    60</i>
   <i type="int" name="NGZ">    80</i>
   <i type="int" name="NGXF">   140</i>
   <i type="int" name="NGYF">   120</i>
   <i type="int" name="NGZF">   160</i>
   <i type="logical" name="ADDGRID"> F  </i>
  </separator>
  <separator name="ionic" >
   <i type="int" name="NSW">  1000</i>
   <i type="int" name="IBRION">     2</i>
   <i type="int" name="MDALGO">     0</i>
   <i type="int" name="ISIF">     3</i>
   <i name="PSTRESS">      0.00000000</i>
   <i name="EDIFFG">     -0.05000000</i>
   <i type="int" name="NFREE">     1</i>
   <i name="POTIM">      0.10000000</i>
   <i name="SMASS">     -3.00000000</i>
   <i name="SCALEE">      1.00000000</i>
  </separator>
  <separator name="ionic md" >
   <i name="TEBEG">      0.00010000</i>
   <i name="TEEND">      0.00010000</i>
   <i type="int" name="NBLOCK">     1</i>
   <i type="int" name="KBLOCK">  1000</i>
   <i type="int" name="NPACO">   256</i>
   <i name="APACO">     10.00000000</i>
  </separator>
  <separator name="symmetry" >
   <i type="int" name="ISYM">     2</i>
   <i name="SYMPREC">      0.00001000</i>
  </separator>
  <separator name="dos" >
   <i type="int" name="LORBIT">     0</i>
   <v name="RWIGS">     -1.00000000     -1.00000000     -1.00000000     -1.00000000</v>
   <i type="int" name="NEDOS">   301</i>
   <i name="EMIN">     10.00000000</i>
   <i name="EMAX">    -10.00000000</i>
   <i name="EFERMI">      0.00000000</i>
  </separator>
  <separator name="writing" >
   <i type="int" name="NWRITE">     2</i>
   <i type="logical" name="LWAVE"> F  </i>
   <i type="logical" name="LDOWNSAMPLE"> F  </i>
   <i type="logical" name="LCHARG"> F  </i>
   <i type="logical" name="LPARD"> F  </i>
   <i type="logical" name="LVTOT"> F  </i>
   <i type="logical" name="LVHAR"> F  </i>
   <i type="logical" name="LELF"> F  </i>
   <i type="logical" name="LOPTICS"> F  </i>
   <v name="STM">      0.00000000      0.00000000      0.00000000      0.00000000      0.00000000      0.00000000      0.00000000</v>
  </separator>
  <separator name="performance" >
   <i type="int" name="NPAR">     4</i>
   <i type="int" name="NSIM">     4</i>
   <i type="int" name="NBLK">    -1</i>
   <i type="logical" name="LPLANE"> T  </i>
   <i type="logical" name="LSCALAPACK"> T  </i>
   <i type="logical" name="LSCAAWARE"> F  </i>
   <i type="logical" name="LSCALU"> F  </i>
   <i type="logical" name="LASYNC"> F  </i>
   <i type="logical" name="LORBITALREAL"> F  </i>
  </separator>
  <separator name="miscellaneous" >
   <i type="int" name="IDIOT">     3</i>
   <i type="int" name="PHON_NSTRUCT">    -1</i>
   <i type="logical" name="LMUSIC"> F  </i>
   <v name="POMASS">     12.01100000     14.00100000    196.96600000     63.54600000</v>
   <v name="DARWINR">      0.00000000      0.00000000      0.00000000      0.00000000</v>
   <v name="DARWINV">      1.00000000      1.00000000      1.00000000      1.00000000</v>
   <i type="logical" name="LCORR"> T  </i>
  </separator>
  <i type="logical" name="GGA_COMPAT"> T  </i>
  <i type="logical" name="LBERRY"> F  </i>
  <i type="int" name="ICORELEVEL">     0</i>
  <i type="logical" name="LDAU"> F  </i>
  <i type="int" name="I_CONSTRAINED_M">     0</i>
  <separator name="electronic exchange-correlation" >
   <i type="string" name="GGA">--</i>
   <i type="int" name="VOSKOWN">     0</i>
   <i type="logical" name="LHFCALC"> F  </i>
   <i type="string" name="PRECFOCK"></i>
   <i type="logical" name="LSYMGRAD"> F  </i>
   <i type="logical" name="LHFONE"> F  </i>
   <i type="logical" name="LRHFCALC"> F  </i>
   <i type="logical" name="LTHOMAS"> F  </i>
   <i type="logical" name="LMODELHF"> F  </i>
   <i type="logical" name="LFOCKACE"> F  </i>
   <i name="ENCUT4O">     -1.00000000</i>
   <i type="int" name="EXXOEP">     0</i>
   <i type="int" name="FOURORBIT">     0</i>
   <i name="AEXX">      0.00000000</i>
   <i name="HFALPHA">      0.00000000</i>
   <i name="MCALPHA">      0.00000000</i>
   <i name="ALDAX">      1.00000000</i>
   <i name="AGGAX">      1.00000000</i>
   <i name="ALDAC">      1.00000000</i>
   <i name="AGGAC">      1.00000000</i>
   <i type="int" name="NKREDX">     1</i>
   <i type="int" name="NKREDY">     1</i>
   <i type="int" name="NKREDZ">     1</i>
   <i type="logical" name="SHIFTRED"> F  </i>
   <i type="logical" name="ODDONLY"> F  </i>
   <i type="logical" name="EVENONLY"> F  </i>
   <i type="int" name="LMAXFOCK">     0</i>
   <i type="int" name="NMAXFOCKAE">     0</i>
   <i type="logical" name="LFOCKAEDFT"> F  </i>
   <i name="HFSCREEN">      0.00000000</i>
   <i name="HFSCREENC">      0.00000000</i>
   <i type="int" name="NBANDSGWLOW">     0</i>
  </separator>
  <separator name="vdW DFT" >
   <i type="logical" name="LUSE_VDW"> F  </i>
   <i name="Zab_VDW">     -0.84910000</i>
   <i name="PARAM1">      0.12340000</i>
   <i name="PARAM2">      1.00000000</i>
   <i name="PARAM3">      0.00000000</i>
  </separator>
  <separator name="model GW" >
   <i type="int" name="MODEL_GW">     0</i>
   <i name="MODEL_EPS0">     27.35436358</i>
   <i name="MODEL_ALPHA">      1.00000000</i>
  </separator>
  <separator name="linear response parameters" >
   <i type="logical" name="LEPSILON"> F  </i>
   <i type="logical" name="LRPA"> F  </i>
   <i type="logical" name="LNABLA"> F  </i>
   <i type="logical" name="LVEL"> F  </i>
   <i name="CSHIFT">      0.10000000</i>
   <i name="OMEGAMAX">     -1.00000000</i>
   <i name="DEG_THRESHOLD">      0.00200000</i>
   <i name="RTIME">     -0.10000000</i>
   <i name="WPLASMAI">      0.00000000</i>
   <v name="DFIELD">      0.00000000      0.00000000      0.00000000</v>
   <v name="WPLASMA">      0.00000000      0.00000000      0.00000000      0.00000000      0.00000000      0.00000000      0.00000000      0.00000000      0.00000000</v>
  </separator>
  <separator name="orbital magnetization" >
   <i type="logical" name="NUCIND"> F  </i>
   <v name="MAGPOS">      0.00000000      0.00000000      0.00000000</v>
   <i type="logical" name="LNICSALL"> T  </i>
   <i type="logical" name="ORBITALMAG"> F  </i>
   <i type="logical" name="LMAGBLOCH"> F  </i>
   <i type="logical" name="LCHIMAG"> F  </i>
   <i type="logical" name="LGAUGE"> T  </i>
   <i type="int" name="MAGATOM">     0</i>
   <v name="MAGDIPOL">      0.00000000      0.00000000      0.00000000</v>
   <v name="AVECCONST">      0.00000000      0.00000000      0.00000000</v>
  </separator>
  <separator name="response functions" >
   <i type="logical" name="LFINITE_TEMPERATURE"> F  </i>
   <i type="logical" name="LADDER"> F  </i>
   <i type="logical" name="LRPAFORCE"> F  </i>
   <i type="logical" name="LFXC"> F  </i>
   <i type="logical" name="LHARTREE"> T  </i>
   <i type="int" name="IBSE">     0</i>
   <v type="int" name="KPOINT">    -1     0     0     0</v>
   <i type="logical" name="LTCTC"> F  </i>
   <i type="logical" name="LTCTE"> F  </i>
   <i type="logical" name="LTETE"> F  </i>
   <i type="logical" name="LTRIPLET"> F  </i>
   <i type="logical" name="LFXCEPS"> F  </i>
   <i type="logical" name="LFXHEG"> F  </i>
   <i type="int" name="NATURALO">     2</i>
   <i type="logical" name="LHOLEGF"> F  </i>
   <i type="logical" name="L2ORDER"> F  </i>
   <i type="logical" name="LDMP1"> F  </i>
   <i type="logical" name="LMP2LT"> F  </i>
   <i type="logical" name="LSMP2LT"> F  </i>
   <i type="logical" name="LGWLF"> F  </i>
   <i name="ENCUTGW">     -2.00000000</i>
   <i name="ENCUTGWSOFT">     -2.00000000</i>
   <i name="ENCUTLF">     -1.00000000</i>
   <i type="logical" name="LESF_SPLINES"> F  </i>
   <i type="int" name="LMAXMP2">    -1</i>
   <i name="SCISSOR">      0.00000000</i>
   <i type="int" name="NOMEGA">     0</i>
   <i type="int" name="NOMEGAR">     0</i>
   <i type="int" name="NBANDSGW">    -1</i>
   <i type="int" name="NBANDSO">    -1</i>
   <i type="int" name="NBANDSV">    -1</i>
   <i type="int" name="NELMGW">     1</i>
   <i type="int" name="NELMHF">     1</i>
   <i type="int" name="DIM">     3</i>
   <i type="int" name="IESPILON">     4</i>
   <i type="int" name="ANTIRES">     0</i>
   <i name="OMEGAMAX">    -30.00000000</i>
   <i name="OMEGAMIN">    -30.00000000</i>
   <i name="OMEGATL">   -200.00000000</i>
   <i type="int" name="OMEGAGRID">     0</i>
   <i name="CSHIFT">     -0.10000000</i>
   <i type="logical" name="LSELFENERGY"> F  </i>
   <i type="logical" name="LSPECTRAL"> F  </i>
   <i type="logical" name="LSPECTRALGW"> F  </i>
   <i type="logical" name="LSINGLES"> F  </i>
   <i type="logical" name="LFERMIGW"> F  </i>
   <i type="logical" name="ODDONLYGW"> F  </i>
   <i type="logical" name="EVENONLYGW"> F  </i>
   <i type="int" name="NKREDLFX">     1</i>
   <i type="int" name="NKREDLFY">     1</i>
   <i type="int" name="NKREDLFZ">     1</i>
   <i type="int" name="MAXMEM">  2800</i>
   <i type="int" name="TELESCOPE">     0</i>
   <i type="int" name="NTAUPAR">    -1</i>
   <i type="int" name="NOMEGAPAR">    -1</i>
   <i name="DAMP_NEWTON">      0.80000001</i>
   <i name="LAMBDA">      1.00000000</i>
  </separator>
  <separator name="External order field" >
   <i name="OFIELD_KAPPA">      0.00000000</i>
   <v name="OFIELD_K">      0.00000000      0.00000000      0.00000000</v>
   <i name="OFIELD_Q6_NEAR">      0.00000000</i>
   <i name="OFIELD_Q6_FAR">      0.00000000</i>
   <i name="OFIELD_A">      0.00000000</i>
  </separator>
  <separator name="optional k-points parameters" >
   <i type="int" name="KPOINTS_OPT_MODE">     1</i>
   <i type="logical" name="LKPOINTS_OPT"> F  </i>
  </separator>
  <separator name="solvation model" >
   <i type="logical" name="LSOL"> F  </i>
  </separator>
 </parameters>
 <atominfo>
  <atoms>      58 </atoms>
  <types>       4 </types>
  <array name="atoms" >
   <dimension dim="1">ion</dimension>
   <field type="string">element</field>
   <field type="int">atomtype</field>
   <set>
    <rc><c>C </c><c>   1</c></rc>
    <rc><c>C </c><c>   1</c></rc>
    <rc><c>C </c><c>   1</c></rc>
    <rc><c>C </c><c>   1</c></rc>
    <rc><c>C </c><c>   1</c></rc>
    <rc><c>C </c><c>   1</c></rc>
    <rc><c>C </c><c>   1</c></rc>
    <rc><c>C </c><c>   1</c></rc>
    <rc><c>C </c><c>   1</c></rc>
    <rc><c>C </c><c>   1</c></rc>
    <rc><c>C </c><c>   1</c></rc>
    <rc><c>C </c><c>   1</c></rc>
    <rc><c>C </c><c>   1</c></rc>
    <rc><c>C </c><c>   1</c></rc>
    <rc><c>C </c><c>   1</c></rc>
    <rc><c>C </c><c>   1</c></rc>
    <rc><c>C </c><c>   1</c></rc>
    <rc><c>C </c><c>   1</c></rc>
    <rc><c>C </c><c>   1</c></rc>
    <rc><c>C </c><c>   1</c></rc>
    <rc><c>C </c><c>   1</c></rc>
    <rc><c>C </c><c>   1</c></rc>
    <rc><c>C </c><c>   1</c></rc>
    <rc><c>C </c><c>   1</c></rc>
    <rc><c>N </c><c>   2</c></rc>
    <rc><c>N </c><c>   2</c></rc>
    <rc><c>N </c><c>   2</c></rc>
    <rc><c>N </c><c>   2</c></rc>
    <rc><c>N </c><c>   2</c></rc>
    <rc><c>N </c><c>   2</c></rc>
    <rc><c>N </c><c>   2</c></rc>
    <rc><c>N </c><c>   2</c></rc>
    <rc><c>N </c><c>   2</c></rc>
    <rc><c>N </c><c>   2</c></rc>
    <rc><c>N </c><c>   2</c></rc>
    <rc><c>N </c><c>   2</c></rc>
    <rc><c>N </c><c>   2</c></rc>
    <rc><c>N </c><c>   2</c></rc>
    <rc><c>N </c><c>   2</c></rc>
    <rc><c>N </c><c>   2</c></rc>
    <rc><c>N </c><c>   2</c></rc>
    <rc><c>N </c><c>   2</c></rc>
    <rc><c>N </c><c>   2</c></rc>
    <rc><c>N </c><c>   2</c></rc>
    <rc><c>N </c><c>   2</c></rc>
    <rc><c>N </c><c>   2</c></rc>
    <rc><c>N </c><c>   2</c></rc>
    <rc><c>N </c><c>   2</c></rc>
    <rc><c>N </c><c>   2</c></rc>
    <rc><c>N </c><c>   2</c></rc>
    <rc><c>N </c><c>   2</c></rc>
    <rc><c>N </c><c>   2</c></rc>
    <rc><c>N </c><c>   2</c></rc>
    <rc><c>N </c><c>   2</c></rc>
    <rc><c>N </c><c>   2</c></rc>
    <rc><c>N </c><c>   2</c></rc>
    <rc><c>Au</c><c>   3</c></rc>
    <rc><c>Cu</c><c>   4</c></rc>
   </set>
  </array>
  <array name="atomtypes" >
   <dimension dim="1">type</dimension>
   <field type="int">atomspertype</field>
   <field type="string">element</field>
   <field>mass</field>
   <field>valence</field>
   <field type="string">pseudopotential</field>
   <set>
    <rc><c>  24</c><c>C </c><c>     12.01100000</c><c>      4.00000000</c><c>  PAW_PBE C 08Apr2002                   </c></rc>
    <rc><c>  32</c><c>N </c><c>     14.00100000</c><c>      5.00000000</c><c>  PAW_PBE N 08Apr2002                   </c></rc>
    <rc><c>   1</c><c>Au</c><c>    196.96600000</c><c>     11.00000000</c><c>  PAW_PBE Au 04Oct2007                  </c></rc>
    <rc><c>   1</c><c>Cu</c><c>     63.54600000</c><c>     11.00000000</c><c>  PAW_PBE Cu 22Jun2005                  </c></rc>
   </set>
  </array>
 </atominfo>
 <structure name="initialpos" >
  <crystal>
   <varray name="basis" >
    <v>      14.26590000       0.00000000       0.00000000 </v>
    <v>       0.00000000      12.35699650       0.00000000 </v>
    <v>       0.00000000       0.00000000      15.00000000 </v>
   </varray>
   <i name="volume">   2644.25514646 </i>
   <varray name="rec_basis" >
    <v>       0.07009722       0.00000000       0.00000000 </v>
    <v>       0.00000000       0.08092581       0.00000000 </v>
    <v>       0.00000000       0.00000000       0.06666667 </v>
   </varray>
  </crystal>
  <varray name="positions" >
   <v>       0.06537593       0.40364000       0.13333000 </v>
   <v>       0.98097748       0.23494000       0.13333000 </v>
   <v>       0.22593437       0.39820000       0.13333000 </v>
   <v>       0.81543575       0.57710000       0.13333000 </v>
   <v>       0.14973747       0.23490000       0.13333000 </v>
   <v>       0.90517930       0.39797000       0.13333000 </v>
   <v>       0.56537593       0.40364000       0.13333000 </v>
   <v>       0.48097748       0.23494000       0.13333000 </v>
   <v>       0.72593437       0.39820000       0.13333000 </v>
   <v>       0.31543575       0.57710000       0.13333000 </v>
   <v>       0.64973747       0.23490000       0.13333000 </v>
   <v>       0.40517930       0.39797000       0.13333000 </v>
   <v>       0.81551954       0.90364000       0.13333000 </v>
   <v>       0.73112108       0.73494000       0.13333000 </v>
   <v>       0.97607797       0.89820000       0.13333000 </v>
   <v>       0.06529214       0.07710000       0.13333000 </v>
   <v>       0.89988107       0.73490000       0.13333000 </v>
   <v>       0.65532291       0.89797000       0.13333000 </v>
   <v>       0.31551954       0.90364000       0.13333000 </v>
   <v>       0.23112108       0.73494000       0.13333000 </v>
   <v>       0.47607797       0.89820000       0.13333000 </v>
   <v>       0.56529214       0.07710000       0.13333000 </v>
   <v>       0.39988107       0.73490000       0.13333000 </v>
   <v>       0.15532291       0.89797000       0.13333000 </v>
   <v>       0.98400093       0.45588000       0.13333000 </v>
   <v>       0.90111835       0.29021000       0.13333000 </v>
   <v>       0.14710595       0.45595000       0.13333000 </v>
   <v>       0.14840652       0.12714000       0.13333000 </v>
   <v>       0.98256150       0.12707000       0.13333000 </v>
   <v>       0.22992331       0.29008000       0.13333000 </v>
   <v>       0.06536362       0.29116000       0.13333000 </v>
   <v>       0.81553147       0.45774000       0.13333000 </v>
   <v>       0.48400093       0.45588000       0.13333000 </v>
   <v>       0.40111835       0.29021000       0.13333000 </v>
   <v>       0.64710595       0.45595000       0.13333000 </v>
   <v>       0.64840652       0.12714000       0.13333000 </v>
   <v>       0.48256150       0.12707000       0.13333000 </v>
   <v>       0.72992331       0.29008000       0.13333000 </v>
   <v>       0.56536362       0.29116000       0.13333000 </v>
   <v>       0.31553147       0.45774000       0.13333000 </v>
   <v>       0.73414454       0.95588000       0.13333000 </v>
   <v>       0.65126196       0.79021000       0.13333000 </v>
   <v>       0.89724956       0.95595000       0.13333000 </v>
   <v>       0.89855012       0.62714000       0.13333000 </v>
   <v>       0.73270510       0.62707000       0.13333000 </v>
   <v>       0.98006692       0.79008000       0.13333000 </v>
   <v>       0.81550723       0.79116000       0.13333000 </v>
   <v>       0.56567507       0.95774000       0.13333000 </v>
   <v>       0.23414454       0.95588000       0.13333000 </v>
   <v>       0.15126196       0.79021000       0.13333000 </v>
   <v>       0.39724956       0.95595000       0.13333000 </v>
   <v>       0.39855012       0.62714000       0.13333000 </v>
   <v>       0.23270510       0.62707000       0.13333000 </v>
   <v>       0.48006692       0.79008000       0.13333000 </v>
   <v>       0.31550723       0.79116000       0.13333000 </v>
   <v>       0.06567507       0.95774000       0.13333000 </v>
   <v>       0.51318019       0.65760505       0.14333042 </v>
   <v>       0.63498818       0.58816656       0.13951958 </v>
  </varray>
 </structure>
 <calculation>
  <scstep>
   <time name="dav">    1.80    1.82</time>
   <time name="total">    1.84    1.87</time>
   <dipole>
    <v name="dipole">      0.00000000       0.00000000       0.00044602 </v>
    <i name="Tr[quadrupol]">  -8802.76017134 </i>
    <i name="Echarged">      0.00000000 </i>
    <i name="Edipol_quadrupol">      0.00000000 </i>
    <i name="Eion">      0.00000000 </i>
   </dipole>
   <energy>
    <i name="alphaZ">    142.44441207 </i>
    <i name="ewald">  30552.72364060 </i>
    <i name="hartreedc"> -42113.08604390 </i>
    <i name="XCdc">   1021.27042595 </i>
    <i name="pawpsdc">  11264.68068793 </i>
    <i name="pawaedc"> -11399.21235700 </i>
    <i name="eentropy">     -0.09684934 </i>
    <i name="bandstr">  -1102.79544522 </i>
    <i name="atom">  14311.29160913 </i>
    <i name="e_fr_energy">   2677.22008022 </i>
    <i name="e_wo_entrp">   2677.31692956 </i>
    <i name="e_0_energy">   2677.26850489 </i>
   </energy>
  </scstep>
  <scstep>
   <time name="dav">    2.04    2.06</time>
   <time name="total">    2.04    2.06</time>
   <dipole>
    <v name="dipole">      0.00000000       0.00000000       0.00044602 </v>
    <i name="Tr[quadrupol]">  -8802.76017134 </i>
    <i name="Echarged">      0.00000000 </i>
    <i name="Edipol_quadrupol">      0.00000000 </i>
    <i name="Eion">      0.00000000 </i>
   </dipole>
   <energy>
    <i name="e_fr_energy">     86.46633806 </i>
    <i name="e_wo_entrp">     86.50228577 </i>
    <i name="e_0_energy">     86.48431192 </i>
   </energy>
  </scstep>
  <scstep>
   <time name="dav">    1.89    1.91</time>
   <time name="total">    1.89    1.91</time>
   <dipole>
    <v name="dipole">      0.00000000       0.00000000       0.00044602 </v>
    <i name="Tr[quadrupol]">  -8802.76017134 </i>
    <i name="Echarged">      0.00000000 </i>
    <i name="Edipol_quadrupol">      0.00000000 </i>
    <i name="Eion">      0.00000000 </i>
   </dipole>
   <energy>
    <i name="e_fr_energy">   -470.46051785 </i>
    <i name="e_wo_entrp">   -470.39008649 </i>
    <i name="e_0_energy">   -470.42530217 </i>
   </energy>
  </scstep>
  <scstep>
   <time name="dav">    2.11    2.15</time>
   <time name="total">    2.11    2.15</time>
   <dipole>
    <v name="dipole">      0.00000000       0.00000000       0.00044602 </v>
    <i name="Tr[quadrupol]">  -8802.76017134 </i>
    <i name="Echarged">      0.00000000 </i>
    <i name="Edipol_quadrupol">      0.00000000 </i>
    <i name="Eion">      0.00000000 </i>
   </dipole>
   <energy>
    <i name="e_fr_energy">   -501.39814277 </i>
    <i name="e_wo_entrp">   -501.28708913 </i>
    <i name="e_0_energy">   -501.34261595 </i>
   </energy>
  </scstep>
  <scstep>
   <time name="dav">    1.98    2.00</time>
   <time name="total">    2.03    2.05</time>
   <dipole>
    <v name="dipole">      0.00000000       0.00000000       0.00044602 </v>
    <i name="Tr[quadrupol]">  -8802.76017134 </i>
    <i name="Echarged">      0.00000000 </i>
    <i name="Edipol_quadrupol">      0.00000000 </i>
    <i name="Eion">      0.00000000 </i>
   </dipole>
   <energy>
    <i name="e_fr_energy">   -502.41635280 </i>
    <i name="e_wo_entrp">   -502.29805606 </i>
    <i name="e_0_energy">   -502.35720443 </i>
   </energy>
  </scstep>
  <scstep>
   <time name="dav">    2.15    2.17</time>
   <time name="total">    2.24    2.26</time>
   <dipole>
    <v name="dipole">      0.00000000       0.00000000      -0.02894285 </v>
    <i name="Tr[quadrupol]">  -8803.98443444 </i>
    <i name="Echarged">      0.00000000 </i>
    <i name="Edipol_quadrupol">      0.00000000 </i>
    <i name="Eion">      0.00000000 </i>
   </dipole>
   <energy>
    <i name="e_fr_energy">   -479.20652259 </i>
    <i name="e_wo_entrp">   -479.20652259 </i>
    <i name="e_0_energy">   -479.20652259 </i>
   </energy>
  </scstep>
  <scstep>
   <time name="dav">    2.15    2.18</time>
   <time name="total">    2.23    2.26</time>
   <dipole>
    <v name="dipole">      0.00000000       0.00000000       0.01259002 </v>
    <i name="Tr[quadrupol]">  -8804.83511529 </i>
    <i name="Echarged">      0.00000000 </i>
    <i name="Edipol_quadrupol">      0.00000000 </i>
    <i name="Eion">      0.00000000 </i>
   </dipole>
   <energy>
    <i name="e_fr_energy">   -459.44668186 </i>
    <i name="e_wo_entrp">   -459.33466008 </i>
    <i name="e_0_energy">   -459.39067097 </i>
   </energy>
  </scstep>
  <scstep>
   <time name="dav">    2.16    2.18</time>
   <time name="total">    2.24    2.26</time>
   <dipole>
    <v name="dipole">      0.00000000       0.00000000      -0.05388028 </v>
    <i name="Tr[quadrupol]">  -8805.79828805 </i>
    <i name="Echarged">      0.00000000 </i>
    <i name="Edipol_quadrupol">      0.00000000 </i>
    <i name="Eion">      0.00000000 </i>
   </dipole>
   <energy>
    <i name="e_fr_energy">   -461.20783156 </i>
    <i name="e_wo_entrp">   -461.11720045 </i>
    <i name="e_0_energy">   -461.16251601 </i>
   </energy>
  </scstep>
  <scstep>
   <time name="dav">    2.06    2.08</time>
   <time name="total">    2.14    2.16</time>
   <dipole>
    <v name="dipole">      0.00000000       0.00000000      -0.05347876 </v>
    <i name="Tr[quadrupol]">  -8806.47331758 </i>
    <i name="Echarged">      0.00000000 </i>
    <i name="Edipol_quadrupol">      0.00000000 </i>
    <i name="Eion">      0.00000000 </i>
   </dipole>
   <energy>
    <i name="e_fr_energy">   -459.12710351 </i>
    <i name="e_wo_entrp">   -459.01414506 </i>
    <i name="e_0_energy">   -459.07062429 </i>
   </energy>
  </scstep>
  <scstep>
   <time name="dav">    2.15    2.17</time>
   <time name="total">    2.24    2.27</time>
   <dipole>
    <v name="dipole">      0.00000000       0.00000000      -0.03772577 </v>
    <i name="Tr[quadrupol]">  -8807.31549309 </i>
    <i name="Echarged">      0.00000000 </i>
    <i name="Edipol_quadrupol">      0.00000000 </i>
    <i name="Eion">      0.00000000 </i>
   </dipole>
   <energy>
    <i name="e_fr_energy">   -460.93125778 </i>
    <i name="e_wo_entrp">   -460.83144226 </i>
    <i name="e_0_energy">   -460.88135002 </i>
   </energy>
  </scstep>
  <scstep>
   <time name="dav">    2.12    2.14</time>
   <time name="total">    2.21    2.23</time>
   <dipole>
    <v name="dipole">      0.00000000       0.00000000      -0.03617723 </v>
    <i name="Tr[quadrupol]">  -8807.70922345 </i>
    <i name="Echarged">      0.00000000 </i>
    <i name="Edipol_quadrupol">      0.00000000 </i>
    <i name="Eion">      0.00000000 </i>
   </dipole>
   <energy>
    <i name="e_fr_energy">   -459.47047071 </i>
    <i name="e_wo_entrp">   -459.39714362 </i>
    <i name="e_0_energy">   -459.43380717 </i>
   </energy>
  </scstep>
  <scstep>
   <time name="dav">    2.14    2.17</time>
   <time name="total">    2.22    2.25</time>
   <dipole>
    <v name="dipole">      0.00000000       0.00000000      -0.00480050 </v>
    <i name="Tr[quadrupol]">  -8808.24138912 </i>
    <i name="Echarged">      0.00000000 </i>
    <i name="Edipol_quadrupol">      0.00000000 </i>
    <i name="Eion">      0.00000000 </i>
   </dipole>
   <energy>
    <i name="e_fr_energy">   -458.82676596 </i>
    <i name="e_wo_entrp">   -458.70106284 </i>
    <i name="e_0_energy">   -458.76391440 </i>
   </energy>
  </scstep>
  <scstep>
   <time name="dav">    2.03    2.05</time>
   <time name="total">    2.11    2.14</time>
   <dipole>
    <v name="dipole">      0.00000000       0.00000000      -0.00296220 </v>
    <i name="Tr[quadrupol]">  -8808.26370078 </i>
    <i name="Echarged">      0.00000000 </i>
    <i name="Edipol_quadrupol">      0.00000000 </i>
    <i name="Eion">      0.00000000 </i>
   </dipole>
   <energy>
    <i name="e_fr_energy">   -458.70422220 </i>
    <i name="e_wo_entrp">   -458.54274257 </i>
    <i name="e_0_energy">   -458.62348238 </i>
   </energy>
  </scstep>
  <scstep>
   <time name="dav">    1.98    2.01</time>
   <time name="total">    2.07    2.09</time>
   <dipole>
    <v name="dipole">      0.00000000       0.00000000       0.00121907 </v>
    <i name="Tr[quadrupol]">  -8808.41607866 </i>
    <i name="Echarged">      0.00000000 </i>
    <i name="Edipol_quadrupol">      0.00000000 </i>
    <i name="Eion">      0.00000000 </i>
   </dipole>
   <energy>
    <i name="e_fr_energy">   -458.68212572 </i>
    <i name="e_wo_entrp">   -458.51016559 </i>
    <i name="e_0_energy">   -458.59614565 </i>
   </energy>
  </scstep>
  <scstep>
   <time name="dav">    2.01    2.03</time>
   <time name="total">    2.09    2.11</time>
   <dipole>
    <v name="dipole">      0.00000000       0.00000000       0.01606645 </v>
    <i name="Tr[quadrupol]">  -8808.88627723 </i>
    <i name="Echarged">      0.00000000 </i>
    <i name="Edipol_quadrupol">      0.00000000 </i>
    <i name="Eion">      0.00000000 </i>
   </dipole>
   <energy>
    <i name="e_fr_energy">   -458.62689731 </i>
    <i name="e_wo_entrp">   -458.46763038 </i>
    <i name="e_0_energy">   -458.54726385 </i>
   </energy>
  </scstep>
  <scstep>
   <time name="dav">    2.08    2.10</time>
   <time name="total">    2.16    2.18</time>
   <dipole>
    <v name="dipole">      0.00000000       0.00000000       0.02604102 </v>
    <i name="Tr[quadrupol]">  -8809.34002739 </i>
    <i name="Echarged">      0.00000000 </i>
    <i name="Edipol_quadrupol">      0.00000000 </i>
    <i name="Eion">      0.00000000 </i>
   </dipole>
   <energy>
    <i name="e_fr_energy">   -458.61940811 </i>
    <i name="e_wo_entrp">   -458.46978163 </i>
    <i name="e_0_energy">   -458.54459487 </i>
   </energy>
  </scstep>
  <scstep>
   <time name="dav">    2.06    2.08</time>
   <time name="total">    2.15    2.17</time>
   <dipole>
    <v name="dipole">      0.00000000       0.00000000       0.02930341 </v>
    <i name="Tr[quadrupol]">  -8809.81834341 </i>
    <i name="Echarged">      0.00000000 </i>
    <i name="Edipol_quadrupol">      0.00000000 </i>
    <i name="Eion">      0.00000000 </i>
   </dipole>
   <energy>
    <i name="e_fr_energy">   -458.61068060 </i>
    <i name="e_wo_entrp">   -458.45405167 </i>
    <i name="e_0_energy">   -458.53236614 </i>
   </energy>
  </scstep>
  <scstep>
   <time name="dav">    2.09    2.11</time>
   <time name="total">    2.17    2.19</time>
   <dipole>
    <v name="dipole">      0.00000000       0.00000000       0.02744485 </v>
    <i name="Tr[quadrupol]">  -8810.30223289 </i>
    <i name="Echarged">      0.00000000 </i>
    <i name="Edipol_quadrupol">      0.00000000 </i>
    <i name="Eion">      0.00000000 </i>
   </dipole>
   <energy>
    <i name="e_fr_energy">   -458.59413212 </i>
    <i name="e_wo_entrp">   -458.42366285 </i>
    <i name="e_0_energy">   -458.50889748 </i>
   </energy>
  </scstep>
  <scstep>
   <time name="dav">    1.97    1.98</time>
   <time name="total">    2.06    2.09</time>
   <dipole>
    <v name="dipole">      0.00000000       0.00000000       0.03128910 </v>
    <i name="Tr[quadrupol]">  -8810.75216959 </i>
    <i name="Echarged">      0.00000000 </i>
    <i name="Edipol_quadrupol">      0.00000000 </i>
    <i name="Eion">      0.00000000 </i>
   </dipole>
   <energy>
    <i name="e_fr_energy">   -458.59461852 </i>
    <i name="e_wo_entrp">   -458.41795497 </i>
    <i name="e_0_energy">   -458.50628675 </i>
   </energy>
  </scstep>
  <scstep>
   <time name="dav">    2.05    2.07</time>
   <time name="total">    2.13    2.15</time>
   <dipole>
    <v name="dipole">      0.00000000       0.00000000       0.03641684 </v>
    <i name="Tr[quadrupol]">  -8811.33802869 </i>
    <i name="Echarged">      0.00000000 </i>
    <i name="Edipol_quadrupol">      0.00000000 </i>
    <i name="Eion">      0.00000000 </i>
   </dipole>
   <energy>
    <i name="e_fr_energy">   -458.60069219 </i>
    <i name="e_wo_entrp">   -458.42076985 </i>
    <i name="e_0_energy">   -458.51073102 </i>
   </energy>
  </scstep>
  <scstep>
   <time name="dav">    2.00    2.02</time>
   <time name="total">    2.09    2.11</time>
   <dipole>
    <v name="dipole">      0.00000000       0.00000000       0.04147165 </v>
    <i name="Tr[quadrupol]">  -8811.85579780 </i>
    <i name="Echarged">      0.00000000 </i>
    <i name="Edipol_quadrupol">      0.00000000 </i>
    <i name="Eion">      0.00000000 </i>
   </dipole>
   <energy>
    <i name="e_fr_energy">   -458.60164706 </i>
    <i name="e_wo_entrp">   -458.42394145 </i>
    <i name="e_0_energy">   -458.51279425 </i>
   </energy>
  </scstep>
  <scstep>
   <time name="dav">    1.86    1.88</time>
   <time name="total">    1.94    1.96</time>
   <dipole>
    <v name="dipole">      0.00000000       0.00000000       0.16566780 </v>
    <i name="Tr[quadrupol]">  -8812.52355316 </i>
    <i name="Echarged">      0.00000000 </i>
    <i name="Edipol_quadrupol">      0.00000000 </i>
    <i name="Eion">      0.00000000 </i>
   </dipole>
   <energy>
    <i name="e_fr_energy">   -458.60389248 </i>
    <i name="e_wo_entrp">   -458.42639447 </i>
    <i name="e_0_energy">   -458.51514348 </i>
   </energy>
  </scstep>
  <scstep>
   <time name="dav">    1.94    1.96</time>
   <time name="total">    2.03    2.05</time>
   <dipole>
    <v name="dipole">      0.00000000       0.00000000       0.21390772 </v>
    <i name="Tr[quadrupol]">  -8812.90298613 </i>
    <i name="Echarged">      0.00000000 </i>
    <i name="Edipol_quadrupol">      0.00000000 </i>
    <i name="Eion">      0.00000000 </i>
   </dipole>
   <energy>
    <i name="e_fr_energy">   -458.60512152 </i>
    <i name="e_wo_entrp">   -458.42764552 </i>
    <i name="e_0_energy">   -458.51638352 </i>
   </energy>
  </scstep>
  <scstep>
   <time name="dav">    2.03    2.05</time>
   <time name="total">    2.11    2.13</time>
   <dipole>
    <v name="dipole">      0.00000000       0.00000000       0.21709932 </v>
    <i name="Tr[quadrupol]">  -8813.16443609 </i>
    <i name="Echarged">      0.00000000 </i>
    <i name="Edipol_quadrupol">      0.00000000 </i>
    <i name="Eion">      0.00000000 </i>
   </dipole>
   <energy>
    <i name="e_fr_energy">   -458.60655040 </i>
    <i name="e_wo_entrp">   -458.42945723 </i>
    <i name="e_0_energy">   -458.51800381 </i>
   </energy>
  </scstep>
  <scstep>
   <time name="dav">    2.01    2.03</time>
   <time name="total">    2.09    2.11</time>
   <dipole>
    <v name="dipole">      0.00000000       0.00000000       0.16280653 </v>
    <i name="Tr[quadrupol]">  -8813.46944329 </i>
    <i name="Echarged">      0.00000000 </i>
    <i name="Edipol_quadrupol">      0.00000000 </i>
    <i name="Eion">      0.00000000 </i>
   </dipole>
   <energy>
    <i name="e_fr_energy">   -458.60801110 </i>
    <i name="e_wo_entrp">   -458.43091547 </i>
    <i name="e_0_energy">   -458.51946328 </i>
   </energy>
  </scstep>
  <scstep>
   <time name="dav">    1.94    1.96</time>
   <time name="total">    2.02    2.04</time>
   <dipole>
    <v name="dipole">      0.00000000       0.00000000       0.15095545 </v>
    <i name="Tr[quadrupol]">  -8813.49316657 </i>
    <i name="Echarged">      0.00000000 </i>
    <i name="Edipol_quadrupol">      0.00000000 </i>
    <i name="Eion">      0.00000000 </i>
   </dipole>
   <energy>
    <i name="e_fr_energy">   -458.60832516 </i>
    <i name="e_wo_entrp">   -458.43164654 </i>
    <i name="e_0_energy">   -458.51998585 </i>
   </energy>
  </scstep>
  <scstep>
   <time name="dav">    1.76    1.79</time>
   <time name="total">    1.84    1.87</time>
   <dipole>
    <v name="dipole">      0.00000000       0.00000000       0.11947928 </v>
    <i name="Tr[quadrupol]">  -8813.62665731 </i>
    <i name="Echarged">      0.00000000 </i>
    <i name="Edipol_quadrupol">      0.00000000 </i>
    <i name="Eion">      0.00000000 </i>
   </dipole>
   <energy>
    <i name="e_fr_energy">   -458.60973907 </i>
    <i name="e_wo_entrp">   -458.43289040 </i>
    <i name="e_0_energy">   -458.52131474 </i>
   </energy>
  </scstep>
  <scstep>
   <time name="dav">    1.56    1.57</time>
   <time name="total">    1.65    1.67</time>
   <dipole>
    <v name="dipole">      0.00000000       0.00000000       0.09418624 </v>
    <i name="Tr[quadrupol]">  -8813.70016650 </i>
    <i name="Echarged">      0.00000000 </i>
    <i name="Edipol_quadrupol">      0.00000000 </i>
    <i name="Eion">      0.00000000 </i>
   </dipole>
   <energy>
    <i name="e_fr_energy">   -458.61058582 </i>
    <i name="e_wo_entrp">   -458.43404437 </i>
    <i name="e_0_energy">   -458.52231509 </i>
   </energy>
  </scstep>
  <scstep>
   <time name="dav">    1.37    1.38</time>
   <time name="total">    1.45    1.46</time>
   <dipole>
    <v name="dipole">      0.00000000       0.00000000       0.07935117 </v>
    <i name="Tr[quadrupol]">  -8813.73892749 </i>
    <i name="Echarged">      0.00000000 </i>
    <i name="Edipol_quadrupol">      0.00000000 </i>
    <i name="Eion">      0.00000000 </i>
   </dipole>
   <energy>
    <i name="e_fr_energy">   -458.61123816 </i>
    <i name="e_wo_entrp">   -458.43450603 </i>
    <i name="e_0_energy">   -458.52287209 </i>
   </energy>
  </scstep>
  <scstep>
   <time name="dav">    1.51    1.53</time>
   <time name="total">    1.59    1.61</time>
   <dipole>
    <v name="dipole">      0.00000000       0.00000000       0.06388604 </v>
    <i name="Tr[quadrupol]">  -8813.78702419 </i>
    <i name="Echarged">      0.00000000 </i>
    <i name="Edipol_quadrupol">      0.00000000 </i>
    <i name="Eion">      0.00000000 </i>
   </dipole>
   <energy>
    <i name="e_fr_energy">   -458.61183128 </i>
    <i name="e_wo_entrp">   -458.43508542 </i>
    <i name="e_0_energy">   -458.52345835 </i>
   </energy>
  </scstep>
  <scstep>
   <time name="dav">    1.24    1.25</time>
   <time name="total">    1.33    1.34</time>
   <dipole>
    <v name="dipole">      0.00000000       0.00000000       0.06098290 </v>
    <i name="Tr[quadrupol]">  -8813.80099125 </i>
    <i name="Echarged">      0.00000000 </i>
    <i name="Edipol_quadrupol">      0.00000000 </i>
    <i name="Eion">      0.00000000 </i>
   </dipole>
   <energy>
    <i name="e_fr_energy">   -458.61192706 </i>
    <i name="e_wo_entrp">   -458.43535049 </i>
    <i name="e_0_energy">   -458.52363878 </i>
   </energy>
  </scstep>
  <scstep>
   <time name="dav">    1.16    1.17</time>
   <time name="total">    1.24    1.25</time>
   <dipole>
    <v name="dipole">      0.00000000       0.00000000       0.05913103 </v>
    <i name="Tr[quadrupol]">  -8813.80942789 </i>
    <i name="Echarged">      0.00000000 </i>
    <i name="Edipol_quadrupol">      0.00000000 </i>
    <i name="Eion">      0.00000000 </i>
   </dipole>
   <energy>
    <i name="e_fr_energy">   -458.61198434 </i>
    <i name="e_wo_entrp">   -458.43540529 </i>
    <i name="e_0_energy">   -458.52369481 </i>
   </energy>
  </scstep>
  <scstep>
   <time name="dav">    1.20    1.21</time>
   <time name="total">    1.28    1.29</time>
   <dipole>
    <v name="dipole">      0.00000000       0.00000000       0.05819360 </v>
    <i name="Tr[quadrupol]">  -8813.81494317 </i>
    <i name="Echarged">      0.00000000 </i>
    <i name="Edipol_quadrupol">      0.00000000 </i>
    <i name="Eion">      0.00000000 </i>
   </dipole>
   <energy>
    <i name="e_fr_energy">   -458.61200424 </i>
    <i name="e_wo_entrp">   -458.43540209 </i>
    <i name="e_0_energy">   -458.52370316 </i>
   </energy>
  </scstep>
  <scstep>
   <time name="dav">    1.20    1.24</time>
   <time name="total">    1.24    1.27</time>
   <dipole>
    <v name="dipole">      0.00000000       0.00000000       0.05813259 </v>
    <i name="Tr[quadrupol]">  -8813.81707182 </i>
    <i name="Echarged">      0.00000000 </i>
    <i name="Edipol_quadrupol">      0.00000000 </i>
    <i name="Eion">      0.00000000 </i>
   </dipole>
   <energy>
    <i name="alphaZ">    143.70184613 </i>
    <i name="ewald">  30552.72364060 </i>
    <i name="hartreedc"> -42867.32699899 </i>
    <i name="XCdc">   1052.40282234 </i>
    <i name="pawpsdc">  31480.60140390 </i>
    <i name="pawaedc"> -31645.26011634 </i>
    <i name="eentropy">     -0.17663829 </i>
    <i name="bandstr">  -3486.56957789 </i>
    <i name="atom">  14311.29160913 </i>
    <i name="e_fr_energy">   -458.61200940 </i>
    <i name="e_wo_entrp">   -458.43537111 </i>
    <i name="e_0_energy">   -458.52369025 </i>
   </energy>
  </scstep>
  <structure>
   <crystal>
    <varray name="basis" >
     <v>      14.26590000       0.00000000       0.00000000 </v>
     <v>       0.00000000      12.35699650       0.00000000 </v>
     <v>       0.00000000       0.00000000      15.00000000 </v>
    </varray>
    <i name="volume">   2644.25514646 </i>
    <varray name="rec_basis" >
     <v>       0.07009722       0.00000000       0.00000000 </v>
     <v>       0.00000000       0.08092581       0.00000000 </v>
     <v>       0.00000000       0.00000000       0.06666667 </v>
    </varray>
   </crystal>
   <varray name="positions" >
    <v>       0.06537593       0.40364000       0.13333000 </v>
    <v>       0.98097748       0.23494000       0.13333000 </v>
    <v>       0.22593437       0.39820000       0.13333000 </v>
    <v>       0.81543575       0.57710000       0.13333000 </v>
    <v>       0.14973747       0.23490000       0.13333000 </v>
    <v>       0.90517930       0.39797000       0.13333000 </v>
    <v>       0.56537593       0.40364000       0.13333000 </v>
    <v>       0.48097748       0.23494000       0.13333000 </v>
    <v>       0.72593437       0.39820000       0.13333000 </v>
    <v>       0.31543575       0.57710000       0.13333000 </v>
    <v>       0.64973747       0.23490000       0.13333000 </v>
    <v>       0.40517930       0.39797000       0.13333000 </v>
    <v>       0.81551954       0.90364000       0.13333000 </v>
    <v>       0.73112108       0.73494000       0.13333000 </v>
    <v>       0.97607797       0.89820000       0.13333000 </v>
    <v>       0.06529214       0.07710000       0.13333000 </v>
    <v>       0.89988107       0.73490000       0.13333000 </v>
    <v>       0.65532291       0.89797000       0.13333000 </v>
    <v>       0.31551954       0.90364000       0.13333000 </v>
    <v>       0.23112108       0.73494000       0.13333000 </v>
    <v>       0.47607797       0.89820000       0.13333000 </v>
    <v>       0.56529214       0.07710000       0.13333000 </v>
    <v>       0.39988107       0.73490000       0.13333000 </v>
    <v>       0.15532291       0.89797000       0.13333000 </v>
    <v>       0.98400093       0.45588000       0.13333000 </v>
    <v>       0.90111835       0.29021000       0.13333000 </v>
    <v>       0.14710595       0.45595000       0.13333000 </v>
    <v>       0.14840652       0.12714000       0.13333000 </v>
    <v>       0.98256150       0.12707000       0.13333000 </v>
    <v>       0.22992331       0.29008000       0.13333000 </v>
    <v>       0.06536362       0.29116000       0.13333000 </v>
    <v>       0.81553147       0.45774000       0.13333000 </v>
    <v>       0.48400093       0.45588000       0.13333000 </v>
    <v>       0.40111835       0.29021000       0.13333000 </v>
    <v>       0.64710595       0.45595000       0.13333000 </v>
    <v>       0.64840652       0.12714000       0.13333000 </v>
    <v>       0.48256150       0.12707000       0.13333000 </v>
    <v>       0.72992331       0.29008000       0.13333000 </v>
    <v>       0.56536362       0.29116000       0.13333000 </v>
    <v>       0.31553147       0.45774000       0.13333000 </v>
    <v>       0.73414454       0.95588000       0.13333000 </v>
    <v>       0.65126196       0.79021000       0.13333000 </v>
    <v>       0.89724956       0.95595000       0.13333000 </v>
    <v>       0.89855012       0.62714000       0.13333000 </v>
    <v>       0.73270510       0.62707000       0.13333000 </v>
    <v>       0.98006692       0.79008000       0.13333000 </v>
    <v>       0.81550723       0.79116000       0.13333000 </v>
    <v>       0.56567507       0.95774000       0.13333000 </v>
    <v>       0.23414454       0.95588000       0.13333000 </v>
    <v>       0.15126196       0.79021000       0.13333000 </v>
    <v>       0.39724956       0.95595000       0.13333000 </v>
    <v>       0.39855012       0.62714000       0.13333000 </v>
    <v>       0.23270510       0.62707000       0.13333000 </v>
    <v>       0.48006692       0.79008000       0.13333000 </v>
    <v>       0.31550723       0.79116000       0.13333000 </v>
    <v>       0.06567507       0.95774000       0.13333000 </v>
    <v>       0.51318019       0.65760505       0.14333042 </v>
    <v>       0.63498818       0.58816656       0.13951958 </v>
   </varray>
  </structure>
  <varray name="forces" >
   <v>       0.20882823       0.24189024       0.00760500 </v>
   <v>      -0.03947067      -0.44500458      -0.00113629 </v>
   <v>      -0.04151404      -0.26833119      -0.00145686 </v>
   <v>       2.80619145      -1.64822332      -0.03146948 </v>
   <v>       0.23735724      -0.29617190      -0.00113602 </v>
   <v>       0.20382878      -0.16903348       0.00041360 </v>
   <v>      -0.97181166      -1.46025557      -0.14011508 </v>
   <v>      -0.72838917      -1.10670205       0.01097035 </v>
   <v>       2.86915754      -1.49894649      -0.01006008 </v>
   <v>      -1.58013150      -2.48722621       0.16345990 </v>
   <v>       0.66451089      -1.10305839       0.00995462 </v>
   <v>      -2.24423464      -0.54725102       0.04015495 </v>
   <v>       0.62412991       0.94203124       0.02083193 </v>
   <v>       1.44888798       2.34343846      -0.18867164 </v>
   <v>       0.56469981       0.11940550      -0.00910663 </v>
   <v>       0.19767291      -0.18617923       0.00573452 </v>
   <v>       1.04473252       0.01559619       0.00805829 </v>
   <v>      -0.61412191       1.95231076       0.03454116 </v>
   <v>      -0.60689889       1.09232819       0.03999645 </v>
   <v>      -1.15203268      -0.04651493       0.07703277 </v>
   <v>       1.65822887       2.61471625       0.05244906 </v>
   <v>       0.21484278      -0.40195059      -0.00024540 </v>
   <v>      -9.47117707       5.67119976      -0.88235878 </v>
   <v>      -0.63982933       0.36067181      -0.02237227 </v>
   <v>      -0.10070767       0.18771124       0.00141946 </v>
   <v>      -0.22833901       0.07418236       0.00031898 </v>
   <v>      -0.17319515       0.14364325       0.00646308 </v>
   <v>       0.02068732       0.14580565       0.00004578 </v>
   <v>      -0.21442494       0.28019370      -0.00353696 </v>
   <v>       0.05962017       0.10185446       0.00322774 </v>
   <v>       0.00893003       0.03478642      -0.00171675 </v>
   <v>      -0.74902267       0.41831514      -0.04634446 </v>
   <v>       1.16109950       0.22608249      -0.19723349 </v>
   <v>       0.34093630       0.30744291       0.05786334 </v>
   <v>      -0.67540039      -5.74933376      -0.34042859 </v>
   <v>       0.20883662       0.71108163      -0.04089778 </v>
   <v>      -0.39497441       0.78544376      -0.03000789 </v>
   <v>      -0.43943654       0.73844826       0.06484930 </v>
   <v>       0.17658627       1.04169432       0.02952531 </v>
   <v>       0.57105549       0.22878318      -0.01450964 </v>
   <v>      -0.11211717      -0.28624381       0.07428440 </v>
   <v>       0.49301146      -0.51533024      -0.37781966 </v>
   <v>      -0.87497577      -0.11774726      -0.05359052 </v>
   <v>      -0.80659350       0.01460813       0.07917738 </v>
   <v>      14.18319499       6.19285602      -1.11882973 </v>
   <v>      -0.47420226      -0.40606272      -0.04315464 </v>
   <v>      -0.59001687      -0.53058458       0.10967043 </v>
   <v>       0.00979572      -0.42545470       0.02248402 </v>
   <v>       0.84394512      -0.10535834      -0.06296744 </v>
   <v>       0.45284657      -0.58353455      -0.07109435 </v>
   <v>      -0.00391226      -0.76528750       0.03806481 </v>
   <v>     -14.32764238      -2.27608461      -2.36224587 </v>
   <v>       0.64123831       0.34989444      -0.04617559 </v>
   <v>      -4.69148914      11.35831610      -1.90878506 </v>
   <v>       0.49076951      -0.34256482       0.48810964 </v>
   <v>      -0.09450751      -0.07565382       0.04616194 </v>
   <v>      16.48492743      -9.06261189       5.17252913 </v>
   <v>      -5.84998054      -5.78803031       1.34206961 </v>
  </varray>
  <varray name="stress" >
   <v>      50.39979790      -5.38478124       1.17310183 </v>
   <v>      -5.38478124      28.58374238      -1.14792912 </v>
   <v>       1.17310182      -1.14792909     -11.99470945 </v>
  </varray>
  <energy>
   <i name="e_fr_energy">   -458.61200940 </i>
   <i name="e_wo_entrp">   -458.43537111 </i>
   <i name="e_0_energy">   -458.52369025 </i>
  </energy>
  <time name="totalsc">   67.59   68.36</time>
 </calculation>
 <calculation>
  <scstep>
   <time name="dav">    1.71    1.73</time>
   <time name="total">    1.79    1.81</time>
   <dipole>
    <v name="dipole">      0.00000000       0.00000000       0.05854920 </v>
    <i name="Tr[quadrupol]">  -8982.12700138 </i>
    <i name="Echarged">      0.00000000 </i>
    <i name="Edipol_quadrupol">      0.00000000 </i>
    <i name="Eion">      0.00000000 </i>
   </dipole>
   <energy>
    <i name="alphaZ">    140.64880891 </i>
    <i name="ewald">  29642.90406914 </i>
    <i name="hartreedc"> -41943.73221030 </i>
    <i name="XCdc">   1044.90327235 </i>
    <i name="pawpsdc">  31480.64830199 </i>
    <i name="pawaedc"> -31645.30736653 </i>
    <i name="eentropy">     -0.05358581 </i>
    <i name="bandstr">  -3493.83114882 </i>
    <i name="atom">  14311.29160913 </i>
    <i name="e_fr_energy">   -462.52824993 </i>
    <i name="e_wo_entrp">   -462.47466413 </i>
    <i name="e_0_energy">   -462.50145703 </i>
   </energy>
  </scstep>
  <scstep>
   <time name="dav">    2.11    2.13</time>
   <time name="total">    2.19    2.21</time>
   <dipole>
    <v name="dipole">      0.00000000       0.00000000       0.08285146 </v>
    <i name="Tr[quadrupol]">  -8981.98975065 </i>
    <i name="Echarged">      0.00000000 </i>
    <i name="Edipol_quadrupol">      0.00000000 </i>
    <i name="Eion">      0.00000000 </i>
   </dipole>
   <energy>
    <i name="e_fr_energy">   -468.72403786 </i>
    <i name="e_wo_entrp">   -468.62085022 </i>
    <i name="e_0_energy">   -468.67244404 </i>
   </energy>
  </scstep>
  <scstep>
   <time name="dav">    2.07    2.09</time>
   <time name="total">    2.15    2.17</time>
   <dipole>
    <v name="dipole">      0.00000000       0.00000000       0.07747078 </v>
    <i name="Tr[quadrupol]">  -8981.87158174 </i>
    <i name="Echarged">      0.00000000 </i>
    <i name="Edipol_quadrupol">      0.00000000 </i>
    <i name="Eion">      0.00000000 </i>
   </dipole>
   <energy>
    <i name="e_fr_energy">   -465.48740720 </i>
    <i name="e_wo_entrp">   -465.39943727 </i>
    <i name="e_0_energy">   -465.44342223 </i>
   </energy>
  </scstep>
  <scstep>
   <time name="dav">    2.19    2.21</time>
   <time name="total">    2.27    2.29</time>
   <dipole>
    <v name="dipole">      0.00000000       0.00000000       0.07837647 </v>
    <i name="Tr[quadrupol]">  -8982.08809035 </i>
    <i name="Echarged">      0.00000000 </i>
    <i name="Edipol_quadrupol">      0.00000000 </i>
    <i name="Eion">      0.00000000 </i>
   </dipole>
   <energy>
    <i name="e_fr_energy">   -465.37661190 </i>
    <i name="e_wo_entrp">   -465.29727973 </i>
    <i name="e_0_energy">   -465.33694581 </i>
   </energy>
  </scstep>
  <scstep>
   <time name="dav">    2.07    2.09</time>
   <time name="total">    2.15    2.18</time>
   <dipole>
    <v name="dipole">      0.00000000       0.00000000       0.06072731 </v>
    <i name="Tr[quadrupol]">  -8982.04867674 </i>
    <i name="Echarged">      0.00000000 </i>
    <i name="Edipol_quadrupol">      0.00000000 </i>
    <i name="Eion">      0.00000000 </i>
   </dipole>
   <energy>
    <i name="e_fr_energy">   -465.33703669 </i>
    <i name="e_wo_entrp">   -465.27435372 </i>
    <i name="e_0_energy">   -465.30569521 </i>
   </energy>
  </scstep>
  <scstep>
   <time name="dav">    1.99    2.01</time>
   <time name="total">    2.07    2.11</time>
   <dipole>
    <v name="dipole">      0.00000000       0.00000000       0.02769732 </v>
    <i name="Tr[quadrupol]">  -8982.07155703 </i>
    <i name="Echarged">      0.00000000 </i>
    <i name="Edipol_quadrupol">      0.00000000 </i>
    <i name="Eion">      0.00000000 </i>
   </dipole>
   <energy>
    <i name="e_fr_energy">   -464.87445926 </i>
    <i name="e_wo_entrp">   -464.77923226 </i>
    <i name="e_0_energy">   -464.82684576 </i>
   </energy>
  </scstep>
  <scstep>
   <time name="dav">    1.93    1.95</time>
   <time name="total">    2.01    2.03</time>
   <dipole>
    <v name="dipole">      0.00000000       0.00000000       0.03668856 </v>
    <i name="Tr[quadrupol]">  -8982.02472808 </i>
    <i name="Echarged">      0.00000000 </i>
    <i name="Edipol_quadrupol">      0.00000000 </i>
    <i name="Eion">      0.00000000 </i>
   </dipole>
   <energy>
    <i name="e_fr_energy">   -464.21490667 </i>
    <i name="e_wo_entrp">   -464.11488845 </i>
    <i name="e_0_energy">   -464.16489756 </i>
   </energy>
  </scstep>
  <scstep>
   <time name="dav">    2.05    2.07</time>
   <time name="total">    2.13    2.15</time>
   <dipole>
    <v name="dipole">      0.00000000       0.00000000       0.04726231 </v>
    <i name="Tr[quadrupol]">  -8982.12851969 </i>
    <i name="Echarged">      0.00000000 </i>
    <i name="Edipol_quadrupol">      0.00000000 </i>
    <i name="Eion">      0.00000000 </i>
   </dipole>
   <energy>
    <i name="e_fr_energy">   -463.75440557 </i>
    <i name="e_wo_entrp">   -463.63008810 </i>
    <i name="e_0_energy">   -463.69224683 </i>
   </energy>
  </scstep>
  <scstep>
   <time name="dav">    2.08    2.10</time>
   <time name="total">    2.16    2.18</time>
   <dipole>
    <v name="dipole">      0.00000000       0.00000000       0.05009284 </v>
    <i name="Tr[quadrupol]">  -8982.03749844 </i>
    <i name="Echarged">      0.00000000 </i>
    <i name="Edipol_quadrupol">      0.00000000 </i>
    <i name="Eion">      0.00000000 </i>
   </dipole>
   <energy>
    <i name="e_fr_energy">   -463.42890747 </i>
    <i name="e_wo_entrp">   -463.31137691 </i>
    <i name="e_0_energy">   -463.37014219 </i>
   </energy>
  </scstep>
  <scstep>
   <time name="dav">    2.01    2.03</time>
   <time name="total">    2.09    2.11</time>
   <dipole>
    <v name="dipole">      0.00000000       0.00000000       0.04817016 </v>
    <i name="Tr[quadrupol]">  -8981.98967057 </i>
    <i name="Echarged">      0.00000000 </i>
    <i name="Edipol_quadrupol">      0.00000000 </i>
    <i name="Eion">      0.00000000 </i>
   </dipole>
   <energy>
    <i name="e_fr_energy">   -463.32516926 </i>
    <i name="e_wo_entrp">   -463.20835006 </i>
    <i name="e_0_energy">   -463.26675966 </i>
   </energy>
  </scstep>
  <scstep>
   <time name="dav">    2.09    2.11</time>
   <time name="total">    2.17    2.19</time>
   <dipole>
    <v name="dipole">      0.00000000       0.00000000       0.06262184 </v>
    <i name="Tr[quadrupol]">  -8982.01624492 </i>
    <i name="Echarged">      0.00000000 </i>
    <i name="Edipol_quadrupol">      0.00000000 </i>
    <i name="Eion">      0.00000000 </i>
   </dipole>
   <energy>
    <i name="e_fr_energy">   -463.07267859 </i>
    <i name="e_wo_entrp">   -462.93121279 </i>
    <i name="e_0_energy">   -463.00194569 </i>
   </energy>
  </scstep>
  <scstep>
   <time name="dav">    2.08    2.10</time>
   <time name="total">    2.16    2.19</time>
   <dipole>
    <v name="dipole">      0.00000000       0.00000000       0.06377906 </v>
    <i name="Tr[quadrupol]">  -8982.00818815 </i>
    <i name="Echarged">      0.00000000 </i>
    <i name="Edipol_quadrupol">      0.00000000 </i>
    <i name="Eion">      0.00000000 </i>
   </dipole>
   <energy>
    <i name="e_fr_energy">   -463.02318091 </i>
    <i name="e_wo_entrp">   -462.88100270 </i>
    <i name="e_0_energy">   -462.95209181 </i>
   </energy>
  </scstep>
  <scstep>
   <time name="dav">    2.20    2.22</time>
   <time name="total">    2.28    2.30</time>
   <dipole>
    <v name="dipole">      0.00000000       0.00000000       0.06342874 </v>
    <i name="Tr[quadrupol]">  -8981.97519280 </i>
    <i name="Echarged">      0.00000000 </i>
    <i name="Edipol_quadrupol">      0.00000000 </i>
    <i name="Eion">      0.00000000 </i>
   </dipole>
   <energy>
    <i name="e_fr_energy">   -463.01134508 </i>
    <i name="e_wo_entrp">   -462.86733464 </i>
    <i name="e_0_energy">   -462.93933986 </i>
   </energy>
  </scstep>
  <scstep>
   <time name="dav">    2.06    2.07</time>
   <time name="total">    2.14    2.16</time>
   <dipole>
    <v name="dipole">      0.00000000       0.00000000       0.06230120 </v>
    <i name="Tr[quadrupol]">  -8981.93349410 </i>
    <i name="Echarged">      0.00000000 </i>
    <i name="Edipol_quadrupol">      0.00000000 </i>
    <i name="Eion">      0.00000000 </i>
   </dipole>
   <energy>
    <i name="e_fr_energy">   -463.00933881 </i>
    <i name="e_wo_entrp">   -462.86768702 </i>
    <i name="e_0_energy">   -462.93851291 </i>
   </energy>
  </scstep>
  <scstep>
   <time name="dav">    2.08    2.10</time>
   <time name="total">    2.16    2.18</time>
   <dipole>
    <v name="dipole">      0.00000000       0.00000000       0.06653098 </v>
    <i name="Tr[quadrupol]">  -8981.94702111 </i>
    <i name="Echarged">      0.00000000 </i>
    <i name="Edipol_quadrupol">      0.00000000 </i>
    <i name="Eion">      0.00000000 </i>
   </dipole>
   <energy>
    <i name="e_fr_energy">   -462.99835911 </i>
    <i name="e_wo_entrp">   -462.84776950 </i>
    <i name="e_0_energy">   -462.92306431 </i>
   </energy>
  </scstep>
  <scstep>
   <time name="dav">    1.96    1.98</time>
   <time name="total">    2.04    2.06</time>
   <dipole>
    <v name="dipole">      0.00000000       0.00000000       0.06594621 </v>
    <i name="Tr[quadrupol]">  -8981.96039487 </i>
    <i name="Echarged">      0.00000000 </i>
    <i name="Edipol_quadrupol">      0.00000000 </i>
    <i name="Eion">      0.00000000 </i>
   </dipole>
   <energy>
    <i name="e_fr_energy">   -462.99995168 </i>
    <i name="e_wo_entrp">   -462.85215567 </i>
    <i name="e_0_energy">   -462.92605367 </i>
   </energy>
  </scstep>
  <scstep>
   <time name="dav">    2.01    2.03</time>
   <time name="total">    2.09    2.11</time>
   <dipole>
    <v name="dipole">      0.00000000       0.00000000       0.06565832 </v>
    <i name="Tr[quadrupol]">  -8981.96467822 </i>
    <i name="Echarged">      0.00000000 </i>
    <i name="Edipol_quadrupol">      0.00000000 </i>
    <i name="Eion">      0.00000000 </i>
   </dipole>
   <energy>
    <i name="e_fr_energy">   -462.99949404 </i>
    <i name="e_wo_entrp">   -462.85192605 </i>
    <i name="e_0_energy">   -462.92571004 </i>
   </energy>
  </scstep>
  <scstep>
   <time name="dav">    1.87    1.89</time>
   <time name="total">    1.95    1.97</time>
   <dipole>
    <v name="dipole">      0.00000000       0.00000000       0.06573509 </v>
    <i name="Tr[quadrupol]">  -8981.95667339 </i>
    <i name="Echarged">      0.00000000 </i>
    <i name="Edipol_quadrupol">      0.00000000 </i>
    <i name="Eion">      0.00000000 </i>
   </dipole>
   <energy>
    <i name="e_fr_energy">   -462.99934943 </i>
    <i name="e_wo_entrp">   -462.85168954 </i>
    <i name="e_0_energy">   -462.92551948 </i>
   </energy>
  </scstep>
  <scstep>
   <time name="dav">    1.87    1.89</time>
   <time name="total">    1.95    1.97</time>
   <dipole>
    <v name="dipole">      0.00000000       0.00000000       0.06544948 </v>
    <i name="Tr[quadrupol]">  -8981.98567092 </i>
    <i name="Echarged">      0.00000000 </i>
    <i name="Edipol_quadrupol">      0.00000000 </i>
    <i name="Eion">      0.00000000 </i>
   </dipole>
   <energy>
    <i name="e_fr_energy">   -462.99928642 </i>
    <i name="e_wo_entrp">   -462.85141777 </i>
    <i name="e_0_energy">   -462.92535209 </i>
   </energy>
  </scstep>
  <scstep>
   <time name="dav">    2.08    2.10</time>
   <time name="total">    2.16    2.18</time>
   <dipole>
    <v name="dipole">      0.00000000       0.00000000       0.06567193 </v>
    <i name="Tr[quadrupol]">  -8981.98959914 </i>
    <i name="Echarged">      0.00000000 </i>
    <i name="Edipol_quadrupol">      0.00000000 </i>
    <i name="Eion">      0.00000000 </i>
   </dipole>
   <energy>
    <i name="e_fr_energy">   -462.99940207 </i>
    <i name="e_wo_entrp">   -462.85139428 </i>
    <i name="e_0_energy">   -462.92539817 </i>
   </energy>
  </scstep>
  <scstep>
   <time name="dav">    1.74    1.76</time>
   <time name="total">    1.82    1.84</time>
   <dipole>
    <v name="dipole">      0.00000000       0.00000000       0.06557986 </v>
    <i name="Tr[quadrupol]">  -8981.99687383 </i>
    <i name="Echarged">      0.00000000 </i>
    <i name="Edipol_quadrupol">      0.00000000 </i>
    <i name="Eion">      0.00000000 </i>
   </dipole>
   <energy>
    <i name="e_fr_energy">   -462.99938809 </i>
    <i name="e_wo_entrp">   -462.85165179 </i>
    <i name="e_0_energy">   -462.92551994 </i>
   </energy>
  </scstep>
  <scstep>
   <time name="dav">    1.34    1.36</time>
   <time name="total">    1.42    1.44</time>
   <dipole>
    <v name="dipole">      0.00000000       0.00000000       0.06577175 </v>
    <i name="Tr[quadrupol]">  -8981.99053704 </i>
    <i name="Echarged">      0.00000000 </i>
    <i name="Edipol_quadrupol">      0.00000000 </i>
    <i name="Eion">      0.00000000 </i>
   </dipole>
   <energy>
    <i name="e_fr_energy">   -462.99940292 </i>
    <i name="e_wo_entrp">   -462.85153938 </i>
    <i name="e_0_energy">   -462.92547115 </i>
   </energy>
  </scstep>
  <scstep>
   <time name="dav">    1.15    1.17</time>
   <time name="total">    1.23    1.25</time>
   <dipole>
    <v name="dipole">      0.00000000       0.00000000       0.06601406 </v>
    <i name="Tr[quadrupol]">  -8981.98444615 </i>
    <i name="Echarged">      0.00000000 </i>
    <i name="Edipol_quadrupol">      0.00000000 </i>
    <i name="Eion">      0.00000000 </i>
   </dipole>
   <energy>
    <i name="e_fr_energy">   -462.99942188 </i>
    <i name="e_wo_entrp">   -462.85154104 </i>
    <i name="e_0_energy">   -462.92548146 </i>
   </energy>
  </scstep>
  <scstep>
   <time name="dav">    1.24    1.26</time>
   <time name="total">    1.28    1.29</time>
   <dipole>
    <v name="dipole">      0.00000000       0.00000000       0.06621857 </v>
    <i name="Tr[quadrupol]">  -8981.97947800 </i>
    <i name="Echarged">      0.00000000 </i>
    <i name="Edipol_quadrupol">      0.00000000 </i>
    <i name="Eion">      0.00000000 </i>
   </dipole>
   <energy>
    <i name="alphaZ">    140.81237022 </i>
    <i name="ewald">  29642.90406914 </i>
    <i name="hartreedc"> -41979.46371166 </i>
    <i name="XCdc">   1047.32087752 </i>
    <i name="pawpsdc">  29942.71113541 </i>
    <i name="pawaedc"> -30103.46661661 </i>
    <i name="eentropy">     -0.14785565 </i>
    <i name="bandstr">  -3464.96130887 </i>
    <i name="atom">  14311.29160913 </i>
    <i name="e_fr_energy">   -462.99943136 </i>
    <i name="e_wo_entrp">   -462.85157572 </i>
    <i name="e_0_energy">   -462.92550354 </i>
   </energy>
  </scstep>
  <structure>
   <crystal>
    <varray name="basis" >
     <v>      14.46330309       0.00000000       0.00000000 </v>
     <v>       0.00000000      12.45397110       0.00000000 </v>
     <v>       0.00000000       0.00000000      15.00000000 </v>
    </varray>
    <i name="volume">   2701.88338024 </i>
    <varray name="rec_basis" >
     <v>       0.06914050       0.00000000       0.00000000 </v>
     <v>       0.00000000       0.08029567       0.00000000 </v>
     <v>       0.00000000       0.00000000       0.06666667 </v>
    </varray>
   </crystal>
   <varray name="positions" >
    <v>       0.06551717       0.40382887       0.13333489 </v>
    <v>       0.98095078       0.23459253       0.13332927 </v>
    <v>       0.22590629       0.39799048       0.13332906 </v>
    <v>       0.81733368       0.57581304       0.13330976 </v>
    <v>       0.14989800       0.23466874       0.13332927 </v>
    <v>       0.90531716       0.39783802       0.13333027 </v>
    <v>       0.56471866       0.40249981       0.13323987 </v>
    <v>       0.48048484       0.23407587       0.13333706 </v>
    <v>       0.72787488       0.39702960       0.13332353 </v>
    <v>       0.31436705       0.57515794       0.13343514 </v>
    <v>       0.65018690       0.23403872       0.13333640 </v>
    <v>       0.40366145       0.39754270       0.13335583 </v>
    <v>       0.81594166       0.90437555       0.13334340 </v>
    <v>       0.73210102       0.73676979       0.13320864 </v>
    <v>       0.97645990       0.89829323       0.13332414 </v>
    <v>       0.06542584       0.07695463       0.13333369 </v>
    <v>       0.90058766       0.73491218       0.13333518 </v>
    <v>       0.65490756       0.89949439       0.13335222 </v>
    <v>       0.31510907       0.90449291       0.13335573 </v>
    <v>       0.23034192       0.73490368       0.13337955 </v>
    <v>       0.47719949       0.90024161       0.13336374 </v>
    <v>       0.56543745       0.07678615       0.13332984 </v>
    <v>       0.39347538       0.73932816       0.13276244 </v>
    <v>       0.15489017       0.89825162       0.13331561 </v>
    <v>       0.98393282       0.45602657       0.13333091 </v>
    <v>       0.90096392       0.29026792       0.13333021 </v>
    <v>       0.14698882       0.45606216       0.13333416 </v>
    <v>       0.14842051       0.12725385       0.13333003 </v>
    <v>       0.98241647       0.12728878       0.13332772 </v>
    <v>       0.22996364       0.29015953       0.13333208 </v>
    <v>       0.06536966       0.29118716       0.13332890 </v>
    <v>       0.81502488       0.45806663       0.13330019 </v>
    <v>       0.48478623       0.45605653       0.13320313 </v>
    <v>       0.40134894       0.29045006       0.13336722 </v>
    <v>       0.64664916       0.45146083       0.13311102 </v>
    <v>       0.64854776       0.12769522       0.13330369 </v>
    <v>       0.48229436       0.12768329       0.13331070 </v>
    <v>       0.72962611       0.29065659       0.13337171 </v>
    <v>       0.56548306       0.29197337       0.13334899 </v>
    <v>       0.31591769       0.45791864       0.13332067 </v>
    <v>       0.73406871       0.95565650       0.13337778 </v>
    <v>       0.65159540       0.78980762       0.13308697 </v>
    <v>       0.89665778       0.95585806       0.13329553 </v>
    <v>       0.89800459       0.62715141       0.13338093 </v>
    <v>       0.74229770       0.63190548       0.13261033 </v>
    <v>       0.97974620       0.78976294       0.13330224 </v>
    <v>       0.81510818       0.79074571       0.13340054 </v>
    <v>       0.56568170       0.95740780       0.13334446 </v>
    <v>       0.23471533       0.95579773       0.13328950 </v>
    <v>       0.15156823       0.78975437       0.13328427 </v>
    <v>       0.39724691       0.95535245       0.13335448 </v>
    <v>       0.38885983       0.62536280       0.13181052 </v>
    <v>       0.23313879       0.62734320       0.13330030 </v>
    <v>       0.47689390       0.79894875       0.13210220 </v>
    <v>       0.31583916       0.79089252       0.13364397 </v>
    <v>       0.06561116       0.95768093       0.13335969 </v>
    <v>       0.52432953       0.65052882       0.14665757 </v>
    <v>       0.63103163       0.58364717       0.14038285 </v>
   </varray>
  </structure>
  <varray name="forces" >
   <v>       0.00972794       0.18683618       0.00729890 </v>
   <v>      -0.02895119       0.09368006       0.00386257 </v>
   <v>      -0.53153291      -0.21584119      -0.00727445 </v>
   <v>       3.32337397      -0.63119074      -0.02555521 </v>
   <v>       0.02995589       0.08266882       0.00026272 </v>
   <v>       0.59583291      -0.18166361      -0.00991433 </v>
   <v>      -0.73151527      -2.02296837      -0.13258192 </v>
   <v>      -0.17321857      -0.32059477       0.01202137 </v>
   <v>       1.04108575      -1.15038817      -0.03527651 </v>
   <v>      -4.80539306      -2.01044198       0.15266275 </v>
   <v>       0.44924038      -0.10875263       0.01254806 </v>
   <v>      -0.31867924      -0.22631320       0.01207715 </v>
   <v>       0.08462057       0.21248144       0.01730464 </v>
   <v>       1.64685835       2.02141209      -0.17139712 </v>
   <v>      -0.39246676      -0.04617287      -0.01899772 </v>
   <v>       0.01140938       0.45023286       0.00677088 </v>
   <v>       0.11654517      -0.48212402       0.01783334 </v>
   <v>       0.11692391       0.42899235       0.02323250 </v>
   <v>       0.20404621       0.82285935       0.04436396 </v>
   <v>      -0.45661153      -0.64117433       0.04531276 </v>
   <v>      -0.15427829       4.77184356       0.11024098 </v>
   <v>       0.07527067       0.31130656      -0.01755464 </v>
   <v>      -0.00622063      -0.43605730      -0.50146384 </v>
   <v>       0.17506903       0.03520386      -0.02304800 </v>
   <v>      -0.02109178      -0.41966843       0.00185633 </v>
   <v>       0.43846509       0.09352830      -0.00075539 </v>
   <v>       0.01724903      -0.42424854       0.00644057 </v>
   <v>      -0.60014026       0.04837104      -0.00365569 </v>
   <v>       0.60730166       0.02079712      -0.00222369 </v>
   <v>      -0.47388096       0.12971922       0.00486959 </v>
   <v>       0.05883217      -0.08500183      -0.00023959 </v>
   <v>       0.06840704      -0.10475099      -0.06641161 </v>
[...]
       <r>    1.7278    0.0000 </r>
       <r>    1.7770    0.0000 </r>
       <r>    1.7953    0.0000 </r>
       <r>    1.8980    0.0000 </r>
       <r>    2.0385    0.0000 </r>
       <r>    2.3090    0.0000 </r>
       <r>    2.4591    0.0000 </r>
       <r>    2.6035    0.0000 </r>
       <r>    2.6509    0.0000 </r>
       <r>    2.7802    0.0000 </r>
       <r>    2.8164    0.0000 </r>
      </set>
     </set>
    </set>
   </array>
  </eigenvalues>
  <separator name="orbital magnetization" >
   <v name="MAGDIPOLOUT">      0.00000000      0.00000000      0.00000000</v>
  </separator>
  <dos>
   <i name="efermi">     -2.67169183 </i>
   <total>
    <array>
     <dimension dim="1">gridpoints</dimension>
     <dimension dim="2">spin</dimension>
     <field>energy</field>
     <field>total</field>
     <field>integrated</field>
     <set>
      <set comment="spin 1">
       <r>   -28.1561     0.0000     0.0000 </r>
       <r>   -28.0477     0.0000     0.0000 </r>
       <r>   -27.9392     0.0000     0.0000 </r>
       <r>   -27.8307     0.0000     0.0000 </r>
       <r>   -27.7222     0.0000     0.0000 </r>
       <r>   -27.6137     0.0000     0.0000 </r>
       <r>   -27.5053     0.0000     0.0000 </r>
       <r>   -27.3968     0.0000     0.0000 </r>
       <r>   -27.2883     0.0000     0.0000 </r>
       <r>   -27.1798     0.0000     0.0000 </r>
       <r>   -27.0714     0.0000     0.0000 </r>
       <r>   -26.9629     0.0003     0.0000 </r>
       <r>   -26.8544     0.0760     0.0083 </r>
       <r>   -26.7459     2.3696     0.2653 </r>
       <r>   -26.6374     9.7353     1.3214 </r>
       <r>   -26.5290     6.4818     2.0245 </r>
       <r>   -26.4205     9.0454     3.0058 </r>
       <r>   -26.3120    21.2033     5.3059 </r>
       <r>   -26.2035    18.0108     7.2596 </r>
       <r>   -26.0951     6.3324     7.9466 </r>
       <r>   -25.9866     0.4874     7.9994 </r>
       <r>   -25.8781     0.0052     8.0000 </r>
       <r>   -25.7696     0.0000     8.0000 </r>
       <r>   -25.6611     0.0018     8.0002 </r>
       <r>   -25.5527     0.2199     8.0240 </r>
       <r>   -25.4442     3.6372     8.4186 </r>
       <r>   -25.3357    11.5090     9.6671 </r>
       <r>   -25.2272    14.5142    11.2415 </r>
       <r>   -25.1187    12.0847    12.5525 </r>
       <r>   -25.0103     9.2269    13.5534 </r>
       <r>   -24.9018     9.4548    14.5790 </r>
       <r>   -24.7933     7.1032    15.3496 </r>
       <r>   -24.6848     1.3475    15.4957 </r>
       <r>   -24.5764     0.0540    15.5016 </r>
       <r>   -24.4679     0.5508    15.5613 </r>
       <r>   -24.3594     3.8411    15.9780 </r>
       <r>   -24.2509    13.9202    17.4880 </r>
       <r>   -24.1424    23.6387    20.0523 </r>
       <r>   -24.0340    23.0993    22.5581 </r>
       <r>   -23.9255    15.1923    24.2061 </r>
       <r>   -23.8170     2.6345    24.4919 </r>
       <r>   -23.7085     0.1275    24.5057 </r>
       <r>   -23.6001     1.6754    24.6875 </r>
       <r>   -23.4916     7.6023    25.5122 </r>
       <r>   -23.3831     7.8249    26.3610 </r>
       <r>   -23.2746     8.0191    27.2309 </r>
       <r>   -23.1661    11.4406    28.4719 </r>
       <r>   -23.0577    13.7999    29.9689 </r>
       <r>   -22.9492    11.2773    31.1923 </r>
       <r>   -22.8407     5.8258    31.8242 </r>
       <r>   -22.7322     1.5252    31.9897 </r>
       <r>   -22.6238     0.0944    31.9999 </r>
       <r>   -22.5153     0.0593    32.0064 </r>
       <r>   -22.4068     2.2733    32.2530 </r>
       <r>   -22.2983    15.2863    33.9112 </r>
       <r>   -22.1898    28.5693    37.0103 </r>
       <r>   -22.0814    29.0069    40.1570 </r>
       <r>   -21.9729    30.3311    43.4472 </r>
       <r>   -21.8644    27.9703    46.4814 </r>
       <r>   -21.7559    12.5804    47.8461 </r>
       <r>   -21.6475     1.3942    47.9973 </r>
       <r>   -21.5390     0.1712    48.0159 </r>
       <r>   -21.4305     3.0511    48.3469 </r>
       <r>   -21.3220    13.9972    49.8653 </r>
       <r>   -21.2135    22.5956    52.3164 </r>
       <r>   -21.1051    20.7059    54.5625 </r>
       <r>   -20.9966    11.2476    55.7826 </r>
       <r>   -20.8881     6.1129    56.4458 </r>
       <r>   -20.7796    10.5008    57.5849 </r>
       <r>   -20.6711     8.8046    58.5400 </r>
       <r>   -20.5627    19.5774    60.6637 </r>
       <r>   -20.4542    19.6371    62.7939 </r>
       <r>   -20.3457     9.5678    63.8318 </r>
       <r>   -20.2372     1.5093    63.9955 </r>
       <r>   -20.1288     0.0412    64.0000 </r>
       <r>   -20.0203     0.0001    64.0000 </r>
       <r>   -19.9118     0.0000    64.0000 </r>
       <r>   -19.8033     0.0000    64.0000 </r>
       <r>   -19.6948     0.0000    64.0000 </r>
       <r>   -19.5864     0.0000    64.0000 </r>
       <r>   -19.4779     0.0000    64.0000 </r>
       <r>   -19.3694     0.0000    64.0000 </r>
       <r>   -19.2609     0.0000    64.0000 </r>
       <r>   -19.1525     0.0000    64.0000 </r>
       <r>   -19.0440     0.0000    64.0000 </r>
       <r>   -18.9355     0.0000    64.0000 </r>
       <r>   -18.8270     0.0000    64.0000 </r>
       <r>   -18.7185     0.0000    64.0000 </r>
       <r>   -18.6101     0.0000    64.0000 </r>
       <r>   -18.5016     0.0000    64.0000 </r>
       <r>   -18.3931     0.0000    64.0000 </r>
       <r>   -18.2846     0.0000    64.0000 </r>
       <r>   -18.1762     0.0000    64.0000 </r>
       <r>   -18.0677     0.0003    64.0000 </r>
       <r>   -17.9592     0.0615    64.0067 </r>
       <r>   -17.8507     1.8006    64.2020 </r>
       <r>   -17.7422     9.5332    65.2362 </r>
       <r>   -17.6338    14.0142    66.7564 </r>
       <r>   -17.5253    13.9157    68.2660 </r>
       <r>   -17.4168    17.3929    70.1527 </r>
       <r>   -17.3083    20.6580    72.3936 </r>
       <r>   -17.1998    18.3662    74.3860 </r>
       <r>   -17.0914    18.0652    76.3457 </r>
       <r>   -16.9829    15.9848    78.0797 </r>
       <r>   -16.8744     7.1990    78.8606 </r>
       <r>   -16.7659     2.6114    79.1439 </r>
       <r>   -16.6575     4.8299    79.6678 </r>
       <r>   -16.5490     2.8035    79.9719 </r>
       <r>   -16.4405     0.2558    79.9997 </r>
       <r>   -16.3320     0.0031    80.0000 </r>
       <r>   -16.2235     0.0010    80.0001 </r>
       <r>   -16.1151     0.1720    80.0188 </r>
       <r>   -16.0066     4.0281    80.4557 </r>
       <r>   -15.8981    18.5867    82.4720 </r>
       <r>   -15.7896    26.1827    85.3122 </r>
       <r>   -15.6812    15.9592    87.0434 </r>
       <r>   -15.5727     4.5768    87.5399 </r>
       <r>   -15.4642     2.6883    87.8316 </r>
       <r>   -15.3557     2.2163    88.0720 </r>
       <r>   -15.2472     4.2835    88.5366 </r>
       <r>   -15.1388     3.7266    88.9409 </r>
       <r>   -15.0303     0.8149    89.0293 </r>
       <r>   -14.9218     2.3040    89.2792 </r>
       <r>   -14.8133     5.1468    89.8375 </r>
       <r>   -14.7049     6.6065    90.5542 </r>
       <r>   -14.5964    10.0155    91.6406 </r>
       <r>   -14.4879    17.3260    93.5201 </r>
       <r>   -14.3794    19.5916    95.6454 </r>
       <r>   -14.2709    18.7126    97.6753 </r>
       <r>   -14.1625    24.1706   100.2973 </r>
       <r>   -14.0540    21.5252   102.6323 </r>
       <r>   -13.9455    23.5995   105.1923 </r>
       <r>   -13.8370    29.7230   108.4166 </r>
       <r>   -13.7286    26.5646   111.2983 </r>
       <r>   -13.6201    15.9122   113.0244 </r>
       <r>   -13.5116    10.4887   114.1622 </r>
       <r>   -13.4031     4.5002   114.6504 </r>
       <r>   -13.2946     6.4782   115.3531 </r>
       <r>   -13.1862     8.7310   116.3003 </r>
       <r>   -13.0777     7.6005   117.1247 </r>
       <r>   -12.9692     8.7658   118.0756 </r>
       <r>   -12.8607     3.6264   118.4690 </r>
       <r>   -12.7522     0.3021   118.5018 </r>
       <r>   -12.6438     0.6566   118.5730 </r>
       <r>   -12.5353     3.9053   118.9967 </r>
       <r>   -12.4268    10.8051   120.1688 </r>
       <r>   -12.3183    22.7607   122.6378 </r>
       <r>   -12.2099    28.8204   125.7642 </r>
       <r>   -12.1014    20.0641   127.9407 </r>
       <r>   -11.9929    14.5705   129.5213 </r>
       <r>   -11.8844    14.4645   131.0904 </r>
       <r>   -11.7759    13.0070   132.5014 </r>
       <r>   -11.6675    17.6568   134.4167 </r>
       <r>   -11.5590    19.2275   136.5025 </r>
       <r>   -11.4505    15.6328   138.1983 </r>
       <r>   -11.3420    12.7938   139.5861 </r>
       <r>   -11.2336     6.2265   140.2616 </r>
       <r>   -11.1251     8.6824   141.2034 </r>
       <r>   -11.0166    10.8772   142.3834 </r>
       <r>   -10.9081     8.7540   143.3330 </r>
       <r>   -10.7996    10.1879   144.4381 </r>
       <r>   -10.6912    16.8086   146.2615 </r>
       <r>   -10.5827    17.5472   148.1650 </r>
       <r>   -10.4742    12.9736   149.5724 </r>
       <r>   -10.3657    11.6990   150.8414 </r>
       <r>   -10.2573     9.6520   151.8885 </r>
       <r>   -10.1488    10.4762   153.0249 </r>
       <r>   -10.0403    11.1114   154.2302 </r>
       <r>    -9.9318    16.2269   155.9905 </r>
       <r>    -9.8233    21.4806   158.3207 </r>
       <r>    -9.7149    14.3310   159.8753 </r>
       <r>    -9.6064    13.0246   161.2882 </r>
       <r>    -9.4979    16.9831   163.1305 </r>
       <r>    -9.3894    17.8855   165.0706 </r>
       <r>    -9.2809    22.2577   167.4851 </r>
       <r>    -9.1725    16.8333   169.3112 </r>
       <r>    -9.0640     5.9266   169.9541 </r>
       <r>    -8.9555     0.5231   170.0108 </r>
       <r>    -8.8470     1.4249   170.1654 </r>
       <r>    -8.7386     4.0002   170.5993 </r>
       <r>    -8.6301     7.0837   171.3677 </r>
       <r>    -8.5216     9.6311   172.4125 </r>
       <r>    -8.4131    10.5471   173.5566 </r>
       <r>    -8.3046    14.9191   175.1750 </r>
       <r>    -8.1962    17.6308   177.0876 </r>
       <r>    -8.0877     8.1441   177.9710 </r>
       <r>    -7.9792     6.8784   178.7172 </r>
       <r>    -7.8707    15.7658   180.4274 </r>
       <r>    -7.7623    20.5356   182.6551 </r>
       <r>    -7.6538    36.3890   186.6025 </r>
       <r>    -7.5453    39.4351   190.8803 </r>
       <r>    -7.4368    32.4811   194.4038 </r>
       <r>    -7.3283    31.1647   197.7845 </r>
       <r>    -7.2199    27.0330   200.7170 </r>
       <r>    -7.1114    13.8729   202.2219 </r>
       <r>    -7.0029    15.2100   203.8718 </r>
       <r>    -6.8944    22.0134   206.2598 </r>
       <r>    -6.7860    21.0115   208.5391 </r>
       <r>    -6.6775    20.3794   210.7498 </r>
       <r>    -6.5690    20.7737   213.0033 </r>
       <r>    -6.4605    14.0475   214.5271 </r>
       <r>    -6.3520    12.0287   215.8320 </r>
       <r>    -6.2436    13.4786   217.2941 </r>
       <r>    -6.1351     5.9874   217.9436 </r>
       <r>    -6.0266     0.9449   218.0461 </r>
       <r>    -5.9181     6.4156   218.7421 </r>
       <r>    -5.8097    21.5153   221.0760 </r>
       <r>    -5.7012    31.1316   224.4531 </r>
       <r>    -5.5927    36.3215   228.3932 </r>
       <r>    -5.4842    33.2928   232.0047 </r>
       <r>    -5.3757    28.8778   235.1374 </r>
       <r>    -5.2673    27.7066   238.1429 </r>
       <r>    -5.1588    29.1720   241.3074 </r>
       <r>    -5.0503    29.0388   244.4575 </r>
       <r>    -4.9418    25.0011   247.1696 </r>
       <r>    -4.8333    24.2931   249.8049 </r>
       <r>    -4.7249    15.5221   251.4887 </r>
       <r>    -4.6164    21.5562   253.8270 </r>
       <r>    -4.5079    36.1220   257.7455 </r>
       <r>    -4.3994    27.0448   260.6792 </r>
       <r>    -4.2910    10.6922   261.8391 </r>
       <r>    -4.1825     1.4446   261.9958 </r>
       <r>    -4.0740     0.0993   262.0066 </r>
       <r>    -3.9655     2.8059   262.3110 </r>
       <r>    -3.8570    16.9985   264.1549 </r>
       <r>    -3.7486    16.2187   265.9143 </r>
       <r>    -3.6401    14.5918   267.4972 </r>
       <r>    -3.5316    20.0625   269.6735 </r>
       <r>    -3.4231    16.0334   271.4128 </r>
       <r>    -3.3147    21.1066   273.7024 </r>
       <r>    -3.2062    14.0830   275.2301 </r>
       <r>    -3.0977     6.5650   275.9423 </r>
       <r>    -2.9892     2.7510   276.2407 </r>
       <r>    -2.8807     9.6081   277.2830 </r>
       <r>    -2.7723     6.0760   277.9421 </r>
       <r>    -2.6638     0.5405   278.0007 </r>
       <r>    -2.5553     0.6424   278.0704 </r>
       <r>    -2.4468     4.3473   278.5420 </r>
       <r>    -2.3384     6.8250   279.2823 </r>
       <r>    -2.2299    10.3677   280.4070 </r>
       <r>    -2.1214    11.8344   281.6908 </r>
       <r>    -2.0129    12.3206   283.0273 </r>
       <r>    -1.9044    10.0006   284.1121 </r>
       <r>    -1.7960     5.2997   284.6870 </r>
       <r>    -1.6875    10.2966   285.8040 </r>
       <r>    -1.5790    16.3034   287.5726 </r>
       <r>    -1.4705    13.8250   289.0723 </r>
       <r>    -1.3620    16.8631   290.9016 </r>
       <r>    -1.2536    16.7430   292.7178 </r>
       <r>    -1.1451     8.2734   293.6153 </r>
       <r>    -1.0366     4.8231   294.1385 </r>
       <r>    -0.9281    11.1565   295.3487 </r>
       <r>    -0.8197    19.6315   297.4783 </r>
       <r>    -0.7112    20.8191   299.7367 </r>
       <r>    -0.6027    15.4134   301.4088 </r>
       <r>    -0.4942     4.9967   301.9508 </r>
       <r>    -0.3857     0.4473   301.9993 </r>
       <r>    -0.2773     0.0065   302.0000 </r>
       <r>    -0.1688     0.0000   302.0000 </r>
       <r>    -0.0603     0.0000   302.0000 </r>
       <r>     0.0482     0.0005   302.0001 </r>
       <r>     0.1566     0.1023   302.0112 </r>
       <r>     0.2651     2.6599   302.2997 </r>
       <r>     0.3736     9.7315   303.3553 </r>
       <r>     0.4821     5.4841   303.9502 </r>
       <r>     0.5906     0.6353   304.0192 </r>
       <r>     0.6990     2.8635   304.3298 </r>
       <r>     0.8075     8.6251   305.2654 </r>
       <r>     0.9160    10.0455   306.3551 </r>
       <r>     1.0245    17.8040   308.2865 </r>
       <r>     1.1329    24.5021   310.9444 </r>
       <r>     1.2414    22.1198   313.3439 </r>
       <r>     1.3499    19.1585   315.4222 </r>
       <r>     1.4584    20.6025   317.6571 </r>
       <r>     1.5669    22.9612   320.1479 </r>
       <r>     1.6753    19.8909   322.3056 </r>
       <r>     1.7838    19.6201   324.4340 </r>
       <r>     1.8923    19.6943   326.5704 </r>
       <r>     2.0008    20.3537   328.7783 </r>
       <r>     2.1092    16.6866   330.5884 </r>
       <r>     2.2177    11.5344   331.8397 </r>
       <r>     2.3262    13.7457   333.3308 </r>
       <r>     2.4347    16.2414   335.0926 </r>
       <r>     2.5432    19.5916   337.2179 </r>
       <r>     2.6516    20.2183   339.4111 </r>
       <r>     2.7601    19.5136   341.5279 </r>
       <r>     2.8686    15.5423   343.2139 </r>
       <r>     2.9771     6.2776   343.8949 </r>
       <r>     3.0856     0.9394   343.9968 </r>
       <r>     3.1940     0.0294   344.0000 </r>
       <r>     3.3025     0.0001   344.0000 </r>
       <r>     3.4110     0.0000   344.0000 </r>
       <r>     3.5195     0.0000   344.0000 </r>
       <r>     3.6279     0.0000   344.0000 </r>
       <r>     3.7364     0.0000   344.0000 </r>
       <r>     3.8449     0.0000   344.0000 </r>
       <r>     3.9534     0.0000   344.0000 </r>
       <r>     4.0619     0.0000   344.0000 </r>
       <r>     4.1703     0.0000   344.0000 </r>
       <r>     4.2788     0.0000   344.0000 </r>
       <r>     4.3873     0.0000   344.0000 </r>
      </set>
     </set>
    </array>
   </total>
  </dos>
 </calculation>
 <structure name="finalpos" >
  <crystal>
   <varray name="basis" >
    <v>      12.88958405       0.00000000       0.00000000 </v>
    <v>       0.00000000      11.69595810       0.00000000 </v>
    <v>       0.00000000       0.00000000      15.00000000 </v>
   </varray>
   <i name="volume">   2261.34052397 </i>
   <varray name="rec_basis" >
    <v>       0.07758202       0.00000000       0.00000000 </v>
    <v>       0.00000000       0.08549962       0.00000000 </v>
    <v>       0.00000000       0.00000000       0.06666667 </v>
   </varray>
  </crystal>
  <varray name="positions" >
   <v>       0.04424433       0.39705292       0.11639768 </v>
   <v>       0.99453433       0.24228434       0.21880494 </v>
   <v>       0.20892288       0.39215186       0.06612877 </v>
   <v>       0.79915259       0.57777167       0.20629923 </v>
   <v>       0.15132994       0.22981380       0.13068891 </v>
   <v>       0.89678476       0.39959100       0.19834849 </v>
   <v>       0.54269466       0.39350715       0.13682729 </v>
   <v>       0.49381623       0.24086311       0.03486970 </v>
   <v>       0.71044737       0.39253845       0.18766081 </v>
   <v>       0.29983964       0.57663470       0.05618554 </v>
   <v>       0.65287110       0.22997885       0.12161003 </v>
   <v>       0.39510359       0.39805724       0.05574698 </v>
   <v>       0.83924539       0.89642933       0.11875042 </v>
   <v>       0.72908332       0.73354619       0.13865481 </v>
   <v>       0.98771109       0.89942025       0.19984744 </v>
   <v>       0.08403322       0.07699703       0.20122306 </v>
   <v>       0.89064132       0.74175269       0.22075236 </v>
   <v>       0.67379335       0.89307423       0.06939832 </v>
   <v>       0.33929930       0.89742535       0.13950577 </v>
   <v>       0.23307209       0.72930425       0.12726799 </v>
   <v>       0.48665079       0.89980180       0.05744726 </v>
   <v>       0.58449150       0.07645196       0.05252657 </v>
   <v>       0.39003059       0.74135297       0.03929838 </v>
   <v>       0.17478545       0.89267755       0.18987584 </v>
   <v>       0.95278870       0.44713476       0.13345786 </v>
   <v>       0.91458730       0.30656007       0.24690054 </v>
   <v>       0.11578106       0.44354264       0.06373960 </v>
   <v>       0.15578755       0.11866523       0.14695783 </v>
   <v>       0.00909164       0.13419281       0.24490657 </v>
   <v>       0.22818903       0.28491319       0.09096920 </v>
   <v>       0.06348802       0.29076062       0.15689721 </v>
   <v>       0.79774069       0.45666775       0.21205734 </v>
   <v>       0.45260873       0.44463504       0.12076772 </v>
   <v>       0.41383311       0.30518743       0.00710032 </v>
   <v>       0.61416467       0.44060730       0.19100229 </v>
   <v>       0.65806233       0.11960147       0.10452106 </v>
   <v>       0.50872464       0.13294967       0.00915685 </v>
   <v>       0.72958070       0.28674106       0.16047755 </v>
   <v>       0.56331373       0.28926180       0.09686113 </v>
   <v>       0.29767293       0.45578242       0.04295055 </v>
   <v>       0.76741047       0.94281488       0.06605043 </v>
   <v>       0.65303564       0.78754432       0.09750319 </v>
   <v>       0.93046095       0.94643925       0.13506158 </v>
   <v>       0.87833222       0.63235364       0.24470955 </v>
   <v>       0.71929821       0.62377370       0.16161276 </v>
   <v>       0.97046944       0.80587683       0.24797955 </v>
   <v>       0.81965558       0.79060951       0.16009965 </v>
   <v>       0.58541243       0.95620784       0.04348989 </v>
   <v>       0.26757240       0.94456440       0.19162461 </v>
   <v>       0.15586430       0.78483913       0.16591584 </v>
   <v>       0.42945988       0.94903401       0.12061126 </v>
   <v>       0.37519260       0.63314261       0.01293648 </v>
   <v>       0.22851759       0.61770604       0.11100090 </v>
   <v>       0.46961913       0.80501095       0.01044572 </v>
   <v>       0.32092408       0.78996858       0.10087669 </v>
   <v>       0.08573650       0.95651152       0.21277313 </v>
   <v>       0.50580797       0.74995310       0.31528811 </v>
   <v>       0.57745969       0.59165938       0.23851043 </v>
  </varray>
 </structure>
</modeling>
