slab_Cel1-OPT                           
           1
    14.265900    0.000000    0.000000
     0.000000   12.356997    0.000000
     0.000000    0.000000   15.000000
   C    N    Au   Cu
    24    32     1     1
Direct configuration=     1
   0.06537593  0.40364000  0.13333000
   0.98097748  0.23494000  0.13333000
   0.22593437  0.39820000  0.13333000
   0.81543575  0.57710000  0.13333000
   0.14973747  0.23490000  0.13333000
   0.90517930  0.39797000  0.13333000
   0.56537593  0.40364000  0.13333000
   0.48097748  0.23494000  0.13333000
   0.72593437  0.39820000  0.13333000
   0.31543575  0.57710000  0.13333000
   0.64973747  0.23490000  0.13333000
   0.40517930  0.39797000  0.13333000
   0.81551954  0.90364000  0.13333000
   0.73112108  0.73494000  0.13333000
   0.97607797  0.89820000  0.13333000
   0.06529214  0.07710000  0.13333000
   0.89988107  0.73490000  0.13333000
   0.65532291  0.89797000  0.13333000
   0.31551954  0.90364000  0.13333000
   0.23112108  0.73494000  0.13333000
   0.47607797  0.89820000  0.13333000
   0.56529214  0.07710000  0.13333000
   0.39988107  0.73490000  0.13333000
   0.15532291  0.89797000  0.13333000
   0.98400093  0.45588000  0.13333000
   0.90111835  0.29021000  0.13333000
   0.14710595  0.45595000  0.13333000
   0.14840652  0.12714000  0.13333000
   0.98256150  0.12707000  0.13333000
   0.22992331  0.29008000  0.13333000
   0.06536362  0.29116000  0.13333000
   0.81553147  0.45774000  0.13333000
   0.48400093  0.45588000  0.13333000
   0.40111835  0.29021000  0.13333000
   0.64710595  0.45595000  0.13333000
   0.64840652  0.12714000  0.13333000
   0.48256150  0.12707000  0.13333000
   0.72992331  0.29008000  0.13333000
   0.56536362  0.29116000  0.13333000
   0.31553147  0.45774000  0.13333000
   0.73414454  0.95588000  0.13333000
   0.65126196  0.79021000  0.13333000
   0.89724956  0.95595000  0.13333000
   0.89855012  0.62714000  0.13333000
   0.73270510  0.62707000  0.13333000
   0.98006692  0.79008000  0.13333000
   0.81550723  0.79116000  0.13333000
   0.56567507  0.95774000  0.13333000
   0.23414454  0.95588000  0.13333000
   0.15126196  0.79021000  0.13333000
   0.39724956  0.95595000  0.13333000
   0.39855012  0.62714000  0.13333000
   0.23270510  0.62707000  0.13333000
   0.48006692  0.79008000  0.13333000
   0.31550723  0.79116000  0.13333000
   0.06567507  0.95774000  0.13333000
   0.51318019  0.65760505  0.14333042
   0.63498818  0.58816656  0.13951958
slab_Cel1-OPT                           
           1
    14.463303    0.000000    0.000000
     0.000000   12.453971    0.000000
     0.000000    0.000000   15.000000
   C    N    Au   Cu
    24    32     1     1
Direct configuration=     2
   0.06551717  0.40382887  0.13333489
   0.98095078  0.23459253  0.13332927
   0.22590629  0.39799048  0.13332906
   0.81733368  0.57581304  0.13330976
   0.14989800  0.23466874  0.13332927
   0.90531716  0.39783802  0.13333027
   0.56471866  0.40249981  0.13323987
   0.48048484  0.23407587  0.13333706
   0.72787488  0.39702960  0.13332353
   0.31436705  0.57515794  0.13343514
   0.65018690  0.23403872  0.13333640
   0.40366145  0.39754270  0.13335583
   0.81594166  0.90437555  0.13334340
   0.73210102  0.73676979  0.13320864
   0.97645990  0.89829323  0.13332414
   0.06542584  0.07695463  0.13333369
   0.90058766  0.73491218  0.13333518
   0.65490756  0.89949439  0.13335222
   0.31510907  0.90449291  0.13335573
   0.23034192  0.73490368  0.13337955
   0.47719949  0.90024161  0.13336374
   0.56543745  0.07678615  0.13332984
   0.39347538  0.73932816  0.13276244
   0.15489017  0.89825162  0.13331561
   0.98393282  0.45602657  0.13333091
   0.90096392  0.29026792  0.13333021
   0.14698882  0.45606216  0.13333416
   0.14842051  0.12725385  0.13333003
   0.98241647  0.12728878  0.13332772
   0.22996364  0.29015953  0.13333208
   0.06536966  0.29118716  0.13332890
   0.81502488  0.45806663  0.13330019
   0.48478623  0.45605653  0.13320313
   0.40134894  0.29045006  0.13336722
   0.64664916  0.45146083  0.13311102
   0.64854776  0.12769522  0.13330369
   0.48229436  0.12768329  0.13331070
   0.72962611  0.29065659  0.13337171
   0.56548306  0.29197337  0.13334899
   0.31591769  0.45791864  0.13332067
   0.73406871  0.95565650  0.13337778
   0.65159540  0.78980762  0.13308697
   0.89665778  0.95585806  0.13329553
   0.89800459  0.62715141  0.13338093
   0.74229770  0.63190548  0.13261033
   0.97974620  0.78976294  0.13330224
   0.81510818  0.79074571  0.13340054
   0.56568170  0.95740780  0.13334446
   0.23471533  0.95579773  0.13328950
   0.15156823  0.78975437  0.13328427
   0.39724691  0.95535245  0.13335448
   0.38885983  0.62536280  0.13181052
   0.23313879  0.62734320  0.13330030
   0.47689390  0.79894875  0.13210220
   0.31583916  0.79089252  0.13364397
   0.06561116  0.95768093  0.13335969
   0.52432953  0.65052882  0.14665757
   0.63103163  0.58364717  0.14038285
slab_Cel1-OPT                           
           1
    14.412769    0.000000    0.000000
     0.000000   12.429146    0.000000
     0.000000    0.000000   15.000000
   C    N    Au   Cu
    24    32     1     1
Direct configuration=     3
   0.06548151  0.40378090  0.13333364
   0.98095752  0.23468079  0.13332946
   0.22591338  0.39804370  0.13332930
   0.81685445  0.57613993  0.13331494
   0.14985746  0.23472748  0.13332946
   0.90528235  0.39787154  0.13333020
   0.56488462  0.40278942  0.13326295
   0.48060923  0.23429536  0.13333525
   0.72738490  0.39732688  0.13332519
   0.31463690  0.57565122  0.13340823
   0.65007342  0.23425748  0.13333476
   0.40404471  0.39765123  0.13334922
   0.81583507  0.90418872  0.13333997
   0.73185358  0.73630502  0.13323971
   0.97636346  0.89826955  0.13332564
   0.06539208  0.07699155  0.13333274
   0.90040925  0.73490908  0.13333386
   0.65501243  0.89910720  0.13334653
   0.31521271  0.90427627  0.13334914
   0.23053866  0.73491291  0.13336687
   0.47691631  0.89972304  0.13335510
   0.56540076  0.07686587  0.13332988
   0.39509282  0.73820340  0.13290773
   0.15499944  0.89818009  0.13331929
   0.98395002  0.45598934  0.13333068
   0.90100291  0.29025321  0.13333015
   0.14701839  0.45603367  0.13333309
   0.14841697  0.12722493  0.13333002
   0.98245309  0.12723321  0.13332831
   0.22995346  0.29013933  0.13333154
   0.06536814  0.29118026  0.13332918
   0.81515279  0.45798366  0.13330782
   0.48458794  0.45601169  0.13323561
   0.40129072  0.29038908  0.13335769
   0.64676450  0.45260109  0.13316708
   0.64851210  0.12755420  0.13331043
   0.48236181  0.12752751  0.13331564
   0.72970115  0.29051014  0.13336103
   0.56545290  0.29176677  0.13334413
   0.31582017  0.45787326  0.13332306
   0.73408786  0.95571327  0.13336555
   0.65151120  0.78990983  0.13314919
   0.89680721  0.95588141  0.13330435
   0.89814234  0.62714851  0.13336789
   0.73987556  0.63067726  0.13279456
   0.97982718  0.78984347  0.13330935
   0.81520894  0.79085094  0.13338249
   0.56568003  0.95749218  0.13334076
   0.23457121  0.95581863  0.13329987
   0.15149090  0.78987010  0.13329598
   0.39724758  0.95550423  0.13334822
   0.39130664  0.62581421  0.13219950
   0.23302929  0.62727381  0.13330790
   0.47769509  0.79669607  0.13241651
   0.31575534  0.79096046  0.13356359
   0.06562730  0.95769593  0.13335209
   0.52151431  0.65232620  0.14580584
   0.63203066  0.58479510  0.14016186
slab_Cel1-OPT                           
           1
    14.549560    0.000000    0.000000
     0.000000   12.474790    0.000000
     0.000000    0.000000   15.000000
   C    N    Au   Cu
    24    32     1     1
Direct configuration=     4
   0.06555237  0.40398482  0.13333910
   0.98092733  0.23455866  0.13333061
   0.22563999  0.39781845  0.13332411
   0.81941736  0.57513557  0.13329369
   0.14995329  0.23465873  0.13332869
   0.90563343  0.39770868  0.13332564
   0.56419654  0.40109045  0.13315609
   0.48027444  0.23367057  0.13334424
   0.72888125  0.39608111  0.13330505
   0.31193230  0.57365637  0.13352977
   0.65052241  0.23374788  0.13334347
   0.40313162  0.39731963  0.13336823
   0.81607975  0.90468883  0.13335515
   0.73311279  0.73838965  0.13309681
   0.97636218  0.89829998  0.13331373
   0.06546329  0.07717387  0.13333776
   0.90083134  0.73464630  0.13334408
   0.65486060  0.90011163  0.13336840
   0.31512239  0.90515543  0.13337954
   0.22994984  0.73455415  0.13341213
   0.47742502  0.90328012  0.13341923
   0.56550986  0.07687532  0.13332022
   0.39208790  0.74004002  0.13240222
   0.15487098  0.89835095  0.13330136
   0.98390942  0.45582957  0.13333200
   0.90113709  0.29033099  0.13333005
   0.14697278  0.45585343  0.13333830
   0.14813650  0.12730957  0.13332818
   0.98267431  0.12735106  0.13332602
   0.22974833  0.29025264  0.13333525
   0.06540043  0.29114526  0.13332858
   0.81492885  0.45809667  0.13325894
   0.48512150  0.45595846  0.13309014
   0.40159277  0.29080367  0.13341346
   0.64673523  0.44842459  0.13290391
   0.64831072  0.12797387  0.13328129
   0.48245921  0.12800015  0.13328910
   0.72938337  0.29078260  0.13343428
   0.56538639  0.29222156  0.13335906
   0.31583179  0.45763130  0.13331295
   0.73396743  0.95535763  0.13343770
   0.65215687  0.78955106  0.13283196
   0.89651732  0.95559297  0.13325610
   0.89821959  0.62729883  0.13345500
   0.74380478  0.63319552  0.13220075
   0.97942418  0.78976528  0.13326630
   0.81524833  0.79122730  0.13349850
   0.56579891  0.95768123  0.13333824
   0.23475825  0.95552803  0.13326663
   0.15181667  0.78982954  0.13325535
   0.39708915  0.95523809  0.13339916
   0.38826848  0.62786719  0.13100067
   0.23299163  0.62748924  0.13331061
   0.47480446  0.79781529  0.13155926
   0.31477145  0.79159950  0.13381602
   0.06562127  0.95763655  0.13338470
   0.51909032  0.65333937  0.14884382
   0.63840670  0.57871640  0.14050839
slab_Cel1-OPT                           
           1
    14.642731    0.000000    0.000000
     0.000000   12.505878    0.000000
     0.000000    0.000000   15.000000
   C    N    Au   Cu
    24    32     1     1
Direct configuration=     5
   0.06560019  0.40412321  0.13334282
   0.98090695  0.23447578  0.13333140
   0.22545553  0.39766560  0.13332057
   0.82114656  0.57445400  0.13327921
   0.15001794  0.23461207  0.13332817
   0.90587031  0.39759816  0.13332254
   0.56373228  0.39993750  0.13308331
   0.48004856  0.23324658  0.13335036
   0.72989084  0.39523570  0.13329134
   0.31010748  0.57230263  0.13361256
   0.65082535  0.23340205  0.13334941
   0.40251556  0.39709459  0.13338118
   0.81624483  0.90502821  0.13336548
   0.73396238  0.73980432  0.13299949
   0.97636131  0.89832063  0.13330562
   0.06551133  0.07729759  0.13334118
   0.90111613  0.73446797  0.13335104
   0.65475815  0.90079326  0.13338330
   0.31506145  0.90575204  0.13340025
   0.22955255  0.73431069  0.13344295
   0.47776825  0.90569402  0.13346291
   0.56558348  0.07688173  0.13331364
   0.39006046  0.74128639  0.13205791
   0.15478432  0.89846690  0.13328914
   0.98388202  0.45572116  0.13333291
   0.90122761  0.29038377  0.13332999
   0.14694201  0.45573111  0.13334184
   0.14794727  0.12736701  0.13332693
   0.98282357  0.12743104  0.13332446
   0.22960992  0.29032953  0.13333777
   0.06542221  0.29112151  0.13332817
   0.81477776  0.45817336  0.13322565
   0.48548150  0.45592234  0.13299106
   0.40179657  0.29108502  0.13345144
   0.64671549  0.44559034  0.13272466
   0.64817484  0.12825867  0.13326144
   0.48252492  0.12832089  0.13327102
   0.72916896  0.29096749  0.13348417
   0.56534151  0.29253018  0.13336923
   0.31583963  0.45746711  0.13330606
   0.73388618  0.95511629  0.13348684
   0.65259251  0.78930759  0.13261590
   0.89632173  0.95539723  0.13322323
   0.89827172  0.62740084  0.13351432
   0.74645585  0.63490446  0.13179630
   0.97915228  0.78971222  0.13323698
   0.81527491  0.79148270  0.13357753
   0.56587911  0.95780953  0.13333653
   0.23488444  0.95533083  0.13324399
   0.15203647  0.78980201  0.13322769
   0.39698226  0.95505748  0.13343385
   0.38621861  0.62926039  0.13018414
   0.23296623  0.62763543  0.13331246
   0.47285414  0.79857482  0.13097537
   0.31410761  0.79203317  0.13398795
   0.06561721  0.95759626  0.13340691
   0.51745483  0.65402694  0.15091302
   0.64270866  0.57459129  0.14074442
slab_Cel1-OPT                           
           1
    14.606340    0.000000    0.000000
     0.000000   12.484324    0.000000
     0.000000    0.000000   15.000000
   C    N    Au   Cu
    24    32     1     1
Direct configuration=     6
   0.06554900  0.40412502  0.13334474
   0.98104155  0.23459862  0.13333367
   0.22483759  0.39726035  0.13332535
   0.82228268  0.57501159  0.13321136
   0.14984903  0.23468171  0.13332787
   0.90647052  0.39727745  0.13331074
   0.56358976  0.39850502  0.13299891
   0.48005404  0.23355207  0.13335507
   0.72987087  0.39432475  0.13324821
   0.30887413  0.57259200  0.13361685
   0.65096978  0.23378661  0.13334878
   0.40294802  0.39717324  0.13336825
   0.81623519  0.90515771  0.13338606
   0.73526652  0.74087216  0.13286788
   0.97587170  0.89828672  0.13328764
   0.06548166  0.07770809  0.13334482
   0.90113419  0.73441756  0.13337099
   0.65518284  0.90056348  0.13337756
   0.31499733  0.90656943  0.13342245
   0.22899348  0.73413526  0.13346289
   0.47701974  0.90667859  0.13344563
   0.56567921  0.07764548  0.13330981
   0.38937465  0.74131720  0.13147998
   0.15518035  0.89838951  0.13325381
   0.98400098  0.45521158  0.13333473
   0.90179254  0.29045517  0.13332828
   0.14692623  0.45523596  0.13335269
   0.14734577  0.12752529  0.13332694
   0.98347634  0.12752200  0.13332545
   0.22905596  0.29039697  0.13333495
   0.06546281  0.29117499  0.13332741
   0.81553297  0.45781639  0.13319366
   0.48538680  0.45575856  0.13304418
   0.40211114  0.29131029  0.13350723
   0.64641291  0.44124326  0.13251657
   0.64750370  0.12819071  0.13324810
   0.48318665  0.12808550  0.13325838
   0.72922974  0.28991786  0.13354550
   0.56484448  0.29125768  0.13331465
   0.31509002  0.45684367  0.13331184
   0.73374141  0.95482276  0.13356443
   0.65325358  0.78947091  0.13238425
   0.89651119  0.95507127  0.13317561
   0.89965910  0.62758323  0.13360084
   0.74727182  0.63593602  0.13134126
   0.97868231  0.78989888  0.13319871
   0.81620607  0.79301351  0.13371409
   0.56602939  0.95882689  0.13333497
   0.23460378  0.95511415  0.13325044
   0.15224495  0.79010383  0.13321534
   0.39665153  0.95577548  0.13354105
   0.38499586  0.63144109  0.12896152
   0.23200695  0.62753618  0.13343040
   0.47070747  0.79841455  0.13021078
   0.31190157  0.79352136  0.13421388
   0.06560628  0.95764281  0.13342426
   0.51841629  0.65230951  0.15364100
   0.64562031  0.57463367  0.14105729
slab_Cel1-OPT                           
           1
    14.558202    0.000000    0.000000
     0.000000   12.455812    0.000000
     0.000000    0.000000   15.000000
   C    N    Au   Cu
    24    32     1     1
Direct configuration=     7
   0.06548111  0.40412741  0.13334727
   0.98122004  0.23476140  0.13333668
   0.22401811  0.39672334  0.13333168
   0.82378932  0.57575048  0.13312159
   0.14962503  0.23477400  0.13332746
   0.90726648  0.39685246  0.13329513
   0.56340075  0.39660681  0.13288727
   0.48006130  0.23395688  0.13336131
   0.72984439  0.39311761  0.13319116
   0.30723853  0.57297545  0.13362254
   0.65116132  0.23429620  0.13334794
   0.40352153  0.39727747  0.13335116
   0.81622242  0.90532932  0.13341329
   0.73699598  0.74228717  0.13269378
   0.97522241  0.89824178  0.13326385
   0.06544230  0.07825205  0.13334964
   0.90115814  0.73435076  0.13339738
   0.65574603  0.90025900  0.13336997
   0.31491230  0.90765259  0.13345181
   0.22825208  0.73390279  0.13348925
   0.47602711  0.90798327  0.13342277
   0.56580617  0.07865755  0.13330474
   0.38846518  0.74135803  0.13071546
   0.15570555  0.89828695  0.13320707
   0.98415872  0.45453632  0.13333713
   0.90254171  0.29054977  0.13332602
   0.14690531  0.45457982  0.13336704
   0.14654811  0.12773504  0.13332695
   0.98434199  0.12764253  0.13332677
   0.22832134  0.29048634  0.13333123
   0.06551664  0.29124585  0.13332642
   0.81653449  0.45734336  0.13315134
   0.48526122  0.45554153  0.13311444
   0.40252831  0.29160879  0.13358103
   0.64601164  0.43548282  0.13224130
   0.64661367  0.12810066  0.13323046
   0.48406419  0.12777358  0.13324167
   0.72931034  0.28852697  0.13362662
   0.56418533  0.28957145  0.13324246
   0.31409593  0.45601753  0.13331949
   0.73354943  0.95443380  0.13366707
   0.65413025  0.78968733  0.13207783
   0.89676245  0.95463932  0.13311262
   0.90149897  0.62782492  0.13371528
   0.74835392  0.63730297  0.13073931
   0.97805906  0.79014623  0.13314808
   0.81744093  0.79504204  0.13389476
   0.56622868  0.96017502  0.13333291
   0.23423159  0.95482702  0.13325897
   0.15252143  0.79050378  0.13319902
   0.39621294  0.95672694  0.13368286
   0.38337433  0.63433081  0.12734418
   0.23073481  0.62740466  0.13358641
   0.46786068  0.79820217  0.12919933
   0.30897605  0.79549340  0.13451275
   0.06559178  0.95770450  0.13344720
   0.51969133  0.65003371  0.15724968
   0.64948157  0.57468984  0.14147116
slab_Cel1-OPT                           
           1
    14.533360    0.000000    0.000000
     0.000000   12.446295    0.000000
     0.000000    0.000000   15.000000
   C    N    Au   Cu
    24    32     1     1
Direct configuration=     8
   0.06558265  0.40379439  0.13335155
   0.98182913  0.23468672  0.13334192
   0.22363326  0.39629554  0.13335337
   0.82475103  0.57645870  0.13294810
   0.14905766  0.23471128  0.13332567
   0.90764244  0.39658524  0.13325753
   0.56245952  0.39473670  0.13276670
   0.48020293  0.23349111  0.13336030
   0.73030891  0.39147942  0.13311696
   0.30712995  0.57424462  0.13330451
   0.65079033  0.23363020  0.13333831
   0.40390051  0.39805237  0.13334582
   0.81649070  0.90627515  0.13347267
   0.73840878  0.74336075  0.13243219
   0.97512368  0.89809063  0.13323185
   0.06547613  0.07799482  0.13335463
   0.90170100  0.73513337  0.13344845
   0.65581198  0.89975827  0.13332367
   0.31423979  0.90830671  0.13352089
   0.22753763  0.73439530  0.13353377
   0.47493119  0.90699709  0.13323856
   0.56597616  0.07931111  0.13330195
   0.38631333  0.74271065  0.12977590
   0.15593313  0.89814581  0.13315068
   0.98459399  0.45436315  0.13333891
   0.90305051  0.29016215  0.13332255
   0.14647796  0.45436114  0.13338294
   0.14646530  0.12814973  0.13332731
   0.98441898  0.12807400  0.13333292
   0.22782544  0.28990489  0.13332269
   0.06546362  0.29139024  0.13332721
   0.81763205  0.45692850  0.13309783
   0.48532297  0.45524476  0.13331325
   0.40267923  0.29127626  0.13368036
   0.64576261  0.43541257  0.13215868
   0.64669795  0.12838937  0.13323194
   0.48395501  0.12790392  0.13323834
   0.73043838  0.28585370  0.13374019
   0.56328761  0.28714244  0.13309349
   0.31318085  0.45585140  0.13332311
   0.73390049  0.95475564  0.13379448
   0.65487981  0.79004585  0.13181150
   0.89683501  0.95526268  0.13303905
   0.90394534  0.62790162  0.13386458
   0.75011558  0.63890802  0.12989921
   0.97813953  0.79061417  0.13309775
   0.81866160  0.79614442  0.13410845
   0.56604149  0.96081798  0.13332979
   0.23335305  0.95607946  0.13329367
   0.15128444  0.79106355  0.13318955
   0.39514080  0.95913447  0.13389909
   0.38256955  0.63528077  0.12551152
   0.22805921  0.62724466  0.13397236
   0.46678793  0.79802998  0.12815276
   0.30796163  0.79610774  0.13474732
   0.06550336  0.95781123  0.13344755
   0.52100258  0.64727453  0.16162949
   0.65155707  0.57216068  0.14171421
slab_Cel1-OPT                           
           1
    14.510484    0.000000    0.000000
     0.000000   12.437531    0.000000
     0.000000    0.000000   15.000000
   C    N    Au   Cu
    24    32     1     1
Direct configuration=     9
   0.06567632  0.40348750  0.13335549
   0.98239099  0.23461790  0.13334675
   0.22327826  0.39590129  0.13337335
   0.82563815  0.57711137  0.13278833
   0.14853429  0.23465349  0.13332401
   0.90798923  0.39633897  0.13322290
   0.56159128  0.39301325  0.13265567
   0.48033357  0.23306186  0.13335937
   0.73073740  0.38996969  0.13304863
   0.30702980  0.57541425  0.13301164
   0.65044811  0.23301643  0.13332945
   0.40425009  0.39876650  0.13334090
   0.81673818  0.90714681  0.13352734
   0.73971201  0.74435014  0.13219131
   0.97503261  0.89795134  0.13320238
   0.06550734  0.07775776  0.13335923
   0.90220175  0.73585460  0.13349548
   0.65587282  0.89929681  0.13328103
   0.31361944  0.90890954  0.13358449
   0.22687859  0.73484918  0.13357476
   0.47392026  0.90608824  0.13306892
   0.56613297  0.07991342  0.13329939
   0.38432836  0.74395720  0.12891068
   0.15614305  0.89801573  0.13309876
   0.98499550  0.45420357  0.13334054
   0.90351984  0.28980491  0.13331936
   0.14608374  0.45415960  0.13339757
   0.14638892  0.12853189  0.13332764
   0.98449000  0.12847163  0.13333858
   0.22736801  0.28936904  0.13331481
   0.06541471  0.29152330  0.13332795
   0.81864449  0.45654618  0.13304855
   0.48537993  0.45497127  0.13349634
   0.40281846  0.29096980  0.13377183
   0.64553289  0.43534783  0.13208260
   0.64677570  0.12865543  0.13323331
   0.48385429  0.12802404  0.13323528
   0.73147893  0.28339006  0.13384478
   0.56245950  0.28490392  0.13295630
   0.31233673  0.45569829  0.13332645
   0.73422433  0.95505225  0.13391181
   0.65557124  0.79037626  0.13156626
   0.89690194  0.95583714  0.13297131
   0.90620200  0.62797230  0.13400206
   0.75174062  0.64038719  0.12912559
   0.97821376  0.79104542  0.13305141
   0.81978761  0.79716035  0.13430524
   0.56586882  0.96141051  0.13332692
   0.23254264  0.95723367  0.13332563
   0.15014338  0.79157942  0.13318084
   0.39415180  0.96135319  0.13409822
   0.38182717  0.63615624  0.12382386
   0.22559110  0.62709722  0.13432777
   0.46579838  0.79787130  0.12718900
   0.30702587  0.79667391  0.13496332
   0.06542180  0.95790960  0.13344787
   0.52221213  0.64473173  0.16566274
   0.65347162  0.56982986  0.14193802
slab_Cel1-OPT                           
           1
    14.508353    0.000000    0.000000
     0.000000   12.464218    0.000000
     0.000000    0.000000   15.000000
   C    N    Au   Cu
    24    32     1     1
Direct configuration=    10
   0.06564692  0.40301477  0.13336231
   0.98287255  0.23474748  0.13335384
   0.22331235  0.39562164  0.13340582
   0.82755416  0.57751120  0.13254832
   0.14796723  0.23471537  0.13332463
   0.90815069  0.39616311  0.13317138
   0.56188077  0.39219953  0.13252122
   0.47935383  0.23179530  0.13335560
   0.73119739  0.38804115  0.13298496
   0.30594772  0.57657753  0.13238290
   0.65037410  0.23190870  0.13332165
   0.40349492  0.39819687  0.13338755
   0.81726144  0.90842176  0.13365122
   0.74022488  0.74517817  0.13181979
   0.97556362  0.89878034  0.13316241
   0.06547401  0.07706800  0.13335977
   0.90311902  0.73617744  0.13358938
   0.65585016  0.89992328  0.13322848
   0.31229786  0.91045014  0.13378744
   0.22490875  0.73522940  0.13373169
   0.47259334  0.90561050  0.13276912
   0.56584760  0.07927980  0.13329192
   0.38451578  0.74411194  0.12773354
   0.15502427  0.89890258  0.13307289
   0.98522169  0.45451131  0.13333048
   0.90351570  0.28948251  0.13330800
   0.14602681  0.45432737  0.13340199
   0.14669750  0.12822535  0.13332841
   0.98413867  0.12819081  0.13335100
   0.22753859  0.28890871  0.13330618
   0.06541696  0.29138734  0.13333570
   0.81907977  0.45628484  0.13296819
   0.48541235  0.45452596  0.13371996
   0.40233173  0.29144008  0.13387359
   0.64519067  0.43528130  0.13202899
   0.64755640  0.12761132  0.13326907
   0.48296871  0.12729094  0.13325456
   0.73246936  0.28199590  0.13395362
   0.56313403  0.28522329  0.13271566
   0.31249107  0.45684724  0.13329843
   0.73425466  0.95592288  0.13400526
   0.65607952  0.79033578  0.13137844
   0.89750012  0.95763085  0.13289864
   0.90768989  0.62816300  0.13416500
   0.75228919  0.64059429  0.12821066
   0.97963938  0.79203301  0.13301089
   0.82056915  0.79731737  0.13453377
   0.56522994  0.96032803  0.13329688
   0.23194816  0.95887062  0.13335236
   0.14868382  0.79165404  0.13315972
   0.39338615  0.96271305  0.13433811
   0.38237190  0.63601860  0.12210838
   0.22404783  0.62733697  0.13490370
   0.46611766  0.79698139  0.12631808
   0.30634187  0.79712510  0.13511142
   0.06521334  0.95812843  0.13340983
   0.52180524  0.64327402  0.17044217
   0.65543155  0.56810394  0.14192502
slab_Cel1-OPT                           
           1
    14.506417    0.000000    0.000000
     0.000000   12.488475    0.000000
     0.000000    0.000000   15.000000
   C    N    Au   Cu
    24    32     1     1
Direct configuration=    11
   0.06562020  0.40258601  0.13336851
   0.98331032  0.23486502  0.13336029
   0.22334334  0.39536800  0.13343534
   0.82929598  0.57787385  0.13233017
   0.14745173  0.23477149  0.13332519
   0.90829746  0.39600360  0.13312455
   0.56214395  0.39146148  0.13239901
   0.47846317  0.23064652  0.13335218
   0.73161557  0.38629195  0.13292710
   0.30496403  0.57763263  0.13181140
   0.65030681  0.23090399  0.13331457
   0.40280840  0.39768022  0.13342996
   0.81773713  0.90957815  0.13376382
   0.74069112  0.74592920  0.13148209
   0.97604635  0.89953223  0.13312609
   0.06544371  0.07644239  0.13336026
   0.90395289  0.73647026  0.13367472
   0.65582955  0.90049150  0.13318071
   0.31109643  0.91184747  0.13397192
   0.22311799  0.73557427  0.13387434
   0.47138706  0.90517719  0.13249662
   0.56558817  0.07870510  0.13328513
   0.38468617  0.74425229  0.12666357
   0.15400721  0.89970696  0.13304937
   0.98542731  0.45479042  0.13332133
   0.90351193  0.28919008  0.13329767
   0.14597505  0.45447954  0.13340600
   0.14697802  0.12794732  0.13332911
   0.98381928  0.12793610  0.13336229
   0.22769367  0.28849119  0.13329834
   0.06541901  0.29126403  0.13334274
   0.81947549  0.45604780  0.13289514
   0.48544182  0.45412206  0.13392322
   0.40188925  0.29186662  0.13396609
   0.64487956  0.43522095  0.13198026
   0.64826611  0.12666430  0.13330158
   0.48216364  0.12662602  0.13327209
   0.73336975  0.28073139  0.13405256
   0.56374722  0.28551296  0.13249693
   0.31263138  0.45788933  0.13327296
   0.73428222  0.95671255  0.13409019
   0.65654158  0.79029906  0.13120772
   0.89804390  0.95925774  0.13283259
   0.90904251  0.62833597  0.13431311
   0.75278788  0.64078212  0.12737905
   0.98093540  0.79292876  0.13297407
   0.82127964  0.79745978  0.13474149
   0.56464913  0.95934623  0.13326957
   0.23140772  0.96035533  0.13337665
   0.14735696  0.79172171  0.13314053
   0.39269012  0.96394644  0.13455616
   0.38286709  0.63589377  0.12054909
   0.22264487  0.62755442  0.13542718
   0.46640792  0.79617423  0.12552647
   0.30572007  0.79753434  0.13524604
   0.06502384  0.95832691  0.13337526
   0.52143534  0.64195186  0.17478642
   0.65721329  0.56653851  0.14191321
slab_Cel1-OPT                           
           1
    14.428555    0.000000    0.000000
     0.000000   12.469901    0.000000
     0.000000    0.000000   15.000000
   C    N    Au   Cu
    24    32     1     1
Direct configuration=    12
   0.06569626  0.40274708  0.13337346
   0.98296475  0.23427479  0.13337052
   0.22368045  0.39551827  0.13346365
   0.83031746  0.57860537  0.13192409
   0.14776730  0.23419865  0.13333296
   0.90829933  0.39580456  0.13305531
   0.56221359  0.39185794  0.13231247
   0.47750129  0.23058408  0.13334935
   0.73122177  0.38493711  0.13285133
   0.30407869  0.57907220  0.13083301
   0.65088755  0.22964605  0.13329767
   0.40242729  0.39762911  0.13352900
   0.81850540  0.91076544  0.13395958
   0.74099341  0.74575048  0.13096325
   0.97671916  0.90123628  0.13307339
   0.06529208  0.07651642  0.13335339
   0.90608207  0.73746800  0.13382908
   0.65579373  0.90084592  0.13311192
   0.31017403  0.91281440  0.13429864
   0.22156975  0.73594425  0.13417280
   0.46989790  0.90482548  0.13205516
   0.56507968  0.07679194  0.13326772
   0.38500752  0.74373097  0.12524110
   0.15241208  0.90088066  0.13304952
   0.98544837  0.45459332  0.13328891
   0.90374851  0.28933982  0.13327228
   0.14622694  0.45395778  0.13339110
   0.14687865  0.12771492  0.13332660
   0.98383849  0.12776495  0.13338466
   0.22780832  0.28862518  0.13329407
   0.06546563  0.29106235  0.13336289
   0.82014121  0.45549430  0.13276148
   0.48517003  0.45292174  0.13413632
   0.40115614  0.29167735  0.13407823
   0.64611856  0.43326343  0.13185158
   0.64811985  0.12489639  0.13337635
   0.48157006  0.12547916  0.13330588
   0.73373128  0.28022071  0.13416577
   0.56413989  0.28483024  0.13214544
   0.31256205  0.45889824  0.13320875
   0.73434197  0.95747663  0.13415604
   0.65694584  0.79093981  0.13102698
   0.89866086  0.96087752  0.13276474
   0.91035138  0.62920689  0.13454026
   0.75362838  0.64037753  0.12628543
   0.98183399  0.79384476  0.13295061
   0.82209858  0.79806453  0.13499379
   0.56386040  0.95813009  0.13320928
   0.22964839  0.96156621  0.13342813
   0.14565522  0.79316757  0.13313532
   0.39225741  0.96350573  0.13483174
   0.38315215  0.63530447  0.11870550
   0.22221175  0.62836207  0.13616773
   0.46733518  0.79586806  0.12460680
   0.30563659  0.79759311  0.13513720
   0.06492260  0.95885017  0.13328958
   0.52080129  0.64049189  0.18072639
   0.65817424  0.56687925  0.14195579
slab_Cel1-OPT                           
           1
    14.360427    0.000000    0.000000
     0.000000   12.453650    0.000000
     0.000000    0.000000   15.000000
   C    N    Au   Cu
    24    32     1     1
Direct configuration=    13
   0.06576317  0.40288822  0.13337778
   0.98266075  0.23375759  0.13337946
   0.22397701  0.39564995  0.13348843
   0.83121606  0.57924640  0.13156878
   0.14804491  0.23369667  0.13333975
   0.90830098  0.39563014  0.13299473
   0.56227486  0.39220536  0.13223676
   0.47665511  0.23052937  0.13334688
   0.73087535  0.38374988  0.13278504
   0.30329986  0.58033367  0.12997694