   59   59 1000    1
  0.4481788E+02  0.1426590E-08  0.1235700E-08  0.1500000E-08  0.1000000E-15
  1.000000000000000E-004
  CAR 
 slab_Cel1-OPT                           
    289      4    176
