 running on   48 total cores
 distrk:  each k-point on   48 cores,    1 groups
 distr:  one band on   12 cores,    4 groups
 vasp.6.3.2 27Jun22 (build May 04 2024 18:40:40) complex                        
  
 POSCAR found type information on POSCAR C N AuCu
 POSCAR found :  4 types and      59 ions
 Reading from existing POTCAR
 scaLAPACK will be used
 Reading from existing POTCAR
 LDA part: xc-table for Pade appr. of Perdew
 POSCAR found type information on POSCAR C N AuCu
 POSCAR found :  4 types and      59 ions
 POSCAR, INCAR and KPOINTS ok, starting setup
 FFT: planning ... GRIDC
 FFT: planning ... GRID_SOFT
 FFT: planning ... GRID
 WAVECAR not read
 entering main loop
       N       E                     dE             d eps       ncg     rms          rms(c)
DAV:   1     0.288166982318E+04    0.28817E+04   -0.98824E+04  1560   0.104E+03
DAV:   2     0.144958117198E+03   -0.27367E+04   -0.25705E+04  1984   0.300E+02
DAV:   3    -0.471162788399E+03   -0.61612E+03   -0.60471E+03  1808   0.160E+02
DAV:   4    -0.515737203505E+03   -0.44574E+02   -0.42070E+02  2152   0.634E+01
DAV:   5    -0.517483993681E+03   -0.17468E+01   -0.16507E+01  2152   0.933E+00    0.690E+01
DAV:   6    -0.582302107208E+03   -0.64818E+02   -0.64349E+02  2264   0.251E+02    0.514E+01
DAV:   7    -0.496928246062E+03    0.85374E+02   -0.24440E+02  2144   0.718E+01    0.316E+01
DAV:   8    -0.473445401004E+03    0.23483E+02   -0.97854E+01  2168   0.132E+02    0.159E+01
DAV:   9    -0.501028151963E+03   -0.27583E+02   -0.77585E+01  2320   0.809E+01    0.883E+01
DAV:  10    -0.474286037540E+03    0.26742E+02   -0.25108E+01  2240   0.420E+01    0.602E+00
DAV:  11    -0.474904349936E+03   -0.61831E+00   -0.59040E+00  2008   0.805E+00    0.553E+00
DAV:  12    -0.475206385322E+03   -0.30204E+00   -0.87986E-01  2072   0.971E+00    0.668E+00
DAV:  13    -0.475157608587E+03    0.48777E-01   -0.16939E-01  2112   0.325E+00    0.681E+00
DAV:  14    -0.474866774837E+03    0.29083E+00   -0.64094E-02  2352   0.433E+00    0.622E+00
DAV:  15    -0.474437550096E+03    0.42922E+00   -0.13664E-01  2320   0.687E+00    0.521E+00
DAV:  16    -0.474211051863E+03    0.22650E+00   -0.10268E-01  2352   0.415E+00    0.451E+00
DAV:  17    -0.474068570562E+03    0.14248E+00   -0.43830E-02  2408   0.283E+00    0.406E+00
DAV:  18    -0.473850518816E+03    0.21805E+00   -0.61560E-02  2352   0.501E+00    0.325E+00
DAV:  19    -0.473669317701E+03    0.18120E+00   -0.12144E-01  2280   0.554E+00    0.219E+00
DAV:  20    -0.473636172647E+03    0.33145E-01   -0.65269E-02  2216   0.155E+00    0.185E+00
DAV:  21    -0.473610990239E+03    0.25182E-01   -0.67561E-03  2416   0.135E+00    0.156E+00
DAV:  22    -0.473590116263E+03    0.20874E-01   -0.84391E-03  2280   0.137E+00    0.126E+00
DAV:  23    -0.473554458066E+03    0.35658E-01   -0.44321E-02  2336   0.371E+00    0.351E-01
DAV:  24    -0.473556003686E+03   -0.15456E-02   -0.14958E-02  1720   0.263E-01    0.304E-01
DAV:  25    -0.473556081944E+03   -0.78257E-04   -0.10393E-03  2184   0.753E-02    0.297E-01
DAV:  26    -0.473555676069E+03    0.40587E-03   -0.46591E-04  1680   0.343E-01    0.251E-01
DAV:  27    -0.473555737387E+03   -0.61318E-04   -0.14939E-03  2216   0.520E-01    0.298E-01
DAV:  28    -0.473558475815E+03   -0.27384E-02   -0.51664E-03  2144   0.873E-01    0.614E-01
DAV:  29    -0.473558647154E+03   -0.17134E-03   -0.18396E-03  1960   0.121E-01    0.583E-01
DAV:  30    -0.473558365337E+03    0.28182E-03   -0.26207E-04  1960   0.945E-02    0.529E-01
DAV:  31    -0.473557377164E+03    0.98817E-03   -0.46070E-04  2056   0.318E-01    0.380E-01
DAV:  32    -0.473557465742E+03   -0.88578E-04   -0.27172E-04  1896   0.785E-02    0.326E-01
DAV:  33    -0.473557363354E+03    0.10239E-03   -0.21324E-05  1200   0.622E-02    0.301E-01
DAV:  34    -0.473557238709E+03    0.12464E-03   -0.60062E-05  1376   0.844E-02    0.257E-01
DAV:  35    -0.473557118606E+03    0.12010E-03   -0.81388E-04  2088   0.316E-01    0.103E-01
DAV:  36    -0.473557189700E+03   -0.71094E-04   -0.14344E-04  1616   0.352E-02    0.923E-02
DAV:  37    -0.473557246710E+03   -0.57010E-04   -0.10782E-05   976   0.142E-02    0.843E-02
DAV:  38    -0.473557462576E+03   -0.21587E-03   -0.49492E-04  2064   0.240E-01    0.747E-02
DAV:  39    -0.473557442660E+03    0.19916E-04   -0.76635E-05  1376   0.108E-01    0.399E-02
DAV:  40    -0.473557443636E+03   -0.97664E-06   -0.27786E-05  1264   0.266E-02
   1 F= -.47355744E+03 E0= -.47351674E+03  d E =-.473557E+03
 curvature:   0.00 expect dE= 0.000E+00 dE for cont linesearch  0.000E+00
 trial: gam= 0.00000 g(F)=  0.251E+01 g(S)=  0.109E+00 ort = 0.000E+00 (trialstep = 0.100E+01)
 search vector abs. value=  0.262E+01
 bond charge predicted
       N       E                     dE             d eps       ncg     rms          rms(c)
DAV:   1    -0.475098742437E+03   -0.15413E+01   -0.12140E+02  1424   0.252E+01    0.657E+00
DAV:   2    -0.475517652998E+03   -0.41891E+00   -0.46240E+00  2080   0.125E+01    0.837E+00
DAV:   3    -0.475409304176E+03    0.10835E+00   -0.17711E+00  2136   0.947E+00    0.491E+00
DAV:   4    -0.475407135328E+03    0.21688E-02   -0.53825E-01  2168   0.847E+00    0.315E+00
DAV:   5    -0.475355973359E+03    0.51162E-01   -0.17272E-01  2160   0.397E+00    0.581E-01
DAV:   6    -0.475357177956E+03   -0.12046E-02   -0.22615E-02  1968   0.655E-01    0.331E-01
DAV:   7    -0.475356618537E+03    0.55942E-03   -0.58878E-03  2040   0.466E-01    0.163E-01
DAV:   8    -0.475356669889E+03   -0.51352E-04   -0.23690E-03  2064   0.490E-01    0.838E-02
DAV:   9    -0.475356755572E+03   -0.85683E-04   -0.79722E-04  2120   0.327E-01    0.370E-02
DAV:  10    -0.475356890143E+03   -0.13457E-03   -0.13693E-04  1568   0.958E-02    0.203E-02
DAV:  11    -0.475357060666E+03   -0.17052E-03   -0.49594E-05  1480   0.311E-02    0.922E-03
DAV:  12    -0.475357202325E+03   -0.14166E-03   -0.19140E-05  1168   0.241E-02    0.510E-03
DAV:  13    -0.475357304427E+03   -0.10210E-03   -0.13628E-05  1088   0.113E-02    0.337E-03
DAV:  14    -0.475357381505E+03   -0.77077E-04   -0.10759E-05  1096   0.874E-03    0.189E-03
DAV:  15    -0.475357412130E+03   -0.30625E-04   -0.40899E-06  1008   0.704E-03    0.121E-03
DAV:  16    -0.475357428670E+03   -0.16540E-04   -0.32268E-06   928   0.603E-03    0.985E-04
DAV:  17    -0.475357436262E+03   -0.75916E-05   -0.21001E-06   928   0.690E-03
   2 F= -.47535744E+03 E0= -.47532034E+03  d E =-.179999E+01
 trial-energy change:   -1.799993  1 .order   -1.851639   -2.615756   -1.087522
 step:   2.3700(harm=  1.7116)  dis= 0.21783  next Energy=  -475.969581 (dE=-0.241E+01)
 bond charge predicted
       N       E                     dE             d eps       ncg     rms          rms(c)
DAV:   1    -0.475379722189E+03   -0.22294E-01   -0.23085E+02  1488   0.345E+01    0.606E+00
DAV:   2    -0.476184326275E+03   -0.80460E+00   -0.80256E+00  2080   0.155E+01    0.969E+00
DAV:   3    -0.475950468952E+03    0.23386E+00   -0.54448E+00  2160   0.120E+01    0.474E+00
DAV:   4    -0.475843675245E+03    0.10679E+00   -0.42314E-01  2152   0.639E+00    0.211E+00
DAV:   5    -0.475838748692E+03    0.49266E-02   -0.99238E-02  2040   0.223E+00    0.117E+00
DAV:   6    -0.475837710717E+03    0.10380E-02   -0.62380E-02  2112   0.258E+00    0.712E-01
DAV:   7    -0.475833631969E+03    0.40787E-02   -0.24016E-02  2192   0.187E+00    0.337E-01
DAV:   8    -0.475833030218E+03    0.60175E-03   -0.56855E-03  2080   0.674E-01    0.102E-01
DAV:   9    -0.475833412514E+03   -0.38230E-03   -0.12907E-03  1896   0.167E-01    0.561E-02
DAV:  10    -0.475833616181E+03   -0.20367E-03   -0.19155E-04  1864   0.610E-02    0.416E-02
DAV:  11    -0.475833838649E+03   -0.22247E-03   -0.72882E-05  1728   0.303E-02    0.208E-02
DAV:  12    -0.475834102244E+03   -0.26359E-03   -0.31977E-05  1336   0.313E-02    0.839E-03
DAV:  13    -0.475834271421E+03   -0.16918E-03   -0.22027E-05  1256   0.147E-02    0.717E-03
DAV:  14    -0.475834419602E+03   -0.14818E-03   -0.18546E-05  1240   0.110E-02    0.428E-03
DAV:  15    -0.475834534133E+03   -0.11453E-03   -0.16410E-05  1216   0.115E-02    0.302E-03
DAV:  16    -0.475834572411E+03   -0.38278E-04   -0.35431E-06  1032   0.833E-03    0.131E-03
DAV:  17    -0.475834589691E+03   -0.17280E-04   -0.32602E-06   912   0.659E-03    0.120E-03
DAV:  18    -0.475834596250E+03   -0.65587E-05   -0.20922E-06   952   0.639E-03
   3 F= -.47583460E+03 E0= -.47579877E+03  d E =-.227715E+01
 curvature:  -0.12 expect dE=-0.116E+00 dE for cont linesearch -0.413E-02
 ZBRENT: interpolating
 opt :   2.0769  next Energy=  -475.877961 (dE=-0.232E+01)
 bond charge predicted
       N       E                     dE             d eps       ncg     rms          rms(c)
DAV:   1    -0.475866559419E+03   -0.31970E-01   -0.10262E+01  1464   0.701E+00    0.126E+00
DAV:   2    -0.475911499421E+03   -0.44940E-01   -0.39113E-01  2080   0.429E+00    0.163E+00
DAV:   3    -0.475885890190E+03    0.25609E-01   -0.12994E-01  2088   0.394E+00    0.802E-01
DAV:   4    -0.475885294667E+03    0.59552E-03   -0.14953E-02  2192   0.871E-01    0.477E-01
DAV:   5    -0.475884951278E+03    0.34339E-03   -0.60959E-03  2104   0.710E-01    0.243E-01
DAV:   6    -0.475884700514E+03    0.25076E-03   -0.18190E-03  2136   0.412E-01    0.816E-02
DAV:   7    -0.475884732295E+03   -0.31780E-04   -0.31995E-04  1968   0.132E-01    0.495E-02
DAV:   8    -0.475884725188E+03    0.71067E-05   -0.70180E-05  1400   0.687E-02
   4 F= -.47588473E+03 E0= -.47584874E+03  d E =-.232728E+01
 curvature:  -1.30 expect dE=-0.893E+00 dE for cont linesearch -0.100E-02
 trial: gam= 0.28088 g(F)=  0.664E+00 g(S)=  0.261E-01 ort =-0.449E-01 (trialstep = 0.122E+01)
 search vector abs. value=  0.871E+00
 bond charge predicted
       N       E                     dE             d eps       ncg     rms          rms(c)
DAV:   1    -0.476367392106E+03   -0.48266E+00   -0.62608E+01  1416   0.179E+01    0.212E+00
DAV:   2    -0.476525384182E+03   -0.15799E+00   -0.17957E+00  2072   0.472E+00    0.145E+00
DAV:   3    -0.476515630441E+03    0.97537E-02   -0.80808E-02  2136   0.142E+00    0.825E-01
DAV:   4    -0.476517959807E+03   -0.23294E-02   -0.45834E-02  2120   0.232E+00    0.610E-01
DAV:   5    -0.476514223126E+03    0.37367E-02   -0.25218E-02  2144   0.203E+00    0.254E-01
DAV:   6    -0.476514157390E+03    0.65736E-04   -0.28466E-03  2224   0.486E-01    0.109E-01
DAV:   7    -0.476514143464E+03    0.13926E-04   -0.14083E-03  2072   0.401E-01    0.905E-02
DAV:   8    -0.476514075520E+03    0.67944E-04   -0.58515E-04  2064   0.265E-01    0.365E-02
DAV:   9    -0.476514097596E+03   -0.22076E-04   -0.79708E-05  1448   0.640E-02    0.203E-02
DAV:  10    -0.476514126939E+03   -0.29343E-04   -0.14728E-05   904   0.251E-02    0.939E-03
DAV:  11    -0.476514156529E+03   -0.29590E-04   -0.94499E-06   904   0.189E-02    0.311E-03
DAV:  12    -0.476514177715E+03   -0.21186E-04   -0.60582E-06   936   0.135E-02    0.244E-03
DAV:  13    -0.476514194290E+03   -0.16575E-04   -0.32801E-06   944   0.117E-02    0.169E-03
DAV:  14    -0.476514212493E+03   -0.18203E-04   -0.38437E-06   928   0.695E-03    0.117E-03
DAV:  15    -0.476514220003E+03   -0.75105E-05   -0.20871E-06   952   0.637E-03
   5 F= -.47651422E+03 E0= -.47648013E+03  d E =-.629495E+00
 trial-energy change:   -0.629495  1 .order   -0.628958   -0.822992   -0.434924
 step:   2.5775(harm=  2.5775)  dis= 0.14322  next Energy=  -476.757403 (dE=-0.873E+00)
 bond charge predicted
       N       E                     dE             d eps       ncg     rms          rms(c)
DAV:   1    -0.476577299210E+03   -0.63087E-01   -0.78802E+01  1416   0.200E+01    0.222E+00
DAV:   2    -0.476774998201E+03   -0.19770E+00   -0.22400E+00  2088   0.575E+00    0.158E+00
DAV:   3    -0.476768861354E+03    0.61368E-02   -0.18549E-01  2224   0.340E+00    0.112E+00
DAV:   4    -0.476763141603E+03    0.57198E-02   -0.83795E-02  2192   0.325E+00    0.752E-01
DAV:   5    -0.476759240696E+03    0.39009E-02   -0.25151E-02  2088   0.146E+00    0.239E-01
DAV:   6    -0.476759485266E+03   -0.24457E-03   -0.41061E-03  1992   0.309E-01    0.115E-01
DAV:   7    -0.476759387043E+03    0.98223E-04   -0.14112E-03  2056   0.338E-01    0.713E-02
DAV:   8    -0.476759373555E+03    0.13488E-04   -0.54108E-04  2096   0.261E-01    0.407E-02
DAV:   9    -0.476759385907E+03   -0.12353E-04   -0.12872E-04  1536   0.115E-01    0.204E-02
DAV:  10    -0.476759422362E+03   -0.36454E-04   -0.24138E-05  1016   0.343E-02    0.884E-03
DAV:  11    -0.476759454402E+03   -0.32040E-04   -0.11433E-05   968   0.234E-02    0.294E-03
DAV:  12    -0.476759482949E+03   -0.28548E-04   -0.93312E-06   944   0.114E-02    0.268E-03
DAV:  13    -0.476759497433E+03   -0.14483E-04   -0.29910E-06   952   0.819E-03    0.190E-03
DAV:  14    -0.476759518713E+03   -0.21280E-04   -0.31759E-06   952   0.621E-03    0.137E-03
DAV:  15    -0.476759526893E+03   -0.81796E-05   -0.16278E-06   944   0.715E-03
   6 F= -.47675953E+03 E0= -.47672453E+03  d E =-.874802E+00
 curvature:  -1.66 expect dE=-0.608E+00 dE for cont linesearch -0.210E-04
 trial: gam= 0.65876 g(F)=  0.356E+00 g(S)=  0.108E-01 ort = 0.332E-02 (trialstep = 0.149E+01)
 search vector abs. value=  0.749E+00
 bond charge predicted
       N       E                     dE             d eps       ncg     rms          rms(c)
DAV:   1    -0.477007642782E+03   -0.24812E+00   -0.82784E+01  1416   0.186E+01    0.210E+00
DAV:   2    -0.477189804578E+03   -0.18216E+00   -0.21214E+00  2048   0.509E+00    0.132E+00
DAV:   3    -0.477184616691E+03    0.51879E-02   -0.14090E-01  2216   0.295E+00    0.982E-01
DAV:   4    -0.477179423813E+03    0.51929E-02   -0.68552E-02  2104   0.278E+00    0.631E-01
DAV:   5    -0.477176785189E+03    0.26386E-02   -0.17717E-02  2120   0.122E+00    0.189E-01
DAV:   6    -0.477176878471E+03   -0.93282E-04   -0.21580E-03  2000   0.209E-01    0.882E-02
DAV:   7    -0.477176895861E+03   -0.17390E-04   -0.10504E-03  1960   0.290E-01    0.636E-02
DAV:   8    -0.477176905137E+03   -0.92752E-05   -0.40809E-04  1792   0.229E-01    0.288E-02
DAV:   9    -0.477176953766E+03   -0.48629E-04   -0.61372E-05  1232   0.690E-02    0.160E-02
DAV:  10    -0.477176997701E+03   -0.43935E-04   -0.17127E-05   920   0.267E-02    0.761E-03
DAV:  11    -0.477177055103E+03   -0.57402E-04   -0.20655E-05  1112   0.189E-02    0.393E-03
DAV:  12    -0.477177090846E+03   -0.35742E-04   -0.45061E-06   928   0.123E-02    0.257E-03
DAV:  13    -0.477177132131E+03   -0.41285E-04   -0.47646E-06   936   0.809E-03    0.171E-03
DAV:  14    -0.477177155706E+03   -0.23576E-04   -0.37605E-06   944   0.917E-03    0.157E-03
DAV:  15    -0.477177171103E+03   -0.15397E-04   -0.33184E-06   912   0.734E-03    0.991E-04
DAV:  16    -0.477177180814E+03   -0.97105E-05   -0.26830E-06   960   0.702E-03
   7 F= -.47717718E+03 E0= -.47714374E+03  d E =-.417654E+00
 trial-energy change:   -0.417654  1 .order   -0.417657   -0.548805   -0.286509
 step:   3.1130(harm=  3.1130)  dis= 0.18063  next Energy=  -477.333663 (dE=-0.574E+00)
 bond charge predicted
       N       E                     dE             d eps       ncg     rms          rms(c)
DAV:   1    -0.477134974729E+03    0.42196E-01   -0.99087E+01  1432   0.203E+01    0.217E+00
DAV:   2    -0.477349878625E+03   -0.21490E+00   -0.25173E+00  2056   0.563E+00    0.139E+00
DAV:   3    -0.477343181416E+03    0.66972E-02   -0.18163E-01  2248   0.347E+00    0.103E+00
DAV:   4    -0.477335450763E+03    0.77307E-02   -0.67932E-02  2120   0.267E+00    0.621E-01
DAV:   5    -0.477333431810E+03    0.20190E-02   -0.18501E-02  2096   0.105E+00    0.201E-01
DAV:   6    -0.477333555810E+03   -0.12400E-03   -0.26621E-03  2096   0.355E-01    0.106E-01
DAV:   7    -0.477333536445E+03    0.19365E-04   -0.14447E-03  2088   0.401E-01    0.757E-02
DAV:   8    -0.477333540595E+03   -0.41502E-05   -0.52697E-04  2016   0.239E-01    0.294E-02
DAV:   9    -0.477333600448E+03   -0.59853E-04   -0.95222E-05  1352   0.618E-02    0.160E-02
DAV:  10    -0.477333658269E+03   -0.57820E-04   -0.17142E-05   960   0.299E-02    0.735E-03
DAV:  11    -0.477333725771E+03   -0.67502E-04   -0.21773E-05  1136   0.154E-02    0.360E-03
DAV:  12    -0.477333772092E+03   -0.46321E-04   -0.49547E-06   904   0.107E-02    0.267E-03
DAV:  13    -0.477333823787E+03   -0.51695E-04   -0.56573E-06   968   0.779E-03    0.181E-03
DAV:  14    -0.477333850126E+03   -0.26339E-04   -0.41828E-06   936   0.100E-02    0.182E-03
DAV:  15    -0.477333865122E+03   -0.14996E-04   -0.35707E-06   936   0.719E-03    0.896E-04
DAV:  16    -0.477333875135E+03   -0.10013E-04   -0.28372E-06   968   0.621E-03    0.113E-03
DAV:  17    -0.477333876679E+03   -0.15444E-05   -0.17922E-06   952   0.523E-03
   8 F= -.47733388E+03 E0= -.47730215E+03  d E =-.574350E+00
 curvature:  -3.16 expect dE=-0.734E+00 dE for cont linesearch -0.211E-05
 trial: gam= 0.70626 g(F)=  0.229E+00 g(S)=  0.352E-02 ort = 0.706E-03 (trialstep = 0.181E+01)
 search vector abs. value=  0.607E+00
 bond charge predicted
       N       E                     dE             d eps       ncg     rms          rms(c)
DAV:   1    -0.477401122139E+03   -0.67247E-01   -0.10236E+02  1440   0.202E+01    0.196E+00
DAV:   2    -0.477626334460E+03   -0.22521E+00   -0.25499E+00  2080   0.562E+00    0.143E+00
DAV:   3    -0.477615044743E+03    0.11290E-01   -0.16328E-01  2256   0.344E+00    0.981E-01
DAV:   4    -0.477609890974E+03    0.51538E-02   -0.46806E-02  2152   0.221E+00    0.709E-01
DAV:   5    -0.477607766286E+03    0.21247E-02   -0.17875E-02  2120   0.946E-01    0.243E-01
DAV:   6    -0.477608121750E+03   -0.35546E-03   -0.35724E-03  2064   0.427E-01    0.110E-01
DAV:   7    -0.477608062192E+03    0.59558E-04   -0.15374E-03  2136   0.442E-01    0.749E-02
DAV:   8    -0.477608020143E+03    0.42049E-04   -0.41042E-04  2008   0.216E-01    0.288E-02
DAV:   9    -0.477608047178E+03   -0.27035E-04   -0.89943E-05  1320   0.449E-02    0.133E-02
DAV:  10    -0.477608072521E+03   -0.25343E-04   -0.12647E-05   928   0.235E-02    0.630E-03
DAV:  11    -0.477608100417E+03   -0.27895E-04   -0.10210E-05  1000   0.141E-02    0.263E-03
DAV:  12    -0.477608118516E+03   -0.18099E-04   -0.42945E-06   936   0.117E-02    0.195E-03
DAV:  13    -0.477608134939E+03   -0.16423E-04   -0.26735E-06   968   0.897E-03    0.127E-03
DAV:  14    -0.477608147562E+03   -0.12623E-04   -0.24102E-06   936   0.719E-03    0.119E-03
DAV:  15    -0.477608157588E+03   -0.10025E-04   -0.24530E-06   960   0.684E-03    0.950E-04
DAV:  16    -0.477608161492E+03   -0.39044E-05   -0.16841E-06   960   0.561E-03
   9 F= -.47760816E+03 E0= -.47757779E+03  d E =-.274285E+00
 trial-energy change:   -0.274285  1 .order   -0.275366   -0.421936   -0.128795
 step:   2.6358(harm=  2.6093)  dis= 0.14636  next Energy=  -477.637294 (dE=-0.303E+00)
 bond charge predicted
       N       E                     dE             d eps       ncg     rms          rms(c)
DAV:   1    -0.477600446344E+03    0.77112E-02   -0.20891E+01  1448   0.905E+00    0.823E-01
DAV:   2    -0.477640026113E+03   -0.39580E-01   -0.44732E-01  2072   0.213E+00    0.517E-01
DAV:   3    -0.477638220997E+03    0.18051E-02   -0.17265E-02  2216   0.834E-01    0.358E-01
DAV:   4    -0.477638080551E+03    0.14045E-03   -0.83999E-03  2128   0.957E-01    0.288E-01
DAV:   5    -0.477637466387E+03    0.61416E-03   -0.38293E-03  2152   0.650E-01    0.101E-01
DAV:   6    -0.477637542261E+03   -0.75874E-04   -0.79267E-04  2000   0.170E-01    0.404E-02
DAV:   7    -0.477637536269E+03    0.59918E-05   -0.21950E-04  1648   0.156E-01    0.298E-02
DAV:   8    -0.477637532164E+03    0.41049E-05   -0.80911E-05  1296   0.101E-01
  10 F= -.47763753E+03 E0= -.47760776E+03  d E =-.303655E+00
 curvature:  -3.40 expect dE=-0.538E+00 dE for cont linesearch -0.149E-05
 trial: gam= 0.72124 g(F)=  0.154E+00 g(S)=  0.462E-02 ort = 0.515E-03 (trialstep = 0.198E+01)
 search vector abs. value=  0.475E+00
 bond charge predicted
       N       E                     dE             d eps       ncg     rms          rms(c)
DAV:   1    -0.477655254487E+03   -0.17718E-01   -0.94280E+01  1432   0.190E+01    0.177E+00
DAV:   2    -0.477843500911E+03   -0.18825E+00   -0.21708E+00  2064   0.486E+00    0.105E+00
DAV:   3    -0.477835928224E+03    0.75727E-02   -0.12854E-01  2224   0.260E+00    0.772E-01
DAV:   4    -0.477831490792E+03    0.44374E-02   -0.42747E-02  2128   0.200E+00    0.497E-01
DAV:   5    -0.477829818983E+03    0.16718E-02   -0.12574E-02  2136   0.879E-01    0.178E-01
DAV:   6    -0.477830010644E+03   -0.19166E-03   -0.24756E-03  2096   0.410E-01    0.916E-02
DAV:   7    -0.477829976865E+03    0.33779E-04   -0.10091E-03  2104   0.381E-01    0.586E-02
DAV:   8    -0.477829972966E+03    0.38995E-05   -0.24967E-04  1568   0.163E-01    0.236E-02
DAV:   9    -0.477830013942E+03   -0.40976E-04   -0.67028E-05  1408   0.363E-02    0.103E-02
DAV:  10    -0.477830039373E+03   -0.25431E-04   -0.94089E-06   944   0.197E-02    0.530E-03
DAV:  11    -0.477830074449E+03   -0.35076E-04   -0.11258E-05  1064   0.135E-02    0.265E-03
DAV:  12    -0.477830095986E+03   -0.21536E-04   -0.32966E-06   944   0.102E-02    0.200E-03
DAV:  13    -0.477830119825E+03   -0.23839E-04   -0.30298E-06   944   0.790E-03    0.125E-03
DAV:  14    -0.477830130188E+03   -0.10363E-04   -0.21726E-06   928   0.647E-03    0.115E-03
DAV:  15    -0.477830138275E+03   -0.80872E-05   -0.18538E-06   928   0.615E-03
  11 F= -.47783014E+03 E0= -.47780012E+03  d E =-.192606E+00
 trial-energy change:   -0.192606  1 .order   -0.191857   -0.314102   -0.069613
 step:   2.5275(harm=  2.5405)  dis= 0.12890  next Energy=  -477.839837 (dE=-0.202E+00)
 bond charge predicted
       N       E                     dE             d eps       ncg     rms          rms(c)
DAV:   1    -0.477826033104E+03    0.40971E-02   -0.71986E+00  1432   0.528E+00    0.460E-01
DAV:   2    -0.477840810595E+03   -0.14777E-01   -0.16769E-01  2056   0.125E+00    0.268E-01
DAV:   3    -0.477840007863E+03    0.80273E-03   -0.55614E-03  2000   0.255E-01    0.171E-01
DAV:   4    -0.477839816157E+03    0.19171E-03   -0.16471E-03  1984   0.263E-01    0.872E-02
DAV:   5    -0.477839808198E+03    0.79591E-05   -0.81003E-04  2152   0.319E-01    0.602E-02
DAV:   6    -0.477839775033E+03    0.33165E-04   -0.29197E-04  1688   0.208E-01    0.217E-02
DAV:   7    -0.477839778635E+03   -0.36027E-05   -0.34226E-05  1144   0.515E-02
  12 F= -.47783978E+03 E0= -.47780966E+03  d E =-.202246E+00
 curvature:  -3.80 expect dE=-0.456E+00 dE for cont linesearch -0.153E-05
 trial: gam= 0.76477 g(F)=  0.119E+00 g(S)=  0.106E-02 ort =-0.438E-03 (trialstep = 0.209E+01)
 search vector abs. value=  0.397E+00
 bond charge predicted
       N       E                     dE             d eps       ncg     rms          rms(c)
DAV:   1    -0.477881685579E+03   -0.41911E-01   -0.93380E+01  1424   0.180E+01    0.146E+00
DAV:   2    -0.478039803720E+03   -0.15812E+00   -0.18405E+00  2008   0.469E+00    0.892E-01
DAV:   3    -0.478033579831E+03    0.62239E-02   -0.12591E-01  2272   0.270E+00    0.673E-01
DAV:   4    -0.478028894183E+03    0.46856E-02   -0.32348E-02  2200   0.156E+00    0.354E-01
DAV:   5    -0.478028321809E+03    0.57237E-03   -0.89601E-03  2072   0.552E-01    0.125E-01
DAV:   6    -0.478028449810E+03   -0.12800E-03   -0.16595E-03  2088   0.358E-01    0.800E-02
DAV:   7    -0.478028419324E+03    0.30486E-04   -0.72005E-04  1968   0.319E-01    0.461E-02
DAV:   8    -0.478028417046E+03    0.22777E-05   -0.16518E-04  1400   0.124E-01    0.198E-02
DAV:   9    -0.478028438404E+03   -0.21358E-04   -0.44951E-05  1336   0.300E-02    0.822E-03
DAV:  10    -0.478028455692E+03   -0.17288E-04   -0.72727E-06   920   0.169E-02    0.350E-03
DAV:  11    -0.478028472362E+03   -0.16670E-04   -0.60623E-06  1024   0.128E-02    0.190E-03
DAV:  12    -0.478028483029E+03   -0.10667E-04   -0.24898E-06   920   0.924E-03    0.144E-03
DAV:  13    -0.478028497171E+03   -0.14142E-04   -0.20198E-06   952   0.715E-03    0.868E-04
DAV:  14    -0.478028503054E+03   -0.58835E-05   -0.15597E-06   936   0.613E-03
  13 F= -.47802850E+03 E0= -.47799842E+03  d E =-.188724E+00
 trial-energy change:   -0.188724  1 .order   -0.188803   -0.250187   -0.127419
 step:   4.2540(harm=  4.2540)  dis= 0.20607  next Energy=  -478.094705 (dE=-0.255E+00)
 bond charge predicted
       N       E                     dE             d eps       ncg     rms          rms(c)
DAV:   1    -0.477928962653E+03    0.99535E-01   -0.10065E+02  1424   0.186E+01    0.150E+00
DAV:   2    -0.478107447632E+03   -0.17848E+00   -0.20767E+00  2040   0.496E+00    0.936E-01
DAV:   3    -0.478099823077E+03    0.76246E-02   -0.13438E-01  2248   0.288E+00    0.689E-01
DAV:   4    -0.478094785715E+03    0.50374E-02   -0.32852E-02  2184   0.155E+00    0.368E-01
DAV:   5    -0.478094017921E+03    0.76779E-03   -0.97492E-03  2040   0.590E-01    0.130E-01
DAV:   6    -0.478094169401E+03   -0.15148E-03   -0.20470E-03  2096   0.447E-01    0.915E-02
DAV:   7    -0.478094110834E+03    0.58567E-04   -0.85688E-04  2000   0.360E-01    0.457E-02
DAV:   8    -0.478094113889E+03   -0.30550E-05   -0.16649E-04  1432   0.104E-01    0.197E-02
DAV:   9    -0.478094136637E+03   -0.22747E-04   -0.41258E-05  1280   0.220E-02    0.789E-03
DAV:  10    -0.478094153787E+03   -0.17151E-04   -0.56174E-06   960   0.156E-02    0.344E-03
DAV:  11    -0.478094169211E+03   -0.15424E-04   -0.40304E-06   928   0.112E-02    0.186E-03
DAV:  12    -0.478094180291E+03   -0.11080E-04   -0.26935E-06   976   0.775E-03    0.150E-03
DAV:  13    -0.478094195333E+03   -0.15042E-04   -0.18642E-06   936   0.876E-03    0.122E-03
DAV:  14    -0.478094202079E+03   -0.67463E-05   -0.15435E-06   936   0.645E-03
  14 F= -.47809420E+03 E0= -.47806413E+03  d E =-.254423E+00
 curvature:  -7.05 expect dE=-0.134E+01 dE for cont linesearch -0.151E-04
 trial: gam= 1.58869 g(F)=  0.164E+00 g(S)=  0.258E-01 ort =-0.923E-03 (trialstep = 0.842E+00)
 search vector abs. value=  0.119E+01
 bond charge predicted
       N       E                     dE             d eps       ncg     rms          rms(c)
DAV:   1    -0.478144395730E+03   -0.50200E-01   -0.46753E+01  1424   0.124E+01    0.772E-01
DAV:   2    -0.478247539891E+03   -0.10314E+00   -0.11105E+00  2064   0.389E+00    0.820E-01
DAV:   3    -0.478239830976E+03    0.77089E-02   -0.51781E-02  2224   0.194E+00    0.426E-01
DAV:   4    -0.478238266110E+03    0.15649E-02   -0.67926E-03  2176   0.487E-01    0.327E-01
DAV:   5    -0.478237299451E+03    0.96666E-03   -0.56703E-03  1968   0.367E-01    0.108E-01
DAV:   6    -0.478237327950E+03   -0.28499E-04   -0.10069E-03  1824   0.970E-02    0.425E-02
DAV:   7    -0.478237369694E+03   -0.41745E-04   -0.20361E-04  1896   0.685E-02    0.338E-02
DAV:   8    -0.478237376995E+03   -0.73000E-05   -0.27245E-05  1176   0.231E-02
  15 F= -.47823738E+03 E0= -.47820819E+03  d E =-.143175E+00
 ZBRENT: can't locate minimum, use default step
 trial-energy change:   -0.143175  1 .order   -0.143019   -0.158405   -0.127633
 step:   3.3680(harm=  4.3344)  dis= 0.28639  next Energy=  -478.501916 (dE=-0.408E+00)
 bond charge predicted
       N       E                     dE             d eps       ncg     rms          rms(c)
DAV:   1    -0.477287423042E+03    0.94995E+00   -0.44652E+02  1472   0.396E+01    0.276E+00
DAV:   2    -0.478529978054E+03   -0.12426E+01   -0.13033E+01  2072   0.103E+01    0.201E+00
DAV:   3    -0.478495540267E+03    0.34438E-01   -0.29520E-01  2208   0.401E+00    0.135E+00
DAV:   4    -0.478485055355E+03    0.10485E-01   -0.70930E-02  2208   0.236E+00    0.112E+00
DAV:   5    -0.478473613095E+03    0.11442E-01   -0.47212E-02  2104   0.138E+00    0.407E-01
DAV:   6    -0.478473933641E+03   -0.32055E-03   -0.10815E-02  1864   0.321E-01    0.145E-01
DAV:   7    -0.478474152609E+03   -0.21897E-03   -0.12970E-03  2000   0.208E-01    0.958E-02
DAV:   8    -0.478474323944E+03   -0.17134E-03   -0.49687E-04  2048   0.239E-01    0.559E-02
DAV:   9    -0.478474397787E+03   -0.73843E-04   -0.24656E-04  1544   0.203E-01    0.257E-02
DAV:  10    -0.478474500312E+03   -0.10252E-03   -0.49435E-05  1344   0.668E-02    0.886E-03
DAV:  11    -0.478474587145E+03   -0.86833E-04   -0.16833E-05  1112   0.138E-02    0.384E-03
DAV:  12    -0.478474670792E+03   -0.83647E-04   -0.69112E-06   944   0.117E-02    0.244E-03
DAV:  13    -0.478474726661E+03   -0.55869E-04   -0.71208E-06  1064   0.117E-02    0.194E-03
DAV:  14    -0.478474777584E+03   -0.50923E-04   -0.72179E-06   984   0.982E-03    0.126E-03
DAV:  15    -0.478474795130E+03   -0.17545E-04   -0.40525E-06  1024   0.862E-03    0.111E-03
DAV:  16    -0.478474803362E+03   -0.82326E-05   -0.27993E-06   968   0.670E-03
  16 F= -.47847480E+03 E0= -.47844859E+03  d E =-.380601E+00
 curvature: -12.65 expect dE=-0.221E+01 dE for cont linesearch -0.118E-01
 trial: gam= 0.67648 g(F)=  0.174E+00 g(S)=  0.988E-04 ort = 0.333E-01 (trialstep = 0.135E+01)
 search vector abs. value=  0.764E+00
 bond charge predicted
       N       E                     dE             d eps       ncg     rms          rms(c)
DAV:   1    -0.478530285026E+03   -0.55490E-01   -0.72332E+01  1472   0.166E+01    0.106E+00
DAV:   2    -0.478700277144E+03   -0.16999E+00   -0.18176E+00  2072   0.494E+00    0.989E-01
DAV:   3    -0.478689836496E+03    0.10441E-01   -0.76550E-02  2232   0.237E+00    0.566E-01
DAV:   4    -0.478686935009E+03    0.29015E-02   -0.13560E-02  2248   0.886E-01    0.428E-01
DAV:   5    -0.478685006169E+03    0.19288E-02   -0.10030E-02  1960   0.519E-01    0.116E-01
DAV:   6    -0.478685180807E+03   -0.17464E-03   -0.14826E-03  1920   0.104E-01    0.677E-02
DAV:   7    -0.478685184730E+03   -0.39229E-05   -0.17715E-04  1888   0.776E-02    0.366E-02
DAV:   8    -0.478685199552E+03   -0.14822E-04   -0.79730E-05  1336   0.103E-01    0.220E-02
DAV:   9    -0.478685208009E+03   -0.84566E-05   -0.36749E-05  1240   0.761E-02
  17 F= -.47868521E+03 E0= -.47866020E+03  d E =-.210405E+00
 trial-energy change:   -0.210405  1 .order   -0.210115   -0.265246   -0.154984
 step:   3.2408(harm=  3.2408)  dis= 0.20263  next Energy=  -478.793840 (dE=-0.319E+00)
 bond charge predicted
       N       E                     dE             d eps       ncg     rms          rms(c)
DAV:   1    -0.478458013181E+03    0.22719E+00   -0.14415E+02  1472   0.235E+01    0.153E+00
DAV:   2    -0.478821854664E+03   -0.36384E+00   -0.38544E+00  2080   0.678E+00    0.133E+00
DAV:   3    -0.478803900134E+03    0.17955E-01   -0.13868E-01  2240   0.312E+00    0.804E-01
DAV:   4    -0.478798605430E+03    0.52947E-02   -0.28241E-02  2264   0.139E+00    0.627E-01
DAV:   5    -0.478794468254E+03    0.41372E-02   -0.19512E-02  2016   0.804E-01    0.184E-01
DAV:   6    -0.478794796617E+03   -0.32836E-03   -0.37715E-03  2072   0.363E-01    0.112E-01
DAV:   7    -0.478794812056E+03   -0.15439E-04   -0.10492E-03  2152   0.367E-01    0.826E-02
DAV:   8    -0.478794806949E+03    0.51070E-05   -0.26556E-04  1624   0.178E-01    0.319E-02
DAV:   9    -0.478794863806E+03   -0.56857E-04   -0.92342E-05  1576   0.285E-02    0.102E-02
DAV:  10    -0.478794897966E+03   -0.34159E-04   -0.84872E-06  1032   0.152E-02    0.498E-03
DAV:  11    -0.478794934347E+03   -0.36382E-04   -0.52002E-06   952   0.936E-03    0.243E-03
DAV:  12    -0.478794960730E+03   -0.26383E-04   -0.32899E-06   992   0.984E-03    0.203E-03
DAV:  13    -0.478794988257E+03   -0.27527E-04   -0.33183E-06   960   0.843E-03    0.123E-03
DAV:  14    -0.478795010758E+03   -0.22500E-04   -0.41600E-06  1000   0.729E-03    0.143E-03
DAV:  15    -0.478795017979E+03   -0.72219E-05   -0.22958E-06   992   0.656E-03
  18 F= -.47879502E+03 E0= -.47877128E+03  d E =-.320215E+00
 curvature:  -6.29 expect dE=-0.110E+01 dE for cont linesearch -0.243E-05
 trial: gam= 1.17414 g(F)=  0.175E+00 g(S)=  0.409E-03 ort =-0.543E-03 (trialstep = 0.107E+01)
 search vector abs. value=  0.123E+01
 bond charge predicted
       N       E                     dE             d eps       ncg     rms          rms(c)
DAV:   1    -0.478789905954E+03    0.51048E-02   -0.72488E+01  1472   0.169E+01    0.106E+00
DAV:   2    -0.478956938696E+03   -0.16703E+00   -0.17794E+00  2072   0.477E+00    0.948E-01
DAV:   3    -0.478947445562E+03    0.94931E-02   -0.65938E-02  2240   0.219E+00    0.567E-01
DAV:   4    -0.478944755418E+03    0.26901E-02   -0.14141E-02  2224   0.970E-01    0.433E-01
DAV:   5    -0.478942924493E+03    0.18309E-02   -0.10146E-02  2024   0.615E-01    0.121E-01
DAV:   6    -0.478943111192E+03   -0.18670E-03   -0.19361E-03  2160   0.318E-01    0.819E-02
DAV:   7    -0.478943099033E+03    0.12159E-04   -0.58875E-04  1848   0.274E-01    0.554E-02
DAV:   8    -0.478943093264E+03    0.57697E-05   -0.12760E-04  1528   0.109E-01    0.231E-02
DAV:   9    -0.478943113657E+03   -0.20393E-04   -0.49453E-05  1456   0.231E-02    0.851E-03
DAV:  10    -0.478943129990E+03   -0.16333E-04   -0.59059E-06   960   0.127E-02    0.412E-03
DAV:  11    -0.478943145202E+03   -0.15211E-04   -0.30686E-06   960   0.817E-03    0.216E-03
DAV:  12    -0.478943160115E+03   -0.14914E-04   -0.22256E-06   968   0.795E-03    0.149E-03
DAV:  13    -0.478943172251E+03   -0.12136E-04   -0.14879E-06   960   0.699E-03    0.850E-04
DAV:  14    -0.478943182479E+03   -0.10228E-04   -0.20276E-06   968   0.462E-03    0.104E-03
DAV:  15    -0.478943186733E+03   -0.42540E-05   -0.12823E-06   968   0.555E-03
  19 F= -.47894319E+03 E0= -.47891936E+03  d E =-.148169E+00
 trial-energy change:   -0.148169  1 .order   -0.148004   -0.187946   -0.108062
 step:   2.5269(harm=  2.5269)  dis= 0.18917  next Energy=  -479.016111 (dE=-0.221E+00)
 bond charge predicted
       N       E                     dE             d eps       ncg     rms          rms(c)
DAV:   1    -0.478708881642E+03    0.23430E+00   -0.13360E+02  1472   0.230E+01    0.148E+00
DAV:   2    -0.479035420702E+03   -0.32654E+00   -0.34499E+00  2064   0.628E+00    0.123E+00
DAV:   3    -0.479020173929E+03    0.15247E-01   -0.11040E-01  2216   0.271E+00    0.771E-01
DAV:   4    -0.479015759726E+03    0.44142E-02   -0.28332E-02  2232   0.145E+00    0.610E-01
DAV:   5    -0.479011924556E+03    0.38352E-02   -0.18349E-02  2056   0.889E-01    0.179E-01
DAV:   6    -0.479012248891E+03   -0.32433E-03   -0.38576E-03  2056   0.346E-01    0.106E-01
DAV:   7    -0.479012258296E+03   -0.94050E-05   -0.10154E-03  2112   0.345E-01    0.778E-02
DAV:   8    -0.479012241021E+03    0.17275E-04   -0.27064E-04  1832   0.179E-01    0.325E-02
DAV:   9    -0.479012273937E+03   -0.32916E-04   -0.68383E-05  1472   0.360E-02    0.134E-02
DAV:  10    -0.479012304344E+03   -0.30407E-04   -0.11694E-05   960   0.175E-02    0.605E-03
DAV:  11    -0.479012330476E+03   -0.26132E-04   -0.68058E-06   976   0.117E-02    0.308E-03
DAV:  12    -0.479012357991E+03   -0.27514E-04   -0.45491E-06   944   0.135E-02    0.206E-03
DAV:  13    -0.479012378837E+03   -0.20846E-04   -0.35117E-06   984   0.103E-02    0.142E-03
DAV:  14    -0.479012395970E+03   -0.17133E-04   -0.55645E-06  1024   0.744E-03    0.122E-03
DAV:  15    -0.479012402777E+03   -0.68065E-05   -0.20601E-06   976   0.711E-03
  20 F= -.47901240E+03 E0= -.47898860E+03  d E =-.217385E+00
 curvature:  -8.86 expect dE=-0.104E+01 dE for cont linesearch -0.234E-03
 trial: gam= 0.52774 g(F)=  0.113E+00 g(S)=  0.388E-02 ort =-0.570E-02 (trialstep = 0.136E+01)
 search vector abs. value=  0.453E+00
 bond charge predicted
       N       E                     dE             d eps       ncg     rms          rms(c)
DAV:   1    -0.479037080727E+03   -0.24685E-01   -0.39922E+01  1472   0.137E+01    0.936E-01
DAV:   2    -0.479132540123E+03   -0.95459E-01   -0.10524E+00  2064   0.311E+00    0.653E-01
DAV:   3    -0.479128433057E+03    0.41071E-02   -0.28816E-02  2216   0.101E+00    0.429E-01
DAV:   4    -0.479127730856E+03    0.70220E-03   -0.13693E-02  2224   0.102E+00    0.354E-01
DAV:   5    -0.479126390118E+03    0.13407E-02   -0.72778E-03  2160   0.812E-01    0.104E-01
DAV:   6    -0.479126483350E+03   -0.93232E-04   -0.13493E-03  1984   0.178E-01    0.589E-02
DAV:   7    -0.479126496057E+03   -0.12707E-04   -0.34289E-04  1984   0.185E-01    0.433E-02
DAV:   8    -0.479126493965E+03    0.20919E-05   -0.11464E-04  1336   0.129E-01    0.191E-02
DAV:   9    -0.479126513280E+03   -0.19315E-04   -0.29202E-05  1272   0.326E-02    0.817E-03
DAV:  10    -0.479126530529E+03   -0.17249E-04   -0.85483E-06   936   0.133E-02    0.429E-03
DAV:  11    -0.479126543660E+03   -0.13131E-04   -0.42567E-06   936   0.984E-03    0.225E-03
DAV:  12    -0.479126556183E+03   -0.12523E-04   -0.27221E-06   936   0.979E-03    0.139E-03
DAV:  13    -0.479126563950E+03   -0.77666E-05   -0.16799E-06   952   0.658E-03
  21 F= -.47912656E+03 E0= -.47910330E+03  d E =-.114161E+00
 trial-energy change:   -0.114161  1 .order   -0.113939   -0.155359   -0.072519
 step:   2.5592(harm=  2.5592)  dis= 0.09566  next Energy=  -479.158084 (dE=-0.146E+00)
 bond charge predicted
       N       E                     dE             d eps       ncg     rms          rms(c)
DAV:   1    -0.479090205240E+03    0.36351E-01   -0.30567E+01  1472   0.119E+01    0.816E-01
DAV:   2    -0.479162656201E+03   -0.72451E-01   -0.79966E-01  2056   0.273E+00    0.578E-01
DAV:   3    -0.479159289060E+03    0.33671E-02   -0.21502E-02  2224   0.946E-01    0.376E-01
DAV:   4    -0.479158757011E+03    0.53205E-03   -0.10925E-02  2208   0.934E-01    0.316E-01
DAV:   5    -0.479157690183E+03    0.10668E-02   -0.55536E-03  2152   0.692E-01    0.892E-02
DAV:   6    -0.479157775576E+03   -0.85393E-04   -0.10578E-03  1976   0.150E-01    0.512E-02
DAV:   7    -0.479157785270E+03   -0.96938E-05   -0.26170E-04  1824   0.164E-01    0.380E-02
DAV:   8    -0.479157784924E+03    0.34545E-06   -0.86336E-05  1232   0.113E-01
  22 F= -.47915778E+03 E0= -.47913497E+03  d E =-.145382E+00
 curvature:  -5.09 expect dE=-0.308E+00 dE for cont linesearch -0.196E-04
 trial: gam= 0.47944 g(F)=  0.560E-01 g(S)=  0.454E-02 ort =-0.132E-02 (trialstep = 0.160E+01)
 search vector abs. value=  0.163E+00
 bond charge predicted
       N       E                     dE             d eps       ncg     rms          rms(c)
DAV:   1    -0.479195990007E+03   -0.38205E-01   -0.18450E+01  1472   0.991E+00    0.714E-01
DAV:   2    -0.479227831617E+03   -0.31842E-01   -0.39185E-01  2048   0.205E+00    0.439E-01
DAV:   3    -0.479226189168E+03    0.16424E-02   -0.18342E-02  2016   0.489E-01    0.290E-01
DAV:   4    -0.479225713111E+03    0.47606E-03   -0.38462E-03  2080   0.469E-01    0.170E-01
DAV:   5    -0.479225706959E+03    0.61520E-05   -0.27809E-03  2128   0.649E-01    0.120E-01
DAV:   6    -0.479225592138E+03    0.11482E-03   -0.11132E-03  2144   0.396E-01    0.315E-02
DAV:   7    -0.479225618340E+03   -0.26202E-04   -0.16520E-04  1680   0.872E-02    0.226E-02
DAV:   8    -0.479225628093E+03   -0.97534E-05   -0.39156E-05  1192   0.606E-02
  23 F= -.47922563E+03 E0= -.47920362E+03  d E =-.678432E-01
 trial-energy change:   -0.067843  1 .order   -0.067544   -0.096141   -0.038947
 step:   2.6419(harm=  2.6955)  dis= 0.03744  next Energy=  -479.238319 (dE=-0.805E-01)
 bond charge predicted
       N       E                     dE             d eps       ncg     rms          rms(c)
DAV:   1    -0.479226671333E+03   -0.10530E-02   -0.77304E+00  1472   0.641E+00    0.454E-01
DAV:   2    -0.479240219454E+03   -0.13548E-01   -0.16548E-01  2024   0.132E+00    0.284E-01
DAV:   3    -0.479239615032E+03    0.60442E-03   -0.82040E-03  2024   0.292E-01    0.184E-01
DAV:   4    -0.479239383373E+03    0.23166E-03   -0.12238E-03  2016   0.197E-01    0.101E-01
DAV:   5    -0.479239420477E+03   -0.37104E-04   -0.93892E-04  2104   0.325E-01    0.659E-02
DAV:   6    -0.479239380951E+03    0.39526E-04   -0.42189E-04  1744   0.256E-01    0.220E-02
DAV:   7    -0.479239393763E+03   -0.12812E-04   -0.39749E-05  1168   0.583E-02    0.127E-02
DAV:   8    -0.479239409004E+03   -0.15241E-04   -0.17205E-05  1056   0.397E-02    0.913E-03
DAV:   9    -0.479239423134E+03   -0.14130E-04   -0.90453E-06   928   0.291E-02    0.397E-03
DAV:  10    -0.479239434838E+03   -0.11704E-04   -0.48862E-06   960   0.110E-02    0.243E-03
DAV:  11    -0.479239448188E+03   -0.13350E-04   -0.26579E-06   896   0.847E-03    0.133E-03
DAV:  12    -0.479239457902E+03   -0.97139E-05   -0.15755E-06   936   0.764E-03
  24 F= -.47923946E+03 E0= -.47921796E+03  d E =-.816730E-01
 curvature:  -3.66 expect dE=-0.201E+00 dE for cont linesearch -0.784E-04
 trial: gam= 0.87372 g(F)=  0.534E-01 g(S)=  0.148E-02 ort = 0.187E-02 (trialstep = 0.162E+01)
 search vector abs. value=  0.183E+00
 bond charge predicted
       N       E                     dE             d eps       ncg     rms          rms(c)
DAV:   1    -0.479272669254E+03   -0.33221E-01   -0.20190E+01  1440   0.106E+01    0.835E-01
DAV:   2    -0.479311292168E+03   -0.38623E-01   -0.48599E-01  2008   0.239E+00    0.469E-01
DAV:   3    -0.479310480408E+03    0.81176E-03   -0.31436E-02  2136   0.119E+00    0.377E-01
DAV:   4    -0.479309731775E+03    0.74863E-03   -0.88287E-03  2152   0.805E-01    0.216E-01
DAV:   5    -0.479309533542E+03    0.19823E-03   -0.24408E-03  2192   0.466E-01    0.974E-02
DAV:   6    -0.479309598981E+03   -0.65439E-04   -0.73146E-04  1992   0.149E-01    0.288E-02
DAV:   7    -0.479309614668E+03   -0.15687E-04   -0.11690E-04  1512   0.103E-01    0.226E-02
DAV:   8    -0.479309619831E+03   -0.51628E-05   -0.47592E-05  1232   0.856E-02
  25 F= -.47930962E+03 E0= -.47928813E+03  d E =-.701619E-01
 trial-energy change:   -0.070162  1 .order   -0.069703   -0.091443   -0.047964
 step:   3.2044(harm=  3.4032)  dis= 0.04579  next Energy=  -479.333561 (dE=-0.941E-01)
 bond charge predicted
       N       E                     dE             d eps       ncg     rms          rms(c)
DAV:   1    -0.479300474704E+03    0.91400E-02   -0.19400E+01  1440   0.104E+01    0.819E-01
DAV:   2    -0.479338171139E+03   -0.37696E-01   -0.47214E-01  2024   0.235E+00    0.462E-01
DAV:   3    -0.479337196255E+03    0.97488E-03   -0.28626E-02  2144   0.116E+00    0.371E-01
DAV:   4    -0.479336487381E+03    0.70887E-03   -0.85819E-03  2152   0.797E-01    0.214E-01
DAV:   5    -0.479336289617E+03    0.19776E-03   -0.23880E-03  2192   0.472E-01    0.968E-02
DAV:   6    -0.479336364542E+03   -0.74926E-04   -0.70831E-04  2000   0.140E-01    0.268E-02
DAV:   7    -0.479336386418E+03   -0.21875E-04   -0.86470E-05  1552   0.606E-02    0.176E-02
DAV:   8    -0.479336401981E+03   -0.15563E-04   -0.36466E-05  1208   0.746E-02    0.130E-02
DAV:   9    -0.479336417930E+03   -0.15949E-04   -0.10977E-05  1024   0.413E-02    0.347E-03
DAV:  10    -0.479336433141E+03   -0.15212E-04   -0.78099E-06   968   0.896E-03    0.220E-03
DAV:  11    -0.479336450878E+03   -0.17737E-04   -0.23534E-06   872   0.760E-03    0.917E-04
DAV:  12    -0.479336463436E+03   -0.12558E-04   -0.19165E-06   904   0.494E-03    0.101E-03
DAV:  13    -0.479336470038E+03   -0.66022E-05   -0.10821E-06   960   0.570E-03
  26 F= -.47933647E+03 E0= -.47931495E+03  d E =-.970121E-01
 curvature:  -5.44 expect dE=-0.262E+00 dE for cont linesearch -0.443E-03
 trial: gam= 0.88689 g(F)=  0.450E-01 g(S)=  0.321E-02 ort = 0.386E-02 (trialstep = 0.178E+01)
 search vector abs. value=  0.199E+00
 bond charge predicted
       N       E                     dE             d eps       ncg     rms          rms(c)
DAV:   1    -0.479359734288E+03   -0.23271E-01   -0.26305E+01  1472   0.121E+01    0.864E-01
DAV:   2    -0.479406295619E+03   -0.46561E-01   -0.55059E-01  2040   0.274E+00    0.565E-01
DAV:   3    -0.479403844104E+03    0.24515E-02   -0.27735E-02  2192   0.136E+00    0.413E-01
DAV:   4    -0.479403135002E+03    0.70910E-03   -0.92798E-03  2184   0.973E-01    0.287E-01
DAV:   5    -0.479402801703E+03    0.33330E-03   -0.37529E-03  2176   0.569E-01    0.103E-01
DAV:   6    -0.479402975016E+03   -0.17331E-03   -0.13277E-03  2120   0.350E-01    0.669E-02
DAV:   7    -0.479402950460E+03    0.24556E-04   -0.41181E-04  1752   0.233E-01    0.295E-02
DAV:   8    -0.479402968213E+03   -0.17753E-04   -0.44519E-05  1216   0.432E-02    0.117E-02
DAV:   9    -0.479402990454E+03   -0.22241E-04   -0.18147E-05  1080   0.162E-02    0.434E-03
DAV:  10    -0.479403001081E+03   -0.10627E-04   -0.45382E-06   920   0.130E-02    0.239E-03
DAV:  11    -0.479403013615E+03   -0.12535E-04   -0.25045E-06   920   0.862E-03    0.147E-03
DAV:  12    -0.479403024731E+03   -0.11116E-04   -0.17295E-06   912   0.758E-03    0.925E-04
DAV:  13    -0.479403031459E+03   -0.67278E-05   -0.15371E-06   920   0.489E-03
  27 F= -.47940303E+03 E0= -.47938216E+03  d E =-.665614E-01
 trial-energy change:   -0.066561  1 .order   -0.066459   -0.091888   -0.041031
 step:   3.2148(harm=  3.2148)  dis= 0.05156  next Energy=  -479.419481 (dE=-0.830E-01)
 bond charge predicted
       N       E                     dE             d eps       ncg     rms          rms(c)
DAV:   1    -0.479392128062E+03    0.10897E-01   -0.17120E+01  1472   0.976E+00    0.684E-01
DAV:   2    -0.479421848517E+03   -0.29720E-01   -0.35158E-01  2048   0.218E+00    0.448E-01
DAV:   3    -0.479420330300E+03    0.15182E-02   -0.17047E-02  2184   0.104E+00    0.326E-01
DAV:   4    -0.479419941299E+03    0.38900E-03   -0.60183E-03  2184   0.789E-01    0.227E-01
DAV:   5    -0.479419727107E+03    0.21419E-03   -0.24964E-03  2160   0.478E-01    0.808E-02
DAV:   6    -0.479419842707E+03   -0.11560E-03   -0.83862E-04  2112   0.276E-01    0.526E-02
DAV:   7    -0.479419827584E+03    0.15122E-04   -0.26050E-04  1656   0.184E-01    0.237E-02
DAV:   8    -0.479419838865E+03   -0.11281E-04   -0.28244E-05  1136   0.372E-02    0.923E-03
DAV:   9    -0.479419853448E+03   -0.14583E-04   -0.12476E-05   952   0.140E-02    0.360E-03
DAV:  10    -0.479419861045E+03   -0.75973E-05   -0.40103E-06   928   0.124E-02
  28 F= -.47941986E+03 E0= -.47939940E+03  d E =-.833910E-01
 curvature:  -6.19 expect dE=-0.290E+00 dE for cont linesearch -0.182E-05
 trial: gam= 1.06077 g(F)=  0.468E-01 g(S)=  0.722E-05 ort = 0.242E-03 (trialstep = 0.152E+01)
 search vector abs. value=  0.271E+00
 bond charge predicted
       N       E                     dE             d eps       ncg     rms          rms(c)
DAV:   1    -0.479433584812E+03   -0.13731E-01   -0.25613E+01  1472   0.121E+01    0.806E-01
DAV:   2    -0.479476789218E+03   -0.43204E-01   -0.51264E-01  2096   0.269E+00    0.549E-01
DAV:   3    -0.479474834936E+03    0.19543E-02   -0.28831E-02  2168   0.139E+00    0.399E-01
DAV:   4    -0.479474178676E+03    0.65626E-03   -0.88804E-03  2160   0.102E+00    0.282E-01
DAV:   5    -0.479473936616E+03    0.24206E-03   -0.34017E-03  2136   0.602E-01    0.113E-01
DAV:   6    -0.479474131161E+03   -0.19455E-03   -0.15541E-03  2072   0.410E-01    0.737E-02
DAV:   7    -0.479474092362E+03    0.38800E-04   -0.50266E-04  1784   0.248E-01    0.280E-02
DAV:   8    -0.479474104779E+03   -0.12418E-04   -0.56183E-05  1312   0.333E-02    0.126E-02
DAV:   9    -0.479474122224E+03   -0.17445E-04   -0.14585E-05  1032   0.186E-02    0.550E-03
DAV:  10    -0.479474131254E+03   -0.90297E-05   -0.51688E-06   952   0.153E-02
  29 F= -.47947413E+03 E0= -.47945336E+03  d E =-.542702E-01
 trial-energy change:   -0.054270  1 .order   -0.054083   -0.071389   -0.036778
 step:   3.0284(harm=  3.1263)  dis= 0.05886  next Energy=  -479.492669 (dE=-0.728E-01)
 bond charge predicted
       N       E                     dE             d eps       ncg     rms          rms(c)
DAV:   1    -0.479453159080E+03    0.20963E-01   -0.25489E+01  1472   0.120E+01    0.808E-01
DAV:   2    -0.479496274378E+03   -0.43115E-01   -0.51299E-01  2096   0.271E+00    0.551E-01
DAV:   3    -0.479494354418E+03    0.19200E-02   -0.29706E-02  2176   0.142E+00    0.402E-01
DAV:   4    -0.479493644254E+03    0.71016E-03   -0.88007E-03  2160   0.102E+00    0.283E-01
DAV:   5    -0.479493437667E+03    0.20659E-03   -0.33650E-03  2144   0.586E-01    0.115E-01
DAV:   6    -0.479493626521E+03   -0.18885E-03   -0.16298E-03  2088   0.427E-01    0.762E-02
DAV:   7    -0.479493584270E+03    0.42250E-04   -0.52352E-04  1736   0.256E-01    0.281E-02
DAV:   8    -0.479493602042E+03   -0.17772E-04   -0.61235E-05  1360   0.318E-02    0.126E-02
DAV:   9    -0.479493623894E+03   -0.21851E-04   -0.11970E-05   968   0.193E-02    0.559E-03
DAV:  10    -0.479493635503E+03   -0.11610E-04   -0.59460E-06   952   0.165E-02    0.318E-03
DAV:  11    -0.479493647114E+03   -0.11610E-04   -0.34098E-06   912   0.925E-03    0.171E-03
DAV:  12    -0.479493658906E+03   -0.11792E-04   -0.23128E-06   936   0.852E-03    0.122E-03
DAV:  13    -0.479493666421E+03   -0.75156E-05   -0.17183E-06   936   0.613E-03
  30 F= -.47949367E+03 E0= -.47947251E+03  d E =-.738054E-01
 curvature:  -8.97 expect dE=-0.470E+00 dE for cont linesearch -0.629E-04
 trial: gam= 1.01276 g(F)=  0.516E-01 g(S)=  0.831E-03 ort = 0.138E-02 (trialstep = 0.148E+01)
 search vector abs. value=  0.333E+00
 bond charge predicted
       N       E                     dE             d eps       ncg     rms          rms(c)
DAV:   1    -0.479510339294E+03   -0.16680E-01   -0.29534E+01  1472   0.132E+01    0.837E-01
DAV:   2    -0.479560228294E+03   -0.49889E-01   -0.58478E-01  2056   0.268E+00    0.569E-01
DAV:   3    -0.479558161905E+03    0.20664E-02   -0.24342E-02  2144   0.989E-01    0.383E-01
DAV:   4    -0.479558299671E+03   -0.13777E-03   -0.11546E-02  2152   0.131E+00    0.323E-01
DAV:   5    -0.479557457367E+03    0.84230E-03   -0.58841E-03  2120   0.953E-01    0.102E-01
DAV:   6    -0.479557635161E+03   -0.17779E-03   -0.11668E-03  1904   0.136E-01    0.385E-02
DAV:   7    -0.479557640701E+03   -0.55405E-05   -0.16545E-04  1856   0.538E-02    0.210E-02
DAV:   8    -0.479557651398E+03   -0.10697E-04   -0.32602E-05  1176   0.505E-02    0.154E-02
DAV:   9    -0.479557656545E+03   -0.51462E-05   -0.14702E-05  1016   0.440E-02
  31 F= -.47955766E+03 E0= -.47953632E+03  d E =-.639901E-01
 trial-energy change:   -0.063990  1 .order   -0.063747   -0.079639   -0.047856
 step:   3.4885(harm=  3.7058)  dis= 0.07320  next Energy=  -479.590779 (dE=-0.971E-01)
 bond charge predicted
       N       E                     dE             d eps       ncg     rms          rms(c)
DAV:   1    -0.479506461456E+03    0.51190E-01   -0.54552E+01  1472   0.180E+01    0.119E+00
DAV:   2    -0.479599205277E+03   -0.92744E-01   -0.10882E+00  2064   0.382E+00    0.787E-01
DAV:   3    -0.479595613446E+03    0.35918E-02   -0.56019E-02  2152   0.184E+00    0.571E-01
DAV:   4    -0.479594752063E+03    0.86138E-03   -0.21936E-02  2176   0.181E+00    0.434E-01
DAV:   5    -0.479593640187E+03    0.11119E-02   -0.87564E-03  2120   0.110E+00    0.149E-01
DAV:   6    -0.479594021223E+03   -0.38104E-03   -0.25572E-03  2064   0.347E-01    0.775E-02
DAV:   7    -0.479594017046E+03    0.41771E-05   -0.71082E-04  1928   0.246E-01    0.449E-02
DAV:   8    -0.479594022552E+03   -0.55059E-05   -0.11953E-04  1608   0.807E-02    0.191E-02
DAV:   9    -0.479594051169E+03   -0.28617E-04   -0.27889E-05  1192   0.284E-02    0.845E-03
DAV:  10    -0.479594069368E+03   -0.18199E-04   -0.71872E-06   928   0.209E-02    0.428E-03
DAV:  11    -0.479594087628E+03   -0.18260E-04   -0.54435E-06   912   0.991E-03    0.202E-03
DAV:  12    -0.479594098853E+03   -0.11225E-04   -0.34082E-06   960   0.114E-02    0.160E-03
DAV:  13    -0.479594110711E+03   -0.11858E-04   -0.24296E-06   888   0.799E-03    0.119E-03
DAV:  14    -0.479594118767E+03   -0.80566E-05   -0.23432E-06   928   0.606E-03
  32 F= -.47959412E+03 E0= -.47957252E+03  d E =-.100452E+00
 curvature: -11.36 expect dE=-0.607E+00 dE for cont linesearch -0.501E-03
 trial: gam= 1.01775 g(F)=  0.503E-01 g(S)=  0.317E-02 ort = 0.383E-02 (trialstep = 0.154E+01)
 search vector abs. value=  0.407E+00
 bond charge predicted
       N       E                     dE             d eps       ncg     rms          rms(c)
DAV:   1    -0.479592329115E+03    0.17816E-02   -0.38697E+01  1472   0.155E+01    0.103E+00
DAV:   2    -0.479667526802E+03   -0.75198E-01   -0.87758E-01  2040   0.339E+00    0.746E-01
DAV:   3    -0.479663527454E+03    0.39993E-02   -0.43883E-02  2128   0.164E+00    0.497E-01
DAV:   4    -0.479662561858E+03    0.96560E-03   -0.16668E-02  2184   0.129E+00    0.369E-01
DAV:   5    -0.479661908288E+03    0.65357E-03   -0.69296E-03  2136   0.702E-01    0.997E-02
DAV:   6    -0.479662181814E+03   -0.27353E-03   -0.13646E-03  2064   0.215E-01    0.566E-02
DAV:   7    -0.479662189241E+03   -0.74264E-05   -0.37557E-04  1864   0.209E-01    0.395E-02
DAV:   8    -0.479662189261E+03   -0.19838E-07   -0.84811E-05  1368   0.105E-01
  33 F= -.47966219E+03 E0= -.47964058E+03  d E =-.680705E-01
 trial-energy change:   -0.068070  1 .order   -0.067615   -0.088427   -0.046803
 step:   3.0757(harm=  3.2765)  dis= 0.06761  next Energy=  -479.685903 (dE=-0.918E-01)
 bond charge predicted
       N       E                     dE             d eps       ncg     rms          rms(c)
DAV:   1    -0.479620329730E+03    0.41860E-01   -0.38241E+01  1472   0.154E+01    0.103E+00
DAV:   2    -0.479695316334E+03   -0.74987E-01   -0.87404E-01  2048   0.343E+00    0.750E-01
DAV:   3    -0.479691266799E+03    0.40495E-02   -0.44438E-02  2152   0.169E+00    0.501E-01
DAV:   4    -0.479690244475E+03    0.10223E-02   -0.16352E-02  2240   0.127E+00    0.369E-01
DAV:   5    -0.479689623448E+03    0.62103E-03   -0.68203E-03  2136   0.683E-01    0.996E-02
DAV:   6    -0.479689912311E+03   -0.28886E-03   -0.13491E-03  2080   0.212E-01    0.561E-02
DAV:   7    -0.479689928385E+03   -0.16074E-04   -0.36959E-04  1864   0.208E-01    0.396E-02
DAV:   8    -0.479689935465E+03   -0.70797E-05   -0.84868E-05  1336   0.106E-01
  34 F= -.47968994E+03 E0= -.47966831E+03  d E =-.958167E-01
 curvature: -11.46 expect dE=-0.423E+00 dE for cont linesearch -0.569E-03
 trial: gam= 0.72100 g(F)=  0.365E-01 g(S)=  0.387E-03 ort = 0.449E-02 (trialstep = 0.185E+01)
 search vector abs. value=  0.255E+00
 bond charge predicted
       N       E                     dE             d eps       ncg     rms          rms(c)
DAV:   1    -0.479688316410E+03    0.16120E-02   -0.33863E+01  1472   0.147E+01    0.102E+00
DAV:   2    -0.479752448007E+03   -0.64132E-01   -0.76881E-01  2032   0.352E+00    0.770E-01
DAV:   3    -0.479748405087E+03    0.40429E-02   -0.52330E-02  2128   0.191E+00    0.509E-01
DAV:   4    -0.479746953417E+03    0.14517E-02   -0.14170E-02  2224   0.118E+00    0.350E-01
DAV:   5    -0.479746727098E+03    0.22632E-03   -0.57642E-03  2080   0.556E-01    0.104E-01
DAV:   6    -0.479747001178E+03   -0.27408E-03   -0.12212E-03  2144   0.252E-01    0.561E-02
DAV:   7    -0.479747024447E+03   -0.23269E-04   -0.41862E-04  1816   0.230E-01    0.387E-02
DAV:   8    -0.479747037590E+03   -0.13143E-04   -0.75285E-05  1248   0.102E-01    0.169E-02
DAV:   9    -0.479747065483E+03   -0.27892E-04   -0.39751E-05  1368   0.218E-02    0.707E-03
DAV:  10    -0.479747080044E+03   -0.14561E-04   -0.50060E-06   936   0.111E-02    0.307E-03
DAV:  11    -0.479747093308E+03   -0.13264E-04   -0.28461E-06   888   0.839E-03    0.151E-03
DAV:  12    -0.479747103135E+03   -0.98269E-05   -0.16106E-06   936   0.768E-03
  35 F= -.47974710E+03 E0= -.47972490E+03  d E =-.571677E-01
 trial-energy change:   -0.057168  1 .order   -0.056704   -0.074174   -0.039233
 step:   3.6433(harm=  3.9251)  dis= 0.05714  next Energy=  -479.766564 (dE=-0.766E-01)
 bond charge predicted
       N       E                     dE             d eps       ncg     rms          rms(c)
DAV:   1    -0.479712718534E+03    0.34375E-01   -0.31846E+01  1472   0.143E+01    0.993E-01
DAV:   2    -0.479773161802E+03   -0.60443E-01   -0.72629E-01  2032   0.344E+00    0.752E-01
DAV:   3    -0.479769278247E+03    0.38836E-02   -0.50056E-02  2144   0.188E+00    0.495E-01
DAV:   4    -0.479767930619E+03    0.13476E-02   -0.13231E-02  2232   0.114E+00    0.340E-01
DAV:   5    -0.479767711253E+03    0.21937E-03   -0.53853E-03  2104   0.534E-01    0.103E-01
DAV:   6    -0.479767954252E+03   -0.24300E-03   -0.11338E-03  2144   0.231E-01    0.518E-02
DAV:   7    -0.479767980558E+03   -0.26306E-04   -0.38336E-04  1848   0.218E-01    0.379E-02
DAV:   8    -0.479767986027E+03   -0.54693E-05   -0.74967E-05  1200   0.106E-01
  36 F= -.47976799E+03 E0= -.47974520E+03  d E =-.780506E-01
 curvature: -12.23 expect dE=-0.734E+00 dE for cont linesearch -0.102E-03
 trial: gam= 1.67394 g(F)=  0.551E-01 g(S)=  0.487E-02 ort = 0.146E-02 (trialstep = 0.722E+00)
 search vector abs. value=  0.779E+00
 bond charge predicted
       N       E                     dE             d eps       ncg     rms          rms(c)
DAV:   1    -0.479786689428E+03   -0.18709E-01   -0.15645E+01  1472   0.100E+01    0.684E-01
DAV:   2    -0.479811949449E+03   -0.25260E-01   -0.32362E-01  2008   0.195E+00    0.460E-01
DAV:   3    -0.479810462465E+03    0.14870E-02   -0.15267E-02  2120   0.735E-01    0.291E-01
DAV:   4    -0.479810464207E+03   -0.17420E-05   -0.63753E-03  2144   0.758E-01    0.217E-01
DAV:   5    -0.479810279165E+03    0.18504E-03   -0.32670E-03  2096   0.550E-01    0.717E-02
DAV:   6    -0.479810372382E+03   -0.93217E-04   -0.52702E-04  2072   0.147E-01    0.282E-02
DAV:   7    -0.479810404313E+03   -0.31931E-04   -0.84804E-05  1408   0.761E-02    0.199E-02
DAV:   8    -0.479810415094E+03   -0.10782E-04   -0.42753E-05  1224   0.786E-02    0.120E-02
DAV:   9    -0.479810427085E+03   -0.11991E-04   -0.11817E-05   976   0.376E-02    0.457E-03
DAV:  10    -0.479810438031E+03   -0.10946E-04   -0.72292E-06   912   0.113E-02    0.254E-03
DAV:  11    -0.479810446436E+03   -0.84046E-05   -0.31450E-06   912   0.875E-03
  37 F= -.47981045E+03 E0= -.47978752E+03  d E =-.424604E-01
 ZBRENT: can't locate minimum, use default step
 trial-energy change:   -0.042460  1 .order   -0.042085   -0.045094   -0.039076
 step:   2.8891(harm=  5.4124)  dis= 0.07466  next Energy=  -479.936941 (dE=-0.169E+00)
 bond charge predicted
       N       E                     dE             d eps       ncg     rms          rms(c)
DAV:   1    -0.479682829239E+03    0.12761E+00   -0.14029E+02  1472   0.301E+01    0.246E+00
DAV:   2    -0.479914247819E+03   -0.23142E+00   -0.29669E+00  1992   0.581E+00    0.135E+00
DAV:   3    -0.479901063589E+03    0.13184E-01   -0.13314E-01  1992   0.152E+00    0.950E-01
DAV:   4    -0.479898882407E+03    0.21812E-02   -0.32413E-02  2040   0.150E+00    0.608E-01
DAV:   5    -0.479899468937E+03   -0.58653E-03   -0.26610E-02  2112   0.197E+00    0.372E-01
DAV:   6    -0.479898667134E+03    0.80180E-03   -0.10101E-02  2168   0.126E+00    0.923E-02
DAV:   7    -0.479898957302E+03   -0.29017E-03   -0.14707E-03  2000   0.194E-01    0.629E-02
DAV:   8    -0.479899018592E+03   -0.61289E-04   -0.29639E-04  1944   0.135E-01    0.384E-02
DAV:   9    -0.479899061138E+03   -0.42546E-04   -0.98468E-05  1320   0.105E-01    0.181E-02
DAV:  10    -0.479899104781E+03   -0.43643E-04   -0.25713E-05  1120   0.333E-02    0.670E-03
DAV:  11    -0.479899142082E+03   -0.37301E-04   -0.11922E-05  1016   0.145E-02    0.283E-03
DAV:  12    -0.479899173388E+03   -0.31306E-04   -0.60932E-06   904   0.131E-02    0.232E-03
DAV:  13    -0.479899189407E+03   -0.16019E-04   -0.36476E-06   960   0.114E-02    0.156E-03
DAV:  14    -0.479899205061E+03   -0.15654E-04   -0.50415E-06   976   0.838E-03    0.122E-03
DAV:  15    -0.479899214614E+03   -0.95524E-05   -0.27948E-06   968   0.674E-03
  38 F= -.47989921E+03 E0= -.47987609E+03  d E =-.131229E+00
 curvature: -23.98 expect dE=-0.130E+01 dE for cont linesearch -0.231E-01
 ZBRENT: increasing intervall
 opt :   7.2228  next Energy=  -479.901959 (dE=-0.134E+00)
 bond charge predicted
       N       E                     dE             d eps       ncg     rms          rms(c)
DAV:   1    -0.478786784834E+03    0.11124E+01   -0.55503E+02  1456   0.602E+01    0.712E+00
DAV:   2    -0.479984719741E+03   -0.11979E+01   -0.15000E+01  1984   0.150E+01    0.329E+00
DAV:   3    -0.479927529303E+03    0.57190E-01   -0.11704E+00  2192   0.926E+00    0.289E+00
DAV:   4    -0.479902523994E+03    0.25005E-01   -0.27425E-01  2184   0.504E+00    0.220E+00
DAV:   5    -0.479886631436E+03    0.15893E-01   -0.92979E-02  2112   0.275E+00    0.960E-01
DAV:   6    -0.479888601444E+03   -0.19700E-02   -0.47113E-02  2144   0.190E+00    0.366E-01
DAV:   7    -0.479888449102E+03    0.15234E-03   -0.17717E-02  2136   0.138E+00    0.237E-01
DAV:   8    -0.479888522451E+03   -0.73349E-04   -0.21406E-03  2280   0.401E-01    0.135E-01
DAV:   9    -0.479888731126E+03   -0.20868E-03   -0.74899E-04  1800   0.928E-02    0.375E-02
DAV:  10    -0.479888875865E+03   -0.14474E-03   -0.92580E-05  1824   0.641E-02    0.164E-02
DAV:  11    -0.479888982840E+03   -0.10698E-03   -0.30299E-05  1152   0.259E-02    0.691E-03
DAV:  12    -0.479889058262E+03   -0.75423E-04   -0.10622E-05   984   0.163E-02    0.370E-03
DAV:  13    -0.479889146507E+03   -0.88244E-04   -0.16314E-05  1120   0.112E-02    0.274E-03
DAV:  14    -0.479889202618E+03   -0.56112E-04   -0.81004E-06  1032   0.118E-02    0.194E-03
DAV:  15    -0.479889225838E+03   -0.23220E-04   -0.60133E-06   984   0.954E-03    0.137E-03
DAV:  16    -0.479889238316E+03   -0.12478E-04   -0.37187E-06   944   0.857E-03    0.124E-03
DAV:  17    -0.479889246956E+03   -0.86396E-05   -0.27067E-06   968   0.658E-03
  39 F= -.47988925E+03 E0= -.47986651E+03  d E =-.121261E+00
 curvature:  -2.85 expect dE=-0.699E+00 dE for cont linesearch -0.436E-02
 ZBRENT: bracketing found
 ZBRENT: interpolating
 opt :   4.8061  next Energy=  -479.925446 (dE=-0.157E+00)
 bond charge predicted
       N       E                     dE             d eps       ncg     rms          rms(c)
DAV:   1    -0.479606877504E+03    0.28236E+00   -0.17374E+02  1456   0.338E+01    0.241E+00
DAV:   2    -0.479945910667E+03   -0.33903E+00   -0.40436E+00  2000   0.646E+00    0.153E+00
DAV:   3    -0.479930910679E+03    0.15000E-01   -0.15888E-01  2120   0.151E+00    0.928E-01
DAV:   4    -0.479928563145E+03    0.23475E-02   -0.44416E-02  2192   0.184E+00    0.577E-01
DAV:   5    -0.479926761987E+03    0.18012E-02   -0.31255E-02  2112   0.176E+00    0.221E-01
DAV:   6    -0.479926997334E+03   -0.23535E-03   -0.40880E-03  2280   0.507E-01    0.964E-02
DAV:   7    -0.479927167748E+03   -0.17041E-03   -0.75988E-04  2032   0.161E-01    0.565E-02
DAV:   8    -0.479927227909E+03   -0.60162E-04   -0.33915E-04  1896   0.197E-01    0.358E-02
DAV:   9    -0.479927255505E+03   -0.27596E-04   -0.10916E-04  1272   0.135E-01    0.169E-02
DAV:  10    -0.479927286059E+03   -0.30554E-04   -0.21065E-05  1128   0.388E-02    0.770E-03
DAV:  11    -0.479927328638E+03   -0.42579E-04   -0.11523E-05   904   0.139E-02    0.258E-03
DAV:  12    -0.479927359600E+03   -0.30962E-04   -0.65623E-06   968   0.113E-02    0.207E-03
DAV:  13    -0.479927386679E+03   -0.27079E-04   -0.47960E-06   904   0.113E-02    0.197E-03
DAV:  14    -0.479927401438E+03   -0.14758E-04   -0.36277E-06   944   0.903E-03    0.954E-04
DAV:  15    -0.479927410190E+03   -0.87530E-05   -0.29734E-06   912   0.609E-03
  40 F= -.47992741E+03 E0= -.47990434E+03  d E =-.159424E+00
 curvature: -17.16 expect dE=-0.188E+01 dE for cont linesearch -0.663E-04
 trial: gam= 1.64842 g(F)=  0.107E+00 g(S)=  0.216E-02 ort = 0.173E-02 (trialstep = 0.537E+00)
 search vector abs. value=  0.223E+01
 bond charge predicted
       N       E                     dE             d eps       ncg     rms          rms(c)
DAV:   1    -0.479944477837E+03   -0.17076E-01   -0.24528E+01  1456   0.127E+01    0.921E-01
DAV:   2    -0.479985401036E+03   -0.40923E-01   -0.53495E-01  1976   0.237E+00    0.568E-01
DAV:   3    -0.479983261624E+03    0.21394E-02   -0.24570E-02  2016   0.601E-01    0.353E-01
DAV:   4    -0.479983136547E+03    0.12508E-03   -0.60114E-03  2048   0.562E-01    0.211E-01
DAV:   5    -0.479983350715E+03   -0.21417E-03   -0.40552E-03  2080   0.641E-01    0.114E-01
DAV:   6    -0.479983320814E+03    0.29901E-04   -0.10763E-03  2184   0.350E-01    0.376E-02
DAV:   7    -0.479983365061E+03   -0.44247E-04   -0.14393E-04  1424   0.886E-02    0.233E-02
DAV:   8    -0.479983379447E+03   -0.14386E-04   -0.64842E-05  1360   0.892E-02    0.154E-02
DAV:   9    -0.479983391311E+03   -0.11864E-04   -0.17053E-05  1048   0.501E-02    0.553E-03
DAV:  10    -0.479983401320E+03   -0.10010E-04   -0.55149E-06   920   0.114E-02    0.244E-03
DAV:  11    -0.479983408861E+03   -0.75407E-05   -0.25629E-06   912   0.779E-03
  41 F= -.47998341E+03 E0= -.47996056E+03  d E =-.559987E-01
 ZBRENT: can't locate minimum, use default step
 trial-energy change:   -0.055999  1 .order   -0.055884   -0.060375   -0.051393
 step:   2.1485(harm=  3.6104)  dis= 0.08868  next Energy=  -480.097010 (dE=-0.170E+00)
 bond charge predicted
       N       E                     dE             d eps       ncg     rms          rms(c)
DAV:   1    -0.479732560255E+03    0.25084E+00   -0.21988E+02  1456   0.381E+01    0.354E+00
DAV:   2    -0.480115102095E+03   -0.38254E+00   -0.49852E+00  1968   0.716E+00    0.173E+00
DAV:   3    -0.480094256825E+03    0.20845E-01   -0.21220E-01  1952   0.157E+00    0.131E+00
DAV:   4    -0.480089609911E+03    0.46469E-02   -0.37771E-02  2016   0.105E+00    0.746E-01
DAV:   5    -0.480091398004E+03   -0.17881E-02   -0.26696E-02  2128   0.188E+00    0.411E-01
DAV:   6    -0.480090209951E+03    0.11881E-02   -0.15219E-02  2144   0.150E+00    0.131E-01
DAV:   7    -0.480090473507E+03   -0.26356E-03   -0.18590E-03  2192   0.310E-01    0.732E-02
DAV:   8    -0.480090607155E+03   -0.13365E-03   -0.30745E-04  1808   0.615E-02    0.275E-02
DAV:   9    -0.480090695657E+03   -0.88503E-04   -0.68698E-05  1424   0.729E-02    0.182E-02
DAV:  10    -0.480090723686E+03   -0.28028E-04   -0.28037E-05  1136   0.545E-02    0.890E-03
DAV:  11    -0.480090764924E+03   -0.41238E-04   -0.88840E-06   936   0.163E-02    0.362E-03
DAV:  12    -0.480090814586E+03   -0.49662E-04   -0.94725E-06   984   0.128E-02    0.275E-03
DAV:  13    -0.480090835836E+03   -0.21250E-04   -0.60454E-06   984   0.132E-02    0.192E-03
DAV:  14    -0.480090861112E+03   -0.25275E-04   -0.67048E-06   968   0.844E-03    0.122E-03
DAV:  15    -0.480090871400E+03   -0.10288E-04   -0.39944E-06   960   0.822E-03    0.126E-03
DAV:  16    -0.480090876255E+03   -0.48559E-05   -0.25511E-06   952   0.695E-03
  42 F= -.48009088E+03 E0= -.48006909E+03  d E =-.163466E+00
 curvature: -27.72 expect dE=-0.225E+01 dE for cont linesearch -0.152E-01
 ZBRENT: increasing intervall
 opt :   5.3712  next Energy=  -480.007966 (dE=-0.806E-01)
 bond charge predicted
       N       E                     dE             d eps       ncg     rms          rms(c)
DAV:   1    -0.478039038095E+03    0.20518E+01   -0.86556E+02  1456   0.758E+01    0.112E+01
DAV:   2    -0.480087370509E+03   -0.20483E+01   -0.25821E+01  1976   0.181E+01    0.446E+00
DAV:   3    -0.479989901841E+03    0.97469E-01   -0.15826E+00  2224   0.953E+00    0.411E+00
DAV:   4    -0.479962842706E+03    0.27059E-01   -0.39852E-01  2160   0.554E+00    0.322E+00
DAV:   5    -0.479930950556E+03    0.31892E-01   -0.14862E-01  2160   0.347E+00    0.138E+00
DAV:   6    -0.479933508334E+03   -0.25578E-02   -0.58742E-02  1904   0.100E+00    0.314E-01
DAV:   7    -0.479934571353E+03   -0.10630E-02   -0.11533E-02  2088   0.941E-01    0.234E-01
DAV:   8    -0.479934683800E+03   -0.11245E-03   -0.31935E-03  2320   0.599E-01    0.953E-02
DAV:   9    -0.479934999089E+03   -0.31529E-03   -0.54739E-04  2024   0.160E-01    0.362E-02
DAV:  10    -0.479935196078E+03   -0.19699E-03   -0.11328E-04  1880   0.418E-02    0.168E-02
DAV:  11    -0.479935359231E+03   -0.16315E-03   -0.20906E-05  1096   0.218E-02    0.754E-03
DAV:  12    -0.479935474456E+03   -0.11523E-03   -0.14636E-05  1168   0.203E-02    0.433E-03
DAV:  13    -0.479935635131E+03   -0.16067E-03   -0.41733E-05  1416   0.152E-02    0.395E-03
DAV:  14    -0.479935685624E+03   -0.50493E-04   -0.51972E-06  1072   0.910E-03    0.221E-03
DAV:  15    -0.479935712612E+03   -0.26987E-04   -0.44501E-06   968   0.634E-03    0.141E-03
DAV:  16    -0.479935725390E+03   -0.12778E-04   -0.30771E-06   976   0.794E-03    0.140E-03
DAV:  17    -0.479935732498E+03   -0.71084E-05   -0.17997E-06   960   0.609E-03
  43 F= -.47993573E+03 E0= -.47991634E+03  d E =-.832231E-02
 curvature: 151.18 expect dE= 0.637E+02 dE for cont linesearch  0.144E+01
 ZBRENT: bracketing found
 ZBRENT: interpolating
 opt :   2.7725  next Energy=  -480.101790 (dE=-0.174E+00)
 bond charge predicted
       N       E                     dE             d eps       ncg     rms          rms(c)
DAV:   1    -0.478904588538E+03    0.10311E+01   -0.56876E+02  1464   0.622E+01    0.561E+00
DAV:   2    -0.480163420301E+03   -0.12588E+01   -0.14524E+01  1960   0.122E+01    0.293E+00
DAV:   3    -0.480130351302E+03    0.33069E-01   -0.76457E-01  2216   0.467E+00    0.220E+00
DAV:   4    -0.480125791115E+03    0.45602E-02   -0.27202E-01  2176   0.486E+00    0.166E+00
DAV:   5    -0.480099971154E+03    0.25820E-01   -0.12705E-01  2200   0.353E+00    0.516E-01
DAV:   6    -0.480102986258E+03   -0.30151E-02   -0.31779E-02  1992   0.927E-01    0.223E-01
DAV:   7    -0.480103179749E+03   -0.19349E-03   -0.60134E-03  2112   0.693E-01    0.158E-01
DAV:   8    -0.480103311272E+03   -0.13152E-03   -0.19914E-03  2232   0.466E-01    0.703E-02
DAV:   9    -0.480103501104E+03   -0.18983E-03   -0.37115E-04  1976   0.149E-01    0.287E-02
DAV:  10    -0.480103620253E+03   -0.11915E-03   -0.80341E-05  1640   0.312E-02    0.148E-02
DAV:  11    -0.480103738808E+03   -0.11856E-03   -0.99932E-06   960   0.187E-02    0.595E-03
DAV:  12    -0.480103847808E+03   -0.10900E-03   -0.11398E-05  1008   0.155E-02    0.410E-03
DAV:  13    -0.480103980756E+03   -0.13295E-03   -0.28427E-05  1248   0.121E-02    0.435E-03
DAV:  14    -0.480104014639E+03   -0.33883E-04   -0.34303E-06   968   0.724E-03    0.258E-03
DAV:  15    -0.480104047036E+03   -0.32396E-04   -0.29174E-06   960   0.496E-03    0.132E-03
DAV:  16    -0.480104065125E+03   -0.18090E-04   -0.14462E-06   968   0.642E-03    0.103E-03
DAV:  17    -0.480104076582E+03   -0.11457E-04   -0.89845E-07   928   0.489E-03    0.649E-04
DAV:  18    -0.480104084298E+03   -0.77159E-05   -0.68981E-07   936   0.348E-03
  44 F= -.48010408E+03 E0= -.48008279E+03  d E =-.176674E+00
 curvature:  -1.15 expect dE=-0.123E+00 dE for cont linesearch -0.228E-04
 trial: gam= 0.65251 g(F)=  0.104E+00 g(S)=  0.326E-02 ort = 0.666E-02 (trialstep = 0.984E+00)
 search vector abs. value=  0.107E+01
 bond charge predicted
       N       E                     dE             d eps       ncg     rms          rms(c)
DAV:   1    -0.480135433059E+03   -0.31356E-01   -0.38679E+01  1456   0.163E+01    0.127E+00
DAV:   2    -0.480202555117E+03   -0.67122E-01   -0.90335E-01  1984   0.314E+00    0.739E-01
DAV:   3    -0.480199479952E+03    0.30752E-02   -0.53967E-02  2184   0.150E+00    0.523E-01
DAV:   4    -0.480198797713E+03    0.68224E-03   -0.19614E-02  2144   0.129E+00    0.334E-01
DAV:   5    -0.480198406654E+03    0.39106E-03   -0.70132E-03  2200   0.835E-01    0.131E-01
DAV:   6    -0.480198690569E+03   -0.28391E-03   -0.14649E-03  2040   0.213E-01    0.459E-02
DAV:   7    -0.480198743661E+03   -0.53092E-04   -0.30372E-04  1792   0.166E-01    0.349E-02
DAV:   8    -0.480198756967E+03   -0.13306E-04   -0.11500E-04  1304   0.125E-01    0.164E-02
DAV:   9    -0.480198783099E+03   -0.26133E-04   -0.20640E-05  1112   0.396E-02    0.527E-03
DAV:  10    -0.480198802021E+03   -0.18921E-04   -0.92192E-06   928   0.125E-02    0.243E-03
DAV:  11    -0.480198817681E+03   -0.15661E-04   -0.43532E-06   920   0.109E-02    0.166E-03
DAV:  12    -0.480198829044E+03   -0.11363E-04   -0.28956E-06   912   0.852E-03    0.975E-04
DAV:  13    -0.480198837007E+03   -0.79628E-05   -0.22097E-06   936   0.614E-03
  45 F= -.48019884E+03 E0= -.48017753E+03  d E =-.947527E-01
 trial-energy change:   -0.094753  1 .order   -0.094816   -0.109998   -0.079635
 step:   3.5655(harm=  3.5655)  dis= 0.09983  next Energy=  -480.303331 (dE=-0.199E+00)
 bond charge predicted
       N       E                     dE             d eps       ncg     rms          rms(c)
DAV:   1    -0.479852898669E+03    0.34593E+00   -0.26483E+02  1440   0.425E+01    0.420E+00
DAV:   2    -0.480330425608E+03   -0.47753E+00   -0.64194E+00  1944   0.827E+00    0.199E+00
DAV:   3    -0.480310703838E+03    0.19722E-01   -0.40481E-01  2216   0.396E+00    0.163E+00
DAV:   4    -0.480304591484E+03    0.61124E-02   -0.11756E-01  2192   0.313E+00    0.116E+00
DAV:   5    -0.480298382749E+03    0.62087E-02   -0.47322E-02  2128   0.224E+00    0.503E-01
DAV:   6    -0.480299673991E+03   -0.12912E-02   -0.15812E-02  2032   0.776E-01    0.142E-01
DAV:   7    -0.480299966761E+03   -0.29277E-03   -0.35092E-03  2104   0.551E-01    0.107E-01
DAV:   8    -0.480300027883E+03   -0.61122E-04   -0.89832E-04  2216   0.311E-01    0.496E-02
DAV:   9    -0.480300160158E+03   -0.13228E-03   -0.15483E-04  1704   0.798E-02    0.193E-02
DAV:  10    -0.480300245334E+03   -0.85176E-04   -0.33064E-05  1248   0.265E-02    0.812E-03
DAV:  11    -0.480300318393E+03   -0.73059E-04   -0.11436E-05   960   0.155E-02    0.358E-03
DAV:  12    -0.480300378913E+03   -0.60519E-04   -0.11078E-05  1088   0.146E-02    0.272E-03
DAV:  13    -0.480300437560E+03   -0.58647E-04   -0.13056E-05  1104   0.125E-02    0.203E-03
DAV:  14    -0.480300473678E+03   -0.36118E-04   -0.82048E-06  1040   0.898E-03    0.126E-03
DAV:  15    -0.480300486953E+03   -0.13275E-04   -0.39908E-06   960   0.737E-03    0.100E-03
DAV:  16    -0.480300492329E+03   -0.53762E-05   -0.23573E-06   968   0.641E-03
  46 F= -.48030049E+03 E0= -.48027940E+03  d E =-.196408E+00
 curvature: -17.00 expect dE=-0.196E+01 dE for cont linesearch -0.155E-03
 trial: gam= 0.99282 g(F)=  0.114E+00 g(S)=  0.895E-03 ort =-0.312E-02 (trialstep = 0.138E+01)
 search vector abs. value=  0.116E+01
 bond charge predicted
       N       E                     dE             d eps       ncg     rms          rms(c)
DAV:   1    -0.480284414400E+03    0.16073E-01   -0.82620E+01  1472   0.240E+01    0.202E+00
DAV:   2    -0.480423927134E+03   -0.13951E+00   -0.19289E+00  2024   0.456E+00    0.111E+00
DAV:   3    -0.480415508450E+03    0.84187E-02   -0.11455E-01  2208   0.223E+00    0.810E-01
DAV:   4    -0.480413734141E+03    0.17743E-02   -0.41405E-02  2152   0.185E+00    0.533E-01
DAV:   5    -0.480412394415E+03    0.13397E-02   -0.15240E-02  2200   0.129E+00    0.225E-01
DAV:   6    -0.480412986279E+03   -0.59186E-03   -0.39136E-03  2056   0.376E-01    0.717E-02
DAV:   7    -0.480413088978E+03   -0.10270E-03   -0.85756E-04  2080   0.283E-01    0.559E-02
DAV:   8    -0.480413115416E+03   -0.26438E-04   -0.25916E-04  1552   0.177E-01    0.245E-02
DAV:   9    -0.480413169811E+03   -0.54395E-04   -0.40158E-05  1224   0.459E-02    0.746E-03
DAV:  10    -0.480413203276E+03   -0.33465E-04   -0.13540E-05  1000   0.144E-02    0.364E-03
DAV:  11    -0.480413232320E+03   -0.29044E-04   -0.60898E-06   960   0.106E-02    0.206E-03
DAV:  12    -0.480413255164E+03   -0.22844E-04   -0.41096E-06   976   0.101E-02    0.149E-03
DAV:  13    -0.480413270668E+03   -0.15504E-04   -0.34362E-06   936   0.789E-03    0.135E-03
DAV:  14    -0.480413284721E+03   -0.14053E-04   -0.36340E-06  1016   0.805E-03    0.128E-03
DAV:  15    -0.480413290950E+03   -0.62295E-05   -0.26738E-06   960   0.660E-03
  47 F= -.48041329E+03 E0= -.48039306E+03  d E =-.112799E+00
 trial-energy change:   -0.112799  1 .order   -0.112658   -0.154714   -0.070602
 step:   2.5366(harm=  2.5366)  dis= 0.08212  next Energy=  -480.442781 (dE=-0.142E+00)
 bond charge predicted
       N       E                     dE             d eps       ncg     rms          rms(c)
DAV:   1    -0.480351229326E+03    0.62055E-01   -0.58192E+01  1472   0.202E+01    0.166E+00
DAV:   2    -0.480449377001E+03   -0.98148E-01   -0.13484E+00  2016   0.385E+00    0.933E-01
DAV:   3    -0.480443882108E+03    0.54949E-02   -0.81831E-02  2208   0.193E+00    0.678E-01
DAV:   4    -0.480442508012E+03    0.13741E-02   -0.30064E-02  2176   0.159E+00    0.440E-01
DAV:   5    -0.480441607206E+03    0.90081E-03   -0.10281E-02  2184   0.103E+00    0.175E-01
DAV:   6    -0.480442093821E+03   -0.48661E-03   -0.26114E-03  2072   0.317E-01    0.668E-02
DAV:   7    -0.480442145594E+03   -0.51773E-04   -0.67180E-04  2016   0.264E-01    0.471E-02
DAV:   8    -0.480442175251E+03   -0.29657E-04   -0.16308E-04  1400   0.137E-01    0.183E-02
DAV:   9    -0.480442221821E+03   -0.46570E-04   -0.32798E-05  1296   0.294E-02    0.539E-03
DAV:  10    -0.480442248899E+03   -0.27078E-04   -0.80801E-06   936   0.117E-02    0.298E-03
DAV:  11    -0.480442274150E+03   -0.25251E-04   -0.47862E-06  1000   0.898E-03    0.177E-03
DAV:  12    -0.480442298653E+03   -0.24503E-04   -0.37917E-06   984   0.817E-03    0.126E-03
DAV:  13    -0.480442316409E+03   -0.17756E-04   -0.33361E-06   992   0.708E-03    0.116E-03
DAV:  14    -0.480442326484E+03   -0.10075E-04   -0.27735E-06   976   0.717E-03    0.105E-03
DAV:  15    -0.480442332501E+03   -0.60175E-05   -0.21953E-06   960   0.573E-03
  48 F= -.48044233E+03 E0= -.48042262E+03  d E =-.141840E+00
 curvature: -13.11 expect dE=-0.117E+01 dE for cont linesearch -0.273E-04
 trial: gam= 0.66076 g(F)=  0.869E-01 g(S)=  0.271E-02 ort =-0.156E-02 (trialstep = 0.161E+01)
 search vector abs. value=  0.594E+00
 bond charge predicted
       N       E                     dE             d eps       ncg     rms          rms(c)
DAV:   1    -0.480467590026E+03   -0.25264E-01   -0.57749E+01  1472   0.202E+01    0.156E+00
DAV:   2    -0.480556558423E+03   -0.88968E-01   -0.11796E+00  2032   0.338E+00    0.913E-01
DAV:   3    -0.480549926759E+03    0.66317E-02   -0.50412E-02  2032   0.793E-01    0.593E-01
DAV:   4    -0.480549024169E+03    0.90259E-03   -0.97441E-03  1992   0.614E-01    0.315E-01
DAV:   5    -0.480549700347E+03   -0.67618E-03   -0.77753E-03  2128   0.868E-01    0.180E-01
DAV:   6    -0.480549467662E+03    0.23269E-03   -0.26426E-03  2160   0.552E-01    0.503E-02
DAV:   7    -0.480549550474E+03   -0.82812E-04   -0.29392E-04  1768   0.717E-02    0.294E-02
DAV:   8    -0.480549604577E+03   -0.54103E-04   -0.66306E-05  1224   0.795E-02    0.194E-02
DAV:   9    -0.480549631619E+03   -0.27042E-04   -0.39892E-05  1216   0.745E-02    0.790E-03
DAV:  10    -0.480549659544E+03   -0.27925E-04   -0.74534E-06   944   0.233E-02    0.358E-03
DAV:  11    -0.480549695605E+03   -0.36061E-04   -0.92190E-06   992   0.103E-02    0.194E-03
DAV:  12    -0.480549729794E+03   -0.34189E-04   -0.63754E-06   976   0.102E-02    0.186E-03
DAV:  13    -0.480549745164E+03   -0.15370E-04   -0.42484E-06   976   0.960E-03    0.155E-03
DAV:  14    -0.480549756061E+03   -0.10897E-04   -0.35907E-06   960   0.744E-03    0.104E-03
DAV:  15    -0.480549763311E+03   -0.72496E-05   -0.29698E-06   976   0.641E-03
  49 F= -.48054976E+03 E0= -.48053019E+03  d E =-.107431E+00
 trial-energy change:   -0.107431  1 .order   -0.107348   -0.142681   -0.072015
 step:   3.2519(harm=  3.2519)  dis= 0.07647  next Energy=  -480.586376 (dE=-0.144E+00)
 bond charge predicted
       N       E                     dE             d eps       ncg     rms          rms(c)
DAV:   1    -0.480500322899E+03    0.49433E-01   -0.59893E+01  1472   0.206E+01    0.161E+00
DAV:   2    -0.480592279158E+03   -0.91956E-01   -0.12212E+00  2032   0.344E+00    0.928E-01
DAV:   3    -0.480585548271E+03    0.67309E-02   -0.51612E-02  2032   0.794E-01    0.608E-01
DAV:   4    -0.480584622475E+03    0.92580E-03   -0.93605E-03  1984   0.594E-01    0.320E-01
DAV:   5    -0.480585374806E+03   -0.75233E-03   -0.79417E-03  2128   0.878E-01    0.187E-01
DAV:   6    -0.480585079490E+03    0.29532E-03   -0.27554E-03  2144   0.571E-01    0.505E-02
DAV:   7    -0.480585166808E+03   -0.87318E-04   -0.31507E-04  1792   0.655E-02    0.292E-02
DAV:   8    -0.480585230153E+03   -0.63345E-04   -0.61462E-05  1312   0.734E-02    0.184E-02
[...]
DAV:   7    -0.481366985337E+03    0.14431E-04   -0.57961E-04  1912   0.262E-01    0.396E-02
DAV:   8    -0.481367002509E+03   -0.17172E-04   -0.83421E-05  1384   0.853E-02    0.164E-02
DAV:   9    -0.481367036689E+03   -0.34180E-04   -0.32523E-05  1280   0.246E-02    0.586E-03
DAV:  10    -0.481367056035E+03   -0.19346E-04   -0.55774E-06   960   0.159E-02    0.291E-03
DAV:  11    -0.481367083946E+03   -0.27911E-04   -0.62993E-06   992   0.806E-03    0.160E-03
DAV:  12    -0.481367097868E+03   -0.13922E-04   -0.26209E-06   984   0.816E-03    0.117E-03
DAV:  13    -0.481367112892E+03   -0.15024E-04   -0.31475E-06   952   0.560E-03    0.938E-04
DAV:  14    -0.481367119344E+03   -0.64520E-05   -0.19445E-06   976   0.730E-03
  65 F= -.48136712E+03 E0= -.48134611E+03  d E =-.685960E-01
 trial-energy change:   -0.068596  1 .order   -0.068624   -0.085500   -0.051747
 step:   3.1692(harm=  3.1692)  dis= 0.07190  next Energy=  -481.406814 (dE=-0.108E+00)
 bond charge predicted
       N       E                     dE             d eps       ncg     rms          rms(c)
DAV:   1    -0.481218281485E+03    0.14883E+00   -0.11313E+02  1472   0.286E+01    0.206E+00
DAV:   2    -0.481420692926E+03   -0.20241E+00   -0.24980E+00  2048   0.650E+00    0.135E+00
DAV:   3    -0.481410765105E+03    0.99278E-02   -0.17942E-01  2248   0.355E+00    0.992E-01
DAV:   4    -0.481405768708E+03    0.49964E-02   -0.48687E-02  2216   0.236E+00    0.672E-01
DAV:   5    -0.481404772971E+03    0.99574E-03   -0.16125E-02  2072   0.112E+00    0.249E-01
DAV:   6    -0.481405989558E+03   -0.12166E-02   -0.67371E-03  2128   0.777E-01    0.150E-01
DAV:   7    -0.481405839206E+03    0.15035E-03   -0.22050E-03  2232   0.539E-01    0.606E-02
DAV:   8    -0.481405899779E+03   -0.60573E-04   -0.20835E-04  1768   0.955E-02    0.259E-02
DAV:   9    -0.481405976993E+03   -0.77213E-04   -0.55641E-05  1560   0.261E-02    0.984E-03
DAV:  10    -0.481406011849E+03   -0.34856E-04   -0.52755E-06   984   0.171E-02    0.552E-03
DAV:  11    -0.481406067651E+03   -0.55802E-04   -0.94054E-06  1016   0.982E-03    0.252E-03
DAV:  12    -0.481406103636E+03   -0.35986E-04   -0.50762E-06   984   0.119E-02    0.217E-03
DAV:  13    -0.481406131681E+03   -0.28045E-04   -0.58316E-06  1008   0.876E-03    0.142E-03
DAV:  14    -0.481406149316E+03   -0.17635E-04   -0.46235E-06   984   0.947E-03    0.142E-03
DAV:  15    -0.481406157850E+03   -0.85340E-05   -0.40208E-06   976   0.738E-03
  66 F= -.48140616E+03 E0= -.48138408E+03  d E =-.107635E+00
 curvature: -19.44 expect dE=-0.130E+01 dE for cont linesearch -0.234E-04
 trial: gam= 0.83111 g(F)=  0.666E-01 g(S)=  0.269E-03 ort =-0.100E-02 (trialstep = 0.163E+01)
 search vector abs. value=  0.644E+00
 bond charge predicted
       N       E                     dE             d eps       ncg     rms          rms(c)
DAV:   1    -0.481384043798E+03    0.22106E-01   -0.63142E+01  1472   0.213E+01    0.144E+00
DAV:   2    -0.481493054040E+03   -0.10901E+00   -0.13259E+00  2040   0.451E+00    0.954E-01
DAV:   3    -0.481488308198E+03    0.47458E-02   -0.78613E-02  2240   0.237E+00    0.680E-01
DAV:   4    -0.481486708462E+03    0.15997E-02   -0.29117E-02  2176   0.186E+00    0.475E-01
DAV:   5    -0.481485930351E+03    0.77811E-03   -0.96327E-03  2144   0.103E+00    0.150E-01
DAV:   6    -0.481486560570E+03   -0.63022E-03   -0.26900E-03  2072   0.368E-01    0.811E-02
DAV:   7    -0.481486547569E+03    0.13001E-04   -0.66447E-04  2000   0.275E-01    0.456E-02
DAV:   8    -0.481486568870E+03   -0.21301E-04   -0.11108E-04  1616   0.928E-02    0.181E-02
DAV:   9    -0.481486608097E+03   -0.39226E-04   -0.26457E-05  1176   0.245E-02    0.642E-03
DAV:  10    -0.481486632590E+03   -0.24494E-04   -0.67372E-06  1000   0.185E-02    0.316E-03
DAV:  11    -0.481486667983E+03   -0.35392E-04   -0.71642E-06   984   0.952E-03    0.211E-03
DAV:  12    -0.481486688550E+03   -0.20567E-04   -0.40077E-06   976   0.121E-02    0.165E-03
DAV:  13    -0.481486710838E+03   -0.22288E-04   -0.45755E-06   992   0.802E-03    0.129E-03
DAV:  14    -0.481486720287E+03   -0.94494E-05   -0.34610E-06   984   0.874E-03
  67 F= -.48148672E+03 E0= -.48146435E+03  d E =-.805624E-01
 trial-energy change:   -0.080562  1 .order   -0.080415   -0.107878   -0.052952
 step:   3.2107(harm=  3.2107)  dis= 0.06704  next Energy=  -481.512098 (dE=-0.106E+00)
 bond charge predicted
       N       E                     dE             d eps       ncg     rms          rms(c)
DAV:   1    -0.481416637074E+03    0.70074E-01   -0.58704E+01  1472   0.205E+01    0.139E+00
DAV:   2    -0.481517180912E+03   -0.10054E+00   -0.12257E+00  2048   0.432E+00    0.917E-01
DAV:   3    -0.481512816474E+03    0.43644E-02   -0.71519E-02  2264   0.228E+00    0.654E-01
DAV:   4    -0.481511472722E+03    0.13438E-02   -0.27516E-02  2192   0.182E+00    0.463E-01
DAV:   5    -0.481510688805E+03    0.78392E-03   -0.90532E-03  2128   0.102E+00    0.145E-01
DAV:   6    -0.481511279819E+03   -0.59101E-03   -0.23900E-03  2032   0.307E-01    0.724E-02
DAV:   7    -0.481511281391E+03   -0.15727E-05   -0.54974E-04  2032   0.243E-01    0.447E-02
DAV:   8    -0.481511300585E+03   -0.19194E-04   -0.10914E-04  1560   0.986E-02    0.175E-02
DAV:   9    -0.481511339447E+03   -0.38862E-04   -0.24347E-05  1144   0.254E-02    0.621E-03
DAV:  10    -0.481511364891E+03   -0.25444E-04   -0.72803E-06   976   0.189E-02    0.307E-03
DAV:  11    -0.481511400641E+03   -0.35750E-04   -0.74536E-06  1008   0.104E-02    0.216E-03
DAV:  12    -0.481511421688E+03   -0.21047E-04   -0.43425E-06   984   0.125E-02    0.164E-03
DAV:  13    -0.481511443706E+03   -0.22018E-04   -0.48294E-06   984   0.841E-03    0.136E-03
DAV:  14    -0.481511453002E+03   -0.92959E-05   -0.36844E-06   984   0.891E-03
  68 F= -.48151145E+03 E0= -.48148889E+03  d E =-.105295E+00
 curvature: -15.67 expect dE=-0.102E+01 dE for cont linesearch -0.321E-04
 trial: gam= 0.90582 g(F)=  0.639E-01 g(S)=  0.116E-02 ort =-0.115E-02 (trialstep = 0.195E+01)
 search vector abs. value=  0.592E+00
 bond charge predicted
       N       E                     dE             d eps       ncg     rms          rms(c)
DAV:   1    -0.481462658098E+03    0.48786E-01   -0.83404E+01  1472   0.243E+01    0.172E+00
DAV:   2    -0.481609445776E+03   -0.14679E+00   -0.17880E+00  2048   0.539E+00    0.115E+00
DAV:   3    -0.481601923857E+03    0.75219E-02   -0.11867E-01  2264   0.299E+00    0.827E-01
DAV:   4    -0.481598604393E+03    0.33195E-02   -0.36165E-02  2168   0.201E+00    0.563E-01
DAV:   5    -0.481597694331E+03    0.91006E-03   -0.12040E-02  2064   0.102E+00    0.189E-01
DAV:   6    -0.481598473017E+03   -0.77869E-03   -0.42114E-03  2112   0.579E-01    0.114E-01
DAV:   7    -0.481598416172E+03    0.56845E-04   -0.12051E-03  2112   0.394E-01    0.533E-02
DAV:   8    -0.481598461462E+03   -0.45291E-04   -0.13774E-04  1720   0.847E-02    0.207E-02
DAV:   9    -0.481598514740E+03   -0.53278E-04   -0.29080E-05  1216   0.243E-02    0.735E-03
DAV:  10    -0.481598543350E+03   -0.28610E-04   -0.75342E-06   992   0.179E-02    0.390E-03
DAV:  11    -0.481598583311E+03   -0.39961E-04   -0.65700E-06   984   0.923E-03    0.220E-03
DAV:  12    -0.481598608961E+03   -0.25650E-04   -0.45274E-06   984   0.122E-02    0.191E-03
DAV:  13    -0.481598633543E+03   -0.24582E-04   -0.46969E-06  1000   0.822E-03    0.117E-03
DAV:  14    -0.481598646482E+03   -0.12939E-04   -0.41794E-06   984   0.818E-03    0.134E-03
DAV:  15    -0.481598650983E+03   -0.45013E-05   -0.29572E-06   976   0.712E-03
  69 F= -.48159865E+03 E0= -.48157542E+03  d E =-.871980E-01
 trial-energy change:   -0.087198  1 .order   -0.087107   -0.124752   -0.049463
 step:   3.2310(harm=  3.2310)  dis= 0.06585  next Energy=  -481.614808 (dE=-0.103E+00)
 bond charge predicted
       N       E                     dE             d eps       ncg     rms          rms(c)
DAV:   1    -0.481559334659E+03    0.39312E-01   -0.36020E+01  1472   0.160E+01    0.107E+00
DAV:   2    -0.481618239484E+03   -0.58905E-01   -0.72457E-01  2064   0.325E+00    0.709E-01
DAV:   3    -0.481615490438E+03    0.27490E-02   -0.39489E-02  2240   0.165E+00    0.499E-01
DAV:   4    -0.481614959656E+03    0.53078E-03   -0.16890E-02  2192   0.141E+00    0.362E-01
DAV:   5    -0.481614439875E+03    0.51978E-03   -0.57388E-03  2136   0.821E-01    0.109E-01
DAV:   6    -0.481614766810E+03   -0.32694E-03   -0.14098E-03  2040   0.224E-01    0.549E-02
DAV:   7    -0.481614772451E+03   -0.56410E-05   -0.30847E-04  1784   0.183E-01    0.356E-02
DAV:   8    -0.481614786027E+03   -0.13575E-04   -0.71628E-05  1352   0.835E-02    0.130E-02
DAV:   9    -0.481614810580E+03   -0.24553E-04   -0.14984E-05   968   0.224E-02    0.488E-03
DAV:  10    -0.481614828111E+03   -0.17531E-04   -0.80693E-06   968   0.167E-02    0.268E-03
DAV:  11    -0.481614847843E+03   -0.19732E-04   -0.51129E-06   984   0.124E-02    0.207E-03
DAV:  12    -0.481614862761E+03   -0.14918E-04   -0.36576E-06   976   0.110E-02    0.122E-03
DAV:  13    -0.481614873604E+03   -0.10843E-04   -0.35505E-06   976   0.715E-03    0.141E-03
DAV:  14    -0.481614880349E+03   -0.67452E-05   -0.29218E-06  1000   0.772E-03
  70 F= -.48161488E+03 E0= -.48159127E+03  d E =-.103427E+00
 curvature: -14.94 expect dE=-0.970E+00 dE for cont linesearch -0.112E-05
 trial: gam= 0.93251 g(F)=  0.648E-01 g(S)=  0.118E-03 ort =-0.211E-03 (trialstep = 0.221E+01)
 search vector abs. value=  0.579E+00
 bond charge predicted
       N       E                     dE             d eps       ncg     rms          rms(c)
DAV:   1    -0.481536343585E+03    0.78530E-01   -0.10615E+02  1440   0.274E+01    0.199E+00
DAV:   2    -0.481722942894E+03   -0.18660E+00   -0.23092E+00  2064   0.615E+00    0.130E+00
DAV:   3    -0.481714101606E+03    0.88413E-02   -0.17079E-01  2256   0.382E+00    0.965E-01
DAV:   4    -0.481708982017E+03    0.51196E-02   -0.50189E-02  2248   0.245E+00    0.656E-01
DAV:   5    -0.481707221020E+03    0.17610E-02   -0.15151E-02  2120   0.115E+00    0.220E-01
DAV:   6    -0.481708106104E+03   -0.88508E-03   -0.44304E-03  2040   0.397E-01    0.970E-02
DAV:   7    -0.481708130519E+03   -0.24415E-04   -0.97654E-04  2192   0.322E-01    0.616E-02
DAV:   8    -0.481708171122E+03   -0.40603E-04   -0.18543E-04  1728   0.122E-01    0.251E-02
DAV:   9    -0.481708234741E+03   -0.63618E-04   -0.43331E-05  1392   0.276E-02    0.934E-03
DAV:  10    -0.481708269729E+03   -0.34989E-04   -0.78222E-06   992   0.174E-02    0.506E-03
DAV:  11    -0.481708314529E+03   -0.44800E-04   -0.86146E-06  1000   0.101E-02    0.236E-03
DAV:  12    -0.481708342803E+03   -0.28273E-04   -0.48696E-06   984   0.120E-02    0.177E-03
DAV:  13    -0.481708372617E+03   -0.29815E-04   -0.61039E-06  1024   0.943E-03    0.146E-03
DAV:  14    -0.481708387789E+03   -0.15172E-04   -0.46123E-06   984   0.920E-03    0.123E-03
DAV:  15    -0.481708394497E+03   -0.67072E-05   -0.34672E-06   968   0.752E-03
  71 F= -.48170839E+03 E0= -.48168437E+03  d E =-.935141E-01
 trial-energy change:   -0.093514  1 .order   -0.093297   -0.142852   -0.043741
 step:   3.1798(harm=  3.1798)  dis= 0.07581  next Energy=  -481.717829 (dE=-0.103E+00)
 bond charge predicted
       N       E                     dE             d eps       ncg     rms          rms(c)
DAV:   1    -0.481687823825E+03    0.20564E-01   -0.20720E+01  1472   0.121E+01    0.782E-01
DAV:   2    -0.481719713180E+03   -0.31889E-01   -0.40267E-01  2064   0.233E+00    0.520E-01
DAV:   3    -0.481718121293E+03    0.15919E-02   -0.20033E-02  2208   0.114E+00    0.345E-01
DAV:   4    -0.481718162165E+03   -0.40872E-04   -0.98447E-03  2232   0.120E+00    0.268E-01
DAV:   5    -0.481717747521E+03    0.41464E-03   -0.40182E-03  2192   0.764E-01    0.779E-02
DAV:   6    -0.481717912713E+03   -0.16519E-03   -0.77259E-04  2104   0.178E-01    0.444E-02
DAV:   7    -0.481717908734E+03    0.39790E-05   -0.20489E-04  1600   0.135E-01    0.263E-02
DAV:   8    -0.481717917736E+03   -0.90024E-05   -0.36224E-05  1144   0.549E-02
  72 F= -.48171792E+03 E0= -.48169374E+03  d E =-.103037E+00
 curvature: -14.21 expect dE=-0.903E+00 dE for cont linesearch -0.450E-04
 trial: gam= 0.92826 g(F)=  0.630E-01 g(S)=  0.548E-03 ort =-0.135E-02 (trialstep = 0.240E+01)
 search vector abs. value=  0.560E+00
 bond charge predicted
       N       E                     dE             d eps       ncg     rms          rms(c)
DAV:   1    -0.481624005290E+03    0.93903E-01   -0.11912E+02  1456   0.290E+01    0.218E+00
DAV:   2    -0.481827803785E+03   -0.20380E+00   -0.24996E+00  2056   0.626E+00    0.138E+00
DAV:   3    -0.481817324084E+03    0.10480E-01   -0.17683E-01  2272   0.394E+00    0.103E+00
DAV:   4    -0.481812454094E+03    0.48700E-02   -0.58295E-02  2208   0.266E+00    0.718E-01
DAV:   5    -0.481810038376E+03    0.24157E-02   -0.17659E-02  2152   0.129E+00    0.232E-01
DAV:   6    -0.481811006200E+03   -0.96782E-03   -0.46745E-03  1912   0.263E-01    0.879E-02
DAV:   7    -0.481811078010E+03   -0.71809E-04   -0.75748E-04  2096   0.254E-01    0.628E-02
DAV:   8    -0.481811109258E+03   -0.31248E-04   -0.22861E-04  1656   0.155E-01    0.269E-02
DAV:   9    -0.481811168101E+03   -0.58843E-04   -0.50305E-05  1304   0.484E-02    0.100E-02
DAV:  10    -0.481811205671E+03   -0.37570E-04   -0.14485E-05  1032   0.181E-02    0.525E-03
DAV:  11    -0.481811245799E+03   -0.40128E-04   -0.79902E-06  1000   0.119E-02    0.259E-03
DAV:  12    -0.481811278121E+03   -0.32323E-04   -0.58465E-06   984   0.127E-02    0.206E-03
DAV:  13    -0.481811301195E+03   -0.23074E-04   -0.44614E-06  1016   0.110E-02    0.140E-03
DAV:  14    -0.481811321679E+03   -0.20484E-04   -0.63815E-06   992   0.753E-03    0.110E-03
DAV:  15    -0.481811327663E+03   -0.59842E-05   -0.32305E-06   992   0.812E-03
  73 F= -.48181133E+03 E0= -.48178700E+03  d E =-.934099E-01
 trial-energy change:   -0.093410  1 .order   -0.091657   -0.149576   -0.033738
 step:   3.0283(harm=  3.1001)  dis= 0.08213  next Energy=  -481.815767 (dE=-0.978E-01)
 bond charge predicted
       N       E                     dE             d eps       ncg     rms          rms(c)
DAV:   1    -0.481803921036E+03    0.74006E-02   -0.81548E+00  1456   0.760E+00    0.486E-01
DAV:   2    -0.481816808473E+03   -0.12887E-01   -0.15953E-01  2072   0.140E+00    0.334E-01
DAV:   3    -0.481816072719E+03    0.73575E-03   -0.69376E-03  2200   0.611E-01    0.214E-01
DAV:   4    -0.481816144978E+03   -0.72259E-04   -0.34952E-03  2216   0.611E-01    0.164E-01
DAV:   5    -0.481816008882E+03    0.13610E-03   -0.14563E-03  2096   0.397E-01    0.424E-02
DAV:   6    -0.481816072917E+03   -0.64035E-04   -0.26350E-04  1904   0.693E-02    0.227E-02
DAV:   7    -0.481816075530E+03   -0.26129E-05   -0.49969E-05  1240   0.746E-02
  74 F= -.48181608E+03 E0= -.48179171E+03  d E =-.981578E-01
 curvature: -13.78 expect dE=-0.712E+00 dE for cont linesearch -0.210E-05
 trial: gam= 0.76802 g(F)=  0.507E-01 g(S)=  0.917E-03 ort = 0.292E-03 (trialstep = 0.253E+01)
 search vector abs. value=  0.382E+00
 bond charge predicted
       N       E                     dE             d eps       ncg     rms          rms(c)
DAV:   1    -0.481753751164E+03    0.62322E-01   -0.89495E+01  1456   0.252E+01    0.186E+00
DAV:   2    -0.481908808316E+03   -0.15506E+00   -0.18782E+00  2048   0.505E+00    0.118E+00
DAV:   3    -0.481899916562E+03    0.88918E-02   -0.10686E-01  2216   0.259E+00    0.850E-01
DAV:   4    -0.481898170134E+03    0.17464E-02   -0.40218E-02  2248   0.207E+00    0.641E-01
DAV:   5    -0.481895944814E+03    0.22253E-02   -0.15150E-02  2096   0.122E+00    0.214E-01
DAV:   6    -0.481896786088E+03   -0.84127E-03   -0.51561E-03  2088   0.576E-01    0.120E-01
DAV:   7    -0.481896737334E+03    0.48755E-04   -0.14186E-03  2184   0.396E-01    0.617E-02
DAV:   8    -0.481896771990E+03   -0.34656E-04   -0.15899E-04  1712   0.971E-02    0.254E-02
DAV:   9    -0.481896822199E+03   -0.50210E-04   -0.45893E-05  1368   0.343E-02    0.924E-03
DAV:  10    -0.481896845067E+03   -0.22867E-04   -0.87414E-06   984   0.161E-02    0.559E-03
DAV:  11    -0.481896875773E+03   -0.30706E-04   -0.68491E-06   960   0.852E-03    0.237E-03
DAV:  12    -0.481896901414E+03   -0.25641E-04   -0.35298E-06   976   0.930E-03    0.144E-03
DAV:  13    -0.481896920934E+03   -0.19521E-04   -0.33599E-06  1000   0.712E-03    0.131E-03
DAV:  14    -0.481896935220E+03   -0.14286E-04   -0.29757E-06   976   0.801E-03    0.109E-03
DAV:  15    -0.481896941843E+03   -0.66226E-05   -0.25635E-06   976   0.606E-03
  75 F= -.48189694E+03 E0= -.48187221E+03  d E =-.808663E-01
 trial-energy change:   -0.080866  1 .order   -0.080025   -0.130986   -0.029064
 step:   3.2042(harm=  3.2468)  dis= 0.07720  next Energy=  -481.900857 (dE=-0.848E-01)
 bond charge predicted
       N       E                     dE             d eps       ncg     rms          rms(c)
DAV:   1    -0.481892013174E+03    0.49220E-02   -0.64638E+00  1456   0.676E+00    0.434E-01
DAV:   2    -0.481901473917E+03   -0.94607E-02   -0.11906E-01  2048   0.117E+00    0.289E-01
DAV:   3    -0.481900949608E+03    0.52431E-03   -0.49720E-03  2184   0.413E-01    0.182E-01
DAV:   4    -0.481901111669E+03   -0.16206E-03   -0.25056E-03  2216   0.528E-01    0.144E-01
DAV:   5    -0.481900960022E+03    0.15165E-03   -0.13875E-03  2160   0.439E-01    0.431E-02
DAV:   6    -0.481901002153E+03   -0.42131E-04   -0.18626E-04  1768   0.815E-02    0.174E-02
DAV:   7    -0.481901005477E+03   -0.33237E-05   -0.27133E-05  1104   0.429E-02
  76 F= -.48190101E+03 E0= -.48187618E+03  d E =-.849299E-01
 curvature: -11.93 expect dE=-0.618E+00 dE for cont linesearch -0.774E-07
 trial: gam= 1.01709 g(F)=  0.508E-01 g(S)=  0.990E-03 ort =-0.498E-04 (trialstep = 0.228E+01)
 search vector abs. value=  0.447E+00
 bond charge predicted
       N       E                     dE             d eps       ncg     rms          rms(c)
DAV:   1    -0.481852899602E+03    0.48103E-01   -0.84748E+01  1456   0.245E+01    0.185E+00
DAV:   2    -0.481987230053E+03   -0.13433E+00   -0.16704E+00  2016   0.461E+00    0.113E+00
DAV:   3    -0.481979355731E+03    0.78743E-02   -0.93305E-02  2200   0.249E+00    0.828E-01
DAV:   4    -0.481978450966E+03    0.90476E-03   -0.41616E-02  2208   0.220E+00    0.637E-01
DAV:   5    -0.481975819843E+03    0.26311E-02   -0.15392E-02  2136   0.141E+00    0.201E-01
DAV:   6    -0.481976666822E+03   -0.84698E-03   -0.44913E-03  1992   0.348E-01    0.903E-02
DAV:   7    -0.481976680304E+03   -0.13482E-04   -0.80955E-04  2088   0.267E-01    0.553E-02
DAV:   8    -0.481976732740E+03   -0.52435E-04   -0.15716E-04  1736   0.110E-01    0.220E-02
DAV:   9    -0.481976796157E+03   -0.63418E-04   -0.32276E-05  1208   0.425E-02    0.852E-03
DAV:  10    -0.481976839008E+03   -0.42850E-04   -0.12304E-05  1040   0.236E-02    0.418E-03
DAV:  11    -0.481976883096E+03   -0.44088E-04   -0.12536E-05  1064   0.110E-02    0.260E-03
DAV:  12    -0.481976914736E+03   -0.31640E-04   -0.49046E-06  1000   0.115E-02    0.181E-03
DAV:  13    -0.481976937903E+03   -0.23167E-04   -0.44889E-06  1016   0.875E-03    0.144E-03
DAV:  14    -0.481976949233E+03   -0.11330E-04   -0.36059E-06   992   0.915E-03    0.133E-03
DAV:  15    -0.481976955680E+03   -0.64468E-05   -0.29519E-06   944   0.670E-03
  77 F= -.48197696E+03 E0= -.48195195E+03  d E =-.759502E-01
 trial-energy change:   -0.075950  1 .order   -0.075147   -0.117809   -0.032485
 step:   3.0806(harm=  3.1421)  dis= 0.08099  next Energy=  -481.982736 (dE=-0.817E-01)
 bond charge predicted
       N       E                     dE             d eps       ncg     rms          rms(c)
DAV:   1    -0.481968533438E+03    0.84158E-02   -0.10623E+01  1472   0.868E+00    0.573E-01
DAV:   2    -0.481983776791E+03   -0.15243E-01   -0.19436E-01  2048   0.153E+00    0.381E-01
DAV:   3    -0.481982850679E+03    0.92611E-03   -0.87704E-03  2184   0.648E-01    0.245E-01
DAV:   4    -0.481983016269E+03   -0.16559E-03   -0.43202E-03  2136   0.733E-01    0.186E-01
