 vasp.6.3.2 27Jun22 (build May 04 2024 18:40:40) complex                        
  
 executed on             LinuxIFC date 2024.09.02  22:26:14
 running on   48 total cores
 distrk:  each k-point on   48 cores,    1 groups
 distr:  one band on NCORE=  12 cores,    4 groups


--------------------------------------------------------------------------------------------------------


 INCAR:
   SYSTEM = slab_Cel1-OPT
   ISTART = 0
   ICHARG = 2
   LWAVE = .F.
   LAECHG = .F.
   LCHARG = .F.
   LELF = .False.
   ENCUT = 400
   PREC = N
   NELM = 200
   ALGO = N
   ISMEAR = 0
   SIGMA = 0.1
   EDIFF = 1E-5
   IBRION = 2
   POTIM = 0.1
   EDIFFG = -0.05
   ISIF = 3
   NSW = 1000
   LDIPOL = .True.
   IDIPOL = 3
   LREAL = AUTO
   NCORE = 12

 POTCAR:    PAW_PBE C 08Apr2002                   
 POTCAR:    PAW_PBE N 08Apr2002                   
 POTCAR:    PAW_PBE Au 04Oct2007                  
 POTCAR:    PAW_PBE Cu 22Jun2005                  
 POTCAR:    PAW_PBE C 08Apr2002                   
   SHA256 =  253f7b50bb8d59471dbedb8285d89021f4a42ed1a2c5d38a03a736e69125dd95 C/POTCAR              
   COPYR  = (c) Copyright 08Apr2002 Georg Kresse                                                    
   COPYR  = This file is part of the software VASP. Any use, copying, and all other rights are regul
   COPYR  = If you do not have a valid VASP license, you may not use, copy or distribute this file. 
   VRHFIN =C: s2p2                                                                                  
   LEXCH  = PE                                                                                      
   EATOM  =   147.1560 eV,   10.8157 Ry                                                             
                                                                                                    
   TITEL  = PAW_PBE C 08Apr2002                                                                     
   LULTRA =        F    use ultrasoft PP ?                                                          
   IUNSCR =        1    unscreen: 0-lin 1-nonlin 2-no                                               
   RPACOR =    1.200    partial core radius                                                         
   POMASS =   12.011; ZVAL   =    4.000    mass and valenz                                          
   RCORE  =    1.500    outmost cutoff radius                                                       
   RWIGS  =    1.630; RWIGS  =    0.863    wigner-seitz radius (au A)                               
   ENMAX  =  400.000; ENMIN  =  300.000 eV                                                          
   ICORE  =        2    local potential                                                             
   LCOR   =        T    correct aug charges                                                         
   LPAW   =        T    paw PP                                                                      
   EAUG   =  644.873                                                                                
   DEXC   =    0.000                                                                                
   RMAX   =    1.529    core radius for proj-oper                                                   
   RAUG   =    1.300    factor for augmentation sphere                                              
   RDEP   =    1.501    radius for radial grids                                                     
   RDEPT  =    1.300    core radius for aug-charge                                                  
                                                                                                    
   Atomic configuration                                                                             
    4 entries                                                                                       
     n  l   j            E        occ.                                                              
     1  0  0.50      -273.3789   2.0000                                                             
     2  0  0.50       -13.7508   2.0000                                                             
     2  1  0.50        -5.2854   2.0000                                                             
     3  2  1.50        -5.4423   0.0000                                                             
   Description                                                                                      
     l       E           TYP  RCUT    TYP  RCUT                                                     
     0    -13.7508458     23  1.200                                                                 
     0     -8.2022199     23  1.200                                                                 
     1     -5.2854383     23  1.500                                                                 
     1     34.0145650     23  1.500                                                                 
     2     -5.4423304      7  1.500                                                                 
  local pseudopotential read in
  partial core-charges read in
  partial kinetic energy density read in
  atomic valenz-charges read in
  non local Contribution for L=           0  read in
    real space projection operators read in
  non local Contribution for L=           0  read in
    real space projection operators read in
  non local Contribution for L=           1  read in
    real space projection operators read in
  non local Contribution for L=           1  read in
    real space projection operators read in
    PAW grid and wavefunctions read in
 
   number of l-projection  operators is LMAX  =           4
   number of lm-projection operators is LMMAX =           8
 
 POTCAR:    PAW_PBE N 08Apr2002                   
   SHA256 =  e053789ff3a61a86a1b75d8a110fcc91f86041011e7b0817c7c99e4e8a6349d7 N/POTCAR              
   COPYR  = (c) Copyright 08Apr2002 Georg Kresse                                                    
   COPYR  = This file is part of the software VASP. Any use, copying, and all other rights are regul
   COPYR  = If you do not have a valid VASP license, you may not use, copy or distribute this file. 
   VRHFIN =N: s2p3                                                                                  
   LEXCH  = PE                                                                                      
   EATOM  =   264.5486 eV,   19.4438 Ry                                                             
                                                                                                    
   TITEL  = PAW_PBE N 08Apr2002                                                                     
   LULTRA =        F    use ultrasoft PP ?                                                          
   IUNSCR =        1    unscreen: 0-lin 1-nonlin 2-no                                               
   RPACOR =    1.200    partial core radius                                                         
   POMASS =   14.001; ZVAL   =    5.000    mass and valenz                                          
   RCORE  =    1.500    outmost cutoff radius                                                       
   RWIGS  =    1.400; RWIGS  =    0.741    wigner-seitz radius (au A)                               
   ENMAX  =  400.000; ENMIN  =  300.000 eV                                                          
   ICORE  =        2    local potential                                                             
   LCOR   =        T    correct aug charges                                                         
   LPAW   =        T    paw PP                                                                      
   EAUG   =  627.112                                                                                
   DEXC   =    0.000                                                                                
   RMAX   =    1.529    core radius for proj-oper                                                   
   RAUG   =    1.300    factor for augmentation sphere                                              
   RDEP   =    1.514    radius for radial grids                                                     
   RDEPT  =    1.338    core radius for aug-charge                                                  
                                                                                                    
   Atomic configuration                                                                             
    4 entries                                                                                       
     n  l   j            E        occ.                                                              
     1  0  0.50      -384.7179   2.0000                                                             
     2  0  0.50       -18.5828   2.0000                                                             
     2  1  0.50        -7.0898   3.0000                                                             
     3  2  1.50        -6.8029   0.0000                                                             
   Description                                                                                      
     l       E           TYP  RCUT    TYP  RCUT                                                     
     0    -18.5828119     23  1.200                                                                 
     0    -13.5018863     23  1.200                                                                 
     1     -7.0897853     23  1.500                                                                 
     1      9.5240782     23  1.500                                                                 
     2     -6.8029130      7  1.500                                                                 
  local pseudopotential read in
  partial core-charges read in
  partial kinetic energy density read in
  atomic valenz-charges read in
  non local Contribution for L=           0  read in
    real space projection operators read in
  non local Contribution for L=           0  read in
    real space projection operators read in
  non local Contribution for L=           1  read in
    real space projection operators read in
  non local Contribution for L=           1  read in
    real space projection operators read in
    PAW grid and wavefunctions read in
 
   number of l-projection  operators is LMAX  =           4
   number of lm-projection operators is LMMAX =           8
 
 POTCAR:    PAW_PBE Au 04Oct2007                  
   SHA256 =  d0044ae04e2bdce24051b198fc5c053d722a5bc6fe3c3b100514a13fc5d2db88 Au/POTCAR             
   COPYR  = (c) Copyright 04Oct2007 Georg Kresse                                                    
   COPYR  = This file is part of the software VASP. Any use, copying, and all other rights are regul
   COPYR  = If you do not have a valid VASP license, you may not use, copy or distribute this file. 
   VRHFIN =Au: s1d10                                                                                
   LEXCH  = PE                                                                                      
   EATOM  =   926.0867 eV,   68.0654 Ry                                                             
                                                                                                    
   TITEL  = PAW_PBE Au 04Oct2007                                                                    
   LULTRA =        F    use ultrasoft PP ?                                                          
   IUNSCR =        1    unscreen: 0-lin 1-nonlin 2-no                                               
   RPACOR =    2.330    partial core radius                                                         
   POMASS =  196.966; ZVAL   =   11.000    mass and valenz                                          
   RCORE  =    2.500    outmost cutoff radius                                                       
   RWIGS  =    2.840; RWIGS  =    1.503    wigner-seitz radius (au A)                               
   ENMAX  =  229.943; ENMIN  =  172.457 eV                                                          
   ICORE  =        3    local potential                                                             
   LCOR   =        T    correct aug charges                                                         
   LPAW   =        T    paw PP                                                                      
   EAUG   =  356.670                                                                                
   DEXC   =    0.000                                                                                
   RMAX   =    2.562    core radius for proj-oper                                                   
   RAUG   =    1.300    factor for augmentation sphere                                              
   RDEP   =    2.598    radius for radial grids                                                     
   RDEPT  =    2.193    core radius for aug-charge                                                  
                                                                                                    
   Atomic configuration                                                                             
   16 entries                                                                                       
     n  l   j            E        occ.                                                              
     1  0  0.50    -80748.5001   2.0000                                                             
     2  0  0.50    -14244.7466   2.0000                                                             
     2  1  1.50    -12310.9591   6.0000                                                             
     3  0  0.50     -3362.1768   2.0000                                                             
     3  1  1.50     -2801.5463   6.0000                                                             
     3  2  2.50     -2203.8206  10.0000                                                             
     4  0  0.50      -729.8168   2.0000                                                             
     4  1  1.50      -546.0527   6.0000                                                             
     4  2  2.50      -325.7302  10.0000                                                             
     4  3  3.50       -81.1472  14.0000                                                             
     5  0  0.50      -108.3201   2.0000                                                             
     5  1  1.50       -59.7479   6.0000                                                             
     5  2  2.50        -6.8783  10.0000                                                             
     6  0  0.50        -5.7602   1.0000                                                             
     6  1  1.50        -6.8029   0.0000                                                             
     5  3  2.50        -1.3606   0.0000                                                             
   Description                                                                                      
     l       E           TYP  RCUT    TYP  RCUT                                                     
     2     -6.8782861     23  2.500                                                                 
     2     -8.2388687     23  2.500                                                                 
     0     -5.7601759     23  2.500                                                                 
     0     -0.8493231     23  2.500                                                                 
     1     -2.7211652     23  2.500                                                                 
     1     27.2116520     23  2.500                                                                 
     3     -1.3605826     23  2.500                                                                 
  local pseudopotential read in
  partial core-charges read in
  partial kinetic energy density read in
  atomic valenz-charges read in
  non local Contribution for L=           2  read in
    real space projection operators read in
  non local Contribution for L=           2  read in
    real space projection operators read in
  non local Contribution for L=           0  read in
    real space projection operators read in
  non local Contribution for L=           0  read in
    real space projection operators read in
  non local Contribution for L=           1  read in
    real space projection operators read in
  non local Contribution for L=           1  read in
    real space projection operators read in
    PAW grid and wavefunctions read in
 
   number of l-projection  operators is LMAX  =           6
   number of lm-projection operators is LMMAX =          18
 
 POTCAR:    PAW_PBE Cu 22Jun2005                  
   SHA256 =  0e71e558f37a4e8407882b4609ceaae59938afaad9ced71dfe8490308a0ab630 Cu/POTCAR             
   COPYR  = (c) Copyright 22Jun2005 Georg Kresse                                                    
   COPYR  = This file is part of the software VASP. Any use, copying, and all other rights are regul
   COPYR  = If you do not have a valid VASP license, you may not use, copy or distribute this file. 
   VRHFIN =Cu: d10 p1                                                                               
   LEXCH  = PE                                                                                      
   EATOM  =  1390.9808 eV,  102.2342 Ry                                                             
                                                                                                    
   TITEL  = PAW_PBE Cu 22Jun2005                                                                    
   LULTRA =        F    use ultrasoft PP ?                                                          
   IUNSCR =        1    unscreen: 0-lin 1-nonlin 2-no                                               
   RPACOR =    2.000    partial core radius                                                         
   POMASS =   63.546; ZVAL   =   11.000    mass and valenz                                          
   RCORE  =    2.300    outmost cutoff radius                                                       
   RWIGS  =    2.200; RWIGS  =    1.164    wigner-seitz radius (au A)                               
   ENMAX  =  295.446; ENMIN  =  221.585 eV                                                          
   ICORE  =        3    local potential                                                             
   LCOR   =        T    correct aug charges                                                         
   LPAW   =        T    paw PP                                                                      
   EAUG   =  586.980                                                                                
   DEXC   =    0.000                                                                                
   RMAX   =    2.344    core radius for proj-oper                                                   
   RAUG   =    1.300    factor for augmentation sphere                                              
   RDEP   =    2.302    radius for radial grids                                                     
   RDEPT  =    1.771    core radius for aug-charge                                                  
                                                                                                    
   Atomic configuration                                                                             
    9 entries                                                                                       
     n  l   j            E        occ.                                                              
     1  0  0.50     -8850.2468   2.0000                                                             
     2  0  0.50     -1062.3498   2.0000                                                             
     2  1  1.50      -916.8226   6.0000                                                             
     3  0  0.50      -114.6929   2.0000                                                             
     3  1  1.50       -72.1325   6.0000                                                             
     3  2  2.50        -5.0394  10.0000                                                             
     4  0  0.50        -4.6097   1.0000                                                             
     4  1  0.50        -4.0817   0.0000                                                             
     4  3  2.50        -1.3606   0.0000                                                             
   Description                                                                                      
     l       E           TYP  RCUT    TYP  RCUT                                                     
     2     -5.0393973     23  2.200                                                                 
     2     10.8846608     23  2.200                                                                 
     0     -4.6097109     23  2.200                                                                 
     0      8.2520465     23  2.200                                                                 
     1     -2.7211652     23  2.200                                                                 
     1     21.7055443     23  2.200                                                                 
     3      2.7211652     23  2.300                                                                 
  local pseudopotential read in
  partial core-charges read in
  partial kinetic energy density read in
  atomic valenz-charges read in
  non local Contribution for L=           2  read in
    real space projection operators read in
  non local Contribution for L=           2  read in
    real space projection operators read in
  non local Contribution for L=           0  read in
    real space projection operators read in
  non local Contribution for L=           0  read in
    real space projection operators read in
  non local Contribution for L=           1  read in
    real space projection operators read in
  non local Contribution for L=           1  read in
    real space projection operators read in
    PAW grid and wavefunctions read in
 
   number of l-projection  operators is LMAX  =           6
   number of lm-projection operators is LMMAX =          18
 
 Optimization of the real space projectors (new method)

 maximal supplied QI-value         = 25.13
 optimisation between [QCUT,QGAM] = [ 10.05, 20.36] = [ 28.30,116.06] Ry 
 Optimized for a Real-space Cutoff    1.30 Angstroem

   l    n(q)    QCUT    max X(q) W(low)/X(q) W(high)/X(q)  e(spline) 
   0      8    10.053   115.676    0.49E-03    0.72E-03    0.18E-06
   0      8    10.053    87.132    0.49E-03    0.71E-03    0.18E-06
   1      7    10.053     4.429    0.32E-03    0.31E-03    0.18E-06
   1      7    10.053     2.733    0.23E-03    0.19E-03    0.20E-06
 Optimization of the real space projectors (new method)

 maximal supplied QI-value         = 25.13
 optimisation between [QCUT,QGAM] = [ 10.05, 20.36] = [ 28.30,116.06] Ry 
 Optimized for a Real-space Cutoff    1.65 Angstroem

   l    n(q)    QCUT    max X(q) W(low)/X(q) W(high)/X(q)  e(spline) 
   0     10    10.053    79.467    0.76E-04    0.72E-04    0.56E-06
   0     10    10.053    66.151    0.76E-04    0.72E-04    0.55E-06
   1     10    10.053     8.350    0.25E-03    0.92E-03    0.41E-05
   1     10    10.053     5.531    0.27E-03    0.10E-02    0.45E-05
 Optimization of the real space projectors (new method)

 maximal supplied QI-value         = 15.12
 optimisation between [QCUT,QGAM] = [ 10.13, 20.41] = [ 28.73,116.64] Ry 
 Optimized for a Real-space Cutoff    1.51 Angstroem

   l    n(q)    QCUT    max X(q) W(low)/X(q) W(high)/X(q)  e(spline) 
   2      8    10.129    60.898    0.46E-03    0.46E-03    0.14E-06
   2      8    10.129    58.894    0.47E-03    0.47E-03    0.14E-06
   0      9    10.129   109.617    0.16E-03    0.11E-03    0.54E-07
   0      9    10.129    75.026    0.15E-03    0.11E-03    0.52E-07
   1      9    10.129    16.344    0.96E-04    0.15E-03    0.14E-06
   1      9    10.129    10.160    0.81E-04    0.12E-03    0.11E-06
 Optimization of the real space projectors (new method)

 maximal supplied QI-value         = 16.25
 optimisation between [QCUT,QGAM] = [ 10.24, 20.48] = [ 29.35,117.42] Ry 
 Optimized for a Real-space Cutoff    1.55 Angstroem

   l    n(q)    QCUT    max X(q) W(low)/X(q) W(high)/X(q)  e(spline) 
   2      9    10.239     4.610    0.85E-04    0.29E-03    0.14E-06
   2      9    10.239     8.522    0.15E-03    0.50E-03    0.27E-06
   0     10    10.239    51.609    0.45E-04    0.99E-04    0.10E-06
   0     10    10.239    27.747    0.40E-04    0.93E-04    0.97E-07
   1      9    10.239    20.408    0.15E-03    0.78E-05    0.15E-06
   1      9    10.239    13.425    0.13E-03    0.71E-05    0.14E-06
  PAW_PBE C 08Apr2002                   :
 energy of atom  1       EATOM= -147.1560
 kinetic energy error for atom=    0.0288 (will be added to EATOM!!)
  PAW_PBE N 08Apr2002                   :
 energy of atom  2       EATOM= -264.5486
 kinetic energy error for atom=    0.0736 (will be added to EATOM!!)
  PAW_PBE Au 04Oct2007                  :
 energy of atom  3       EATOM= -926.0867
 kinetic energy error for atom=    0.0062 (will be added to EATOM!!)
  PAW_PBE Cu 22Jun2005                  :
 energy of atom  4       EATOM=-1390.9808
 kinetic energy error for atom=    0.0232 (will be added to EATOM!!)
 
 
 POSCAR: C  N  Au Cu
  positions in cartesian coordinates
  No initial velocities read in
 exchange correlation table for  LEXCH =        8
   RHO(1)=    0.500       N(1)  =     2000
   RHO(2)=  100.500       N(2)  =     4000

 VTST: version 4.2, (08/11/21)

 CHAIN: initializing optimizer
 
 OPT: Using VASP Conjugate-Gradient optimizer
 CHAIN: Read ICHAIN            0
 
 POSCAR: C  N  Au Cu
  positions in cartesian coordinates
  No initial velocities read in
 


--------------------------------------------------------------------------------------------------------


 ion  position               nearest neighbor table
   1  0.065  0.404  0.133-  25 1.33  27 1.33  31 1.39
   2  0.981  0.235  0.133-  26 1.33  29 1.33  31 1.39
   3  0.226  0.398  0.133-  27 1.33  30 1.34  40 1.47
   4  0.815  0.577  0.133-  45 1.33  44 1.34  32 1.47
   5  0.150  0.235  0.133-  28 1.33  30 1.33  31 1.39
   6  0.905  0.398  0.133-  25 1.33  26 1.33  32 1.48
   7  0.565  0.404  0.133-  33 1.33  35 1.33  39 1.39
   8  0.481  0.235  0.133-  34 1.33  37 1.33  39 1.39
   9  0.726  0.398  0.133-  35 1.33  38 1.34  32 1.47
  10  0.315  0.577  0.133-  53 1.33  52 1.34  40 1.47
  11  0.650  0.235  0.133-  36 1.33  38 1.33  39 1.39
  12  0.405  0.398  0.133-  33 1.33  34 1.33  40 1.48
  13  0.816  0.904  0.133-  41 1.33  43 1.33  47 1.39
  14  0.731  0.735  0.133-  42 1.33  45 1.33  47 1.39  57 2.59
  15  0.976  0.898  0.133-  43 1.33  46 1.34  56 1.47
  16  0.065  0.077  0.133-  29 1.33  28 1.34  56 1.47
  17  0.900  0.735  0.133-  44 1.33  46 1.33  47 1.39
  18  0.655  0.898  0.133-  41 1.33  42 1.33  48 1.48  57 2.65
  19  0.316  0.904  0.133-  49 1.33  51 1.33  55 1.39
  20  0.231  0.735  0.133-  50 1.33  53 1.33  55 1.39
  21  0.476  0.898  0.133-  51 1.33  54 1.34  48 1.47  57 2.74
  22  0.565  0.077  0.133-  37 1.33  36 1.34  48 1.47
  23  0.400  0.735  0.133-  52 1.33  54 1.33  55 1.39  57 2.76
  24  0.155  0.898  0.133-  49 1.33  50 1.33  56 1.48
  25  0.984  0.456  0.133-   1 1.33   6 1.33
  26  0.901  0.290  0.133-   2 1.33   6 1.33
  27  0.147  0.456  0.133-   3 1.33   1 1.33
  28  0.148  0.127  0.133-   5 1.33  16 1.34
  29  0.983  0.127  0.133-  16 1.33   2 1.33
  30  0.230  0.290  0.133-   5 1.33   3 1.34
  31  0.065  0.291  0.133-   2 1.39   1 1.39   5 1.39
  32  0.816  0.458  0.133-   9 1.47   4 1.47   6 1.48
  33  0.484  0.456  0.133-   7 1.33  12 1.33  59 1.87
  34  0.401  0.290  0.133-   8 1.33  12 1.33
  35  0.647  0.456  0.133-   9 1.33   7 1.33  58 1.89
  36  0.648  0.127  0.133-  11 1.33  22 1.34
  37  0.483  0.127  0.133-  22 1.33   8 1.33
  38  0.730  0.290  0.133-  11 1.33   9 1.34
  39  0.565  0.291  0.133-   8 1.39   7 1.39  11 1.39
  40  0.316  0.458  0.133-   3 1.47  10 1.47  12 1.48
  41  0.734  0.956  0.133-  13 1.33  18 1.33
  42  0.651  0.790  0.133-  14 1.33  18 1.33  57 1.81
  43  0.897  0.956  0.133-  15 1.33  13 1.33
  44  0.899  0.627  0.133-  17 1.33   4 1.34
  45  0.733  0.627  0.133-   4 1.33  14 1.33  58 1.78
  46  0.980  0.790  0.133-  17 1.33  15 1.34
  47  0.816  0.791  0.133-  14 1.39  13 1.39  17 1.39
  48  0.566  0.958  0.133-  21 1.47  22 1.47  18 1.48
  49  0.234  0.956  0.133-  19 1.33  24 1.33
  50  0.151  0.790  0.133-  20 1.33  24 1.33
  51  0.397  0.956  0.133-  21 1.33  19 1.33
  52  0.399  0.627  0.133-  23 1.33  10 1.34  59 1.85
  53  0.233  0.627  0.133-  10 1.33  20 1.33
  54  0.480  0.790  0.133-  23 1.33  21 1.34  57 1.93
  55  0.316  0.791  0.133-  20 1.39  19 1.39  23 1.39
  56  0.066  0.958  0.133-  15 1.47  16 1.47  24 1.48
  57  0.572  0.735  0.216-  42 1.81  54 1.93  58 2.29  59 2.31  14 2.59  18 2.65  21 2.74  23 2.76

  58  0.652  0.574  0.213-  45 1.78  35 1.89  57 2.29  59 2.32
  59  0.490  0.575  0.210-  52 1.85  33 1.87  57 2.31  58 2.32
 
  LATTYP: Found a simple orthorhombic cell.
 ALAT       =    12.3569965043
 B/A-ratio  =     1.1544795691
 C/A-ratio  =     1.2138872091
  
  Lattice vectors:
  
 A1 = (   0.0000000000, -12.3569965043,   0.0000000000)
 A2 = (  14.2659000000,   0.0000000000,   0.0000000000)
 A3 = (   0.0000000000,   0.0000000000,  15.0000000000)


Analysis of symmetry for initial positions (statically):
=====================================================================
 Subroutine PRICEL returns:
 Original cell was already a primitive cell.
 

 Routine SETGRP: Setting up the symmetry group for a 
 simple orthorhombic supercell.


 Subroutine GETGRP returns: Found  1 space group operations
 (whereof  1 operations were pure point group operations)
 out of a pool of  8 trial point group operations.


The static configuration has the point symmetry C_1 .


Analysis of symmetry for dynamics (positions and initial velocities):
=====================================================================
 Subroutine PRICEL returns:
 Original cell was already a primitive cell.
 

 Routine SETGRP: Setting up the symmetry group for a 
 simple orthorhombic supercell.


 Subroutine GETGRP returns: Found  1 space group operations
 (whereof  1 operations were pure point group operations)
 out of a pool of  8 trial point group operations.


The dynamic configuration has the point symmetry C_1 .


 Subroutine INISYM returns: Found  1 space group operations
 (whereof  1 operations are pure point group operations),
 and found     1 'primitive' translations


----------------------------------------------------------------------------------------

                                     Primitive cell                                     

  volume of cell :    2644.2551

  direct lattice vectors                    reciprocal lattice vectors
    14.265900000  0.000000000  0.000000000     0.070097225  0.000000000  0.000000000
     0.000000000 12.356996504  0.000000000     0.000000000  0.080925814  0.000000000
     0.000000000  0.000000000 15.000000000     0.000000000  0.000000000  0.066666667

  length of vectors
    14.265900000 12.356996504 15.000000000     0.070097225  0.080925814  0.066666667

  position of ions in fractional coordinates (direct lattice)
     0.065375930  0.403640000  0.133330000
     0.980977478  0.234940000  0.133330000
     0.225934368  0.398200000  0.133330000
     0.815435750  0.577100000  0.133330000
     0.149737466  0.234900000  0.133330000
     0.905179302  0.397970000  0.133330000
     0.565375930  0.403640000  0.133330000
     0.480977478  0.234940000  0.133330000
     0.725934368  0.398200000  0.133330000
     0.315435750  0.577100000  0.133330000
     0.649737466  0.234900000  0.133330000
     0.405179302  0.397970000  0.133330000
     0.815519537  0.903640000  0.133330000
     0.731121084  0.734940000  0.133330000
     0.976077974  0.898200000  0.133330000
     0.065292144  0.077100000  0.133330000
     0.899881072  0.734900000  0.133330000
     0.655322908  0.897970000  0.133330000
     0.315519537  0.903640000  0.133330000
     0.231121084  0.734940000  0.133330000
     0.476077974  0.898200000  0.133330000
     0.565292144  0.077100000  0.133330000
     0.399881072  0.734900000  0.133330000
     0.155322908  0.897970000  0.133330000
     0.984000934  0.455880000  0.133330000
     0.901118352  0.290210000  0.133330000
     0.147105954  0.455950000  0.133330000
     0.148406516  0.127140000  0.133330000
     0.982561496  0.127070000  0.133330000
     0.229923315  0.290080000  0.133330000
     0.065363625  0.291160000  0.133330000
     0.815531469  0.457740000  0.133330000
     0.484000934  0.455880000  0.133330000
     0.401118352  0.290210000  0.133330000
     0.647105954  0.455950000  0.133330000
     0.648406516  0.127140000  0.133330000
     0.482561496  0.127070000  0.133330000
     0.729923315  0.290080000  0.133330000
     0.565363625  0.291160000  0.133330000
     0.315531469  0.457740000  0.133330000
     0.734144541  0.955880000  0.133330000
     0.651261958  0.790210000  0.133330000
     0.897249561  0.955950000  0.133330000
     0.898550122  0.627140000  0.133330000
     0.732705102  0.627070000  0.133330000
     0.980066921  0.790080000  0.133330000
     0.815507231  0.791160000  0.133330000
     0.565675075  0.957740000  0.133330000
     0.234144541  0.955880000  0.133330000
     0.151261958  0.790210000  0.133330000
     0.397249561  0.955950000  0.133330000
     0.398550122  0.627140000  0.133330000
     0.232705102  0.627070000  0.133330000
     0.480066921  0.790080000  0.133330000
     0.315507231  0.791160000  0.133330000
     0.065675075  0.957740000  0.133330000
     0.572126392  0.735160253  0.216453333
     0.652061715  0.574438574  0.213063333
     0.489661118  0.574674249  0.209883333

  ion indices of the primitive-cell ions
   primitive index   ion index
                 1           1
                 2           2
                 3           3
                 4           4
                 5           5
                 6           6
                 7           7
                 8           8
                 9           9
                10          10
                11          11
                12          12
                13          13
                14          14
                15          15
                16          16
                17          17
                18          18
                19          19
                20          20
                21          21
                22          22
                23          23
                24          24
                25          25
                26          26
                27          27
                28          28
                29          29
                30          30
                31          31
                32          32
                33          33
                34          34
                35          35
                36          36
                37          37
                38          38
                39          39
                40          40
                41          41
                42          42
                43          43
                44          44
                45          45
                46          46
                47          47
                48          48
                49          49
                50          50
                51          51
                52          52
                53          53
                54          54
                55          55
                56          56
                57          57
                58          58
                59          59

----------------------------------------------------------------------------------------

 
 
 KPOINTS: K-POINTS                                

Automatic generation of k-mesh.
 Grid dimensions read from file:
 generate k-points for:    2    2    1

 Generating k-lattice:

  Cartesian coordinates                     Fractional coordinates (reciprocal lattice)
     0.035048612  0.000000000  0.000000000     0.500000000  0.000000000  0.000000000
     0.000000000  0.040462907  0.000000000     0.000000000  0.500000000  0.000000000
     0.000000000  0.000000000  0.066666667     0.000000000  0.000000000  1.000000000

  Length of vectors
     0.035048612  0.040462907  0.066666667

  Shift w.r.t. Gamma in fractional coordinates (k-lattice)
     0.000000000  0.000000000  0.000000000

 
 Subroutine IBZKPT returns following result:
 ===========================================
 
 Found      4 irreducible k-points:
 
 Following reciprocal coordinates:
            Coordinates               Weight
  0.000000  0.000000  0.000000      1.000000
  0.500000  0.000000  0.000000      1.000000
  0.000000  0.500000  0.000000      1.000000
  0.500000  0.500000  0.000000      1.000000
 
 Following cartesian coordinates:
            Coordinates               Weight
  0.000000  0.000000  0.000000      1.000000
  0.035049  0.000000  0.000000      1.000000
  0.000000  0.040463  0.000000      1.000000
  0.035049  0.040463  0.000000      1.000000
 


--------------------------------------------------------------------------------------------------------




 Dimension of arrays:
   k-points           NKPTS =      4   k-points in BZ     NKDIM =      4   number of bands    NBANDS=    176
   number of dos      NEDOS =    301   number of ions     NIONS =     59
   non local maximal  LDIM  =      6   non local SUM 2l+1 LMDIM =     18
   total plane-waves  NPLWV = 336000
   max r-space proj   IRMAX =   2434   max aug-charges    IRDMAX=   7969
   dimension x,y,z NGX =    70 NGY =   60 NGZ =   80
   dimension x,y,z NGXF=   140 NGYF=  120 NGZF=  160
   support grid    NGXF=   140 NGYF=  120 NGZF=  160
   ions per type =              24  32   1   2
   NGX,Y,Z   is equivalent  to a cutoff of   8.16,  8.07,  8.87 a.u.
   NGXF,Y,Z  is equivalent  to a cutoff of  16.31, 16.14, 17.73 a.u.

 SYSTEM =  slab_Cel1-OPT                           
 POSCAR =  C  N  Au Cu                             

 Startparameter for this run:
   NWRITE =      2    write-flag & timer
   PREC   = n         normal or accurate (medium, high low for compatibility)
   ISTART =      0    job   : 0-new  1-cont  2-samecut
   ICHARG =      2    charge: 1-file 2-atom 10-const
   ISPIN  =      1    spin polarized calculation?
   LNONCOLLINEAR =      F non collinear calculations
   LSORBIT =      F    spin-orbit coupling
   INIWAV =      1    electr: 0-lowe 1-rand  2-diag
   LASPH  =      F    aspherical Exc in radial PAW
 Electronic Relaxation 1
   ENCUT  =  400.0 eV  29.40 Ry    5.42 a.u.  23.26 20.15 24.46*2*pi/ulx,y,z
   ENINI  =  400.0     initial cutoff
   ENAUG  =  644.9 eV  augmentation charge cutoff
   NELM   =    200;   NELMIN=  2; NELMDL= -5     # of ELM steps 
   EDIFF  = 0.1E-04   stopping-criterion for ELM
   LREAL  =      T    real-space projection
   NLSPLINE    = F    spline interpolate recip. space projectors
   LCOMPAT=      F    compatible to vasp.4.4
   GGA_COMPAT  = T    GGA compatible to vasp.4.4-vasp.4.6
   LMAXPAW     = -100 max onsite density
   LMAXMIX     =    2 max onsite mixed and CHGCAR
   VOSKOWN=      0    Vosko Wilk Nusair interpolation
   ROPT   =   -0.00050  -0.00050  -0.00050  -0.00050
 Ionic relaxation
   EDIFFG = -.5E-01   stopping-criterion for IOM
   NSW    =   1000    number of steps for IOM
   NBLOCK =      1;   KBLOCK =   1000    inner block; outer block 
   IBRION =      2    ionic relax: 0-MD 1-quasi-New 2-CG
   NFREE  =      1    steps in history (QN), initial steepest desc. (CG)
   ISIF   =      3    stress and relaxation
   IWAVPR =     11    prediction:  0-non 1-charg 2-wave 3-comb
   ISYM   =      2    0-nonsym 1-usesym 2-fastsym
   LCORR  =      T    Harris-Foulkes like correction to forces

   POTIM  = 0.1000    time-step for ionic-motion
   TEIN   =    0.0    initial temperature
   TEBEG  =    0.0;   TEEND  =   0.0 temperature during run
   SMASS  =  -3.00    Nose mass-parameter (am)
   estimated Nose-frequenzy (Omega)   =  0.10E-29 period in steps = 0.63E+47 mass=  -0.465E-26a.u.
   SCALEE = 1.0000    scale energy and forces
   NPACO  =    256;   APACO  = 10.0  distance and # of slots for P.C.
   PSTRESS=    0.0 pullay stress

  Mass of Ions in am
   POMASS =  12.01 14.00196.97 63.55
  Ionic Valenz
   ZVAL   =   4.00  5.00 11.00 11.00
  Atomic Wigner-Seitz radii
   RWIGS  =  -1.00 -1.00 -1.00 -1.00
  virtual crystal weights 
   VCA    =   1.00  1.00  1.00  1.00
   NELECT =     289.0000    total number of electrons
   NUPDOWN=      -1.0000    fix difference up-down

 DOS related values:
   EMIN   =  10.00;   EMAX   =-10.00  energy-range for DOS
   EFERMI =   0.00
   ISMEAR =     0;   SIGMA  =   0.10  broadening in eV -4-tet -1-fermi 0-gaus

 Electronic relaxation 2 (details)
   IALGO  =     38    algorithm
   LDIAG  =      T    sub-space diagonalisation (order eigenvalues)
   LSUBROT=      F    optimize rotation matrix (better conditioning)
   TURBO    =      0    0=normal 1=particle mesh
   IRESTART =      0    0=no restart 2=restart with 2 vectors
   NREBOOT  =      0    no. of reboots
   NMIN     =      0    reboot dimension
   EREF     =   0.00    reference energy to select bands
   IMIX   =      4    mixing-type and parameters
     AMIX     =   0.40;   BMIX     =  1.00
     AMIX_MAG =   1.60;   BMIX_MAG =  1.00
     AMIN     =   0.10
     WC   =   100.;   INIMIX=   1;  MIXPRE=   1;  MAXMIX= -45

 Intra band minimization:
   WEIMIN = 0.0010     energy-eigenvalue tresh-hold
   EBREAK =  0.14E-07  absolut break condition
   DEPER  =   0.30     relativ break condition  

   TIME   =   0.40     timestep for ELM

  volume/ion in A,a.u.               =      44.82       302.45
  Fermi-wavevector in a.u.,A,eV,Ry     =   0.782720  1.479126  8.335613  0.612650
  Thomas-Fermi vector in A             =   1.886501
 
 Write flags
   LWAVE        =      F    write WAVECAR
   LDOWNSAMPLE  =      F    k-point downsampling of WAVECAR
   LCHARG       =      F    write CHGCAR
   LVTOT        =      F    write LOCPOT, total local potential
   LVHAR        =      F    write LOCPOT, Hartree potential only
   LELF         =      F    write electronic localiz. function (ELF)
   LORBIT       =      0    0 simple, 1 ext, 2 COOP (PROOUT), +10 PAW based schemes


 Dipole corrections
   LMONO  =      F    monopole corrections only (constant potential shift)
   LDIPOL =      T    correct potential (dipole corrections)
   IDIPOL =      3    1-x, 2-y, 3-z, 4-all directions 
   EPSILON=  1.0000000 bulk dielectric constant

 Exchange correlation treatment:
   GGA     =    --    GGA type
   LEXCH   =     8    internal setting for exchange type
   LIBXC   =     F    Libxc                    
   VOSKOWN =     0    Vosko Wilk Nusair interpolation
   LHFCALC =     F    Hartree Fock is set to
   LHFONE  =     F    Hartree Fock one center treatment
   AEXX    =    0.0000 exact exchange contribution

 Linear response parameters
   LEPSILON=     F    determine dielectric tensor
   LRPA    =     F    only Hartree local field effects (RPA)
   LNABLA  =     F    use nabla operator in PAW spheres
   LVEL    =     F    velocity operator in full k-point grid
   CSHIFT  =0.1000    complex shift for real part using Kramers Kronig
   OMEGAMAX=  -1.0    maximum frequency
   DEG_THRESHOLD= 0.2000000E-02 threshold for treating states as degnerate
   RTIME   =   -0.100 relaxation time in fs
  (WPLASMAI=    0.000 imaginary part of plasma frequency in eV, 0.658/RTIME)
   DFIELD  = 0.0000000 0.0000000 0.0000000 field for delta impulse in time
 
  Optional k-point grid parameters
   LKPOINTS_OPT  =     F    use optional k-point grid
   KPOINTS_OPT_MODE=     1    mode for optional k-point grid
 
 Orbital magnetization related:
   ORBITALMAG=     F  switch on orbital magnetization
   LCHIMAG   =     F  perturbation theory with respect to B field
   DQ        =  0.001000  dq finite difference perturbation B field
   LLRAUG    =     F  two centre corrections for induced B field



--------------------------------------------------------------------------------------------------------


 conjugate gradient relaxation of ions
 charge density and potential will be updated during run
 non-spin polarized calculation
 Variant of blocked Davidson
 Davidson routine will perform the subspace rotation
 perform sub-space diagonalisation
    after iterative eigenvector-optimisation
 modified Broyden-mixing scheme, WC =      100.0
 initial mixing is a Kerker type mixing with AMIX =  0.4000 and BMIX =      1.0000
 Hartree-type preconditioning will be used
 using additional bands           31
 real space projection scheme for non local part
 use partial core corrections
 calculate Harris-corrections to forces 
   (improved forces if not selfconsistent)
 use gradient corrections 
 use of overlap-Matrix (Vanderbilt PP)
 Gauss-broadening in eV      SIGMA  =   0.10


--------------------------------------------------------------------------------------------------------


  energy-cutoff  :      400.00
  volume of cell :     2644.26
      direct lattice vectors                 reciprocal lattice vectors
    14.265900000  0.000000000  0.000000000     0.070097225  0.000000000  0.000000000
     0.000000000 12.356996504  0.000000000     0.000000000  0.080925814  0.000000000
     0.000000000  0.000000000 15.000000000     0.000000000  0.000000000  0.066666667

  length of vectors
    14.265900000 12.356996504 15.000000000     0.070097225  0.080925814  0.066666667


 
 k-points in units of 2pi/SCALE and weight: K-POINTS                                
   0.00000000  0.00000000  0.00000000       0.250
   0.03504861  0.00000000  0.00000000       0.250
   0.00000000  0.04046291  0.00000000       0.250
   0.03504861  0.04046291  0.00000000       0.250
 
 k-points in reciprocal lattice and weights: K-POINTS                                
   0.00000000  0.00000000  0.00000000       0.250
   0.50000000  0.00000000  0.00000000       0.250
   0.00000000  0.50000000  0.00000000       0.250
   0.50000000  0.50000000  0.00000000       0.250
 
 position of ions in fractional coordinates (direct lattice) 
   0.06537593  0.40364000  0.13333000
   0.98097748  0.23494000  0.13333000
   0.22593437  0.39820000  0.13333000
   0.81543575  0.57710000  0.13333000
   0.14973747  0.23490000  0.13333000
   0.90517930  0.39797000  0.13333000
   0.56537593  0.40364000  0.13333000
   0.48097748  0.23494000  0.13333000
   0.72593437  0.39820000  0.13333000
   0.31543575  0.57710000  0.13333000
   0.64973747  0.23490000  0.13333000
   0.40517930  0.39797000  0.13333000
   0.81551954  0.90364000  0.13333000
   0.73112108  0.73494000  0.13333000
   0.97607797  0.89820000  0.13333000
   0.06529214  0.07710000  0.13333000
   0.89988107  0.73490000  0.13333000
   0.65532291  0.89797000  0.13333000
   0.31551954  0.90364000  0.13333000
   0.23112108  0.73494000  0.13333000
   0.47607797  0.89820000  0.13333000
   0.56529214  0.07710000  0.13333000
   0.39988107  0.73490000  0.13333000
   0.15532291  0.89797000  0.13333000
   0.98400093  0.45588000  0.13333000
   0.90111835  0.29021000  0.13333000
   0.14710595  0.45595000  0.13333000
   0.14840652  0.12714000  0.13333000
   0.98256150  0.12707000  0.13333000
   0.22992331  0.29008000  0.13333000
   0.06536362  0.29116000  0.13333000
   0.81553147  0.45774000  0.13333000
   0.48400093  0.45588000  0.13333000
   0.40111835  0.29021000  0.13333000
   0.64710595  0.45595000  0.13333000
   0.64840652  0.12714000  0.13333000
   0.48256150  0.12707000  0.13333000
   0.72992331  0.29008000  0.13333000
   0.56536362  0.29116000  0.13333000
   0.31553147  0.45774000  0.13333000
   0.73414454  0.95588000  0.13333000
   0.65126196  0.79021000  0.13333000
   0.89724956  0.95595000  0.13333000
   0.89855012  0.62714000  0.13333000
   0.73270510  0.62707000  0.13333000
   0.98006692  0.79008000  0.13333000
   0.81550723  0.79116000  0.13333000
   0.56567507  0.95774000  0.13333000
   0.23414454  0.95588000  0.13333000
   0.15126196  0.79021000  0.13333000
   0.39724956  0.95595000  0.13333000
   0.39855012  0.62714000  0.13333000
   0.23270510  0.62707000  0.13333000
   0.48006692  0.79008000  0.13333000
   0.31550723  0.79116000  0.13333000
   0.06567507  0.95774000  0.13333000
   0.57212639  0.73516025  0.21645333
   0.65206172  0.57443857  0.21306333
   0.48966112  0.57467425  0.20988333
 
 position of ions in cartesian coordinates  (Angst):
   0.93264649  4.98777807  1.99995000
  13.99452660  2.90315276  1.99995000
   3.22315710  4.92055601  1.99995000
  11.63292487  7.13122268  1.99995000
   2.13613972  2.90265848  1.99995000
  12.91319740  4.91771390  1.99995000
   8.06559649  4.98777807  1.99995000
   6.86157660  2.90315276  1.99995000
  10.35610710  4.92055601  1.99995000
   4.49997487  7.13122268  1.99995000
   9.26908972  2.90265848  1.99995000
   5.78024740  4.91771390  1.99995000
  11.63412016 11.16627632  1.99995000
  10.43010027  9.08165101  1.99995000
  13.92463077 11.09905426  1.99995000
   0.93145120  0.95272443  1.99995000
  12.83761339  9.08115673  1.99995000
   9.34877107 11.09621215  1.99995000
   4.50117016 11.16627632  1.99995000
   3.29715027  9.08165101  1.99995000
   6.79168077 11.09905426  1.99995000
   8.06440120  0.95272443  1.99995000
   5.70466339  9.08115673  1.99995000
   2.21582107 11.09621215  1.99995000
  14.03765893  5.63330757  1.99995000
  12.85526430  3.58612396  1.99995000
   2.09859884  5.63417256  1.99995000
   2.11715252  1.57106854  1.99995000
  14.01712405  1.57020355  1.99995000
   3.28006301  3.58451755  1.99995000
   0.93247093  3.59786310  1.99995000
  11.63429038  5.65629158  1.99995000
   6.90470893  5.63330757  1.99995000
   5.72231430  3.58612396  1.99995000
   9.23154884  5.63417256  1.99995000
   9.25010252  1.57106854  1.99995000
   6.88417405  1.57020355  1.99995000
  10.41301301  3.58451755  1.99995000
   8.06542093  3.59786310  1.99995000
   4.50134038  5.65629158  1.99995000
  10.47323260 11.81180582  1.99995000
   9.29083797  9.76462221  1.99995000
  12.80007251 11.81267081  1.99995000
  12.81862619  7.74956679  1.99995000
  10.45269772  7.74870180  1.99995000
  13.98153668  9.76301580  1.99995000
  11.63394461  9.77636135  1.99995000
   8.06986405 11.83478983  1.99995000
   3.34028260 11.81180582  1.99995000
   2.15788797  9.76462221  1.99995000
   5.66712251 11.81267081  1.99995000
   5.68567619  7.74956679  1.99995000
   3.31974772  7.74870180  1.99995000
   6.84858668  9.76301580  1.99995000
   4.50099461  9.77636135  1.99995000
   0.93691405 11.83478983  1.99995000
   8.16189789  9.08437268  3.24680000
   9.30224723  7.09833545  3.19595000
   6.98545654  7.10124768  3.14825000
 


--------------------------------------------------------------------------------------------------------


 k-point   1 :   0.0000 0.0000 0.0000  plane waves:   48095
 k-point   2 :   0.5000 0.0000 0.0000  plane waves:   47978
 k-point   3 :   0.0000 0.5000 0.0000  plane waves:   48108
 k-point   4 :   0.5000 0.5000 0.0000  plane waves:   48064

 maximum and minimum number of plane-waves per node :      4033     3972

 maximum number of plane-waves:     48108
 maximum index in each direction: 
   IXMAX=   23   IYMAX=   20   IZMAX=   24
   IXMIN=  -23   IYMIN=  -20   IZMIN=  -24


 real space projection operators:
  total allocation   :       7133.50 KBytes
  max/ min on nodes  :        620.53        525.08


 parallel 3D FFT for wavefunctions:
    minimum data exchange during FFTs selected (reduces bandwidth)
 parallel 3D FFT for charge:
    minimum data exchange during FFTs selected (reduces bandwidth)


 total amount of memory used by VASP MPI-rank0    52878. kBytes
=======================================================================

   base      :      30000. kBytes
   nonlr-proj:       3155. kBytes
   fftplans  :       2857. kBytes
   grid      :       5345. kBytes
   one-center:         77. kBytes
   wavefun   :      11444. kBytes
 
     INWAV:  cpu time      0.0000: real time      0.0000
 Broyden mixing: mesh for mixing (old mesh)
   NGX = 47   NGY = 41   NGZ = 49
  (NGX  =140   NGY  =120   NGZ  =160)
  gives a total of  94423 points

 initial charge density was supplied:
 charge density of overlapping atoms calculated
 number of electron     289.0000000 magnetization 
 keeping initial charge density in first step


--------------------------------------------------------------------------------------------------------


 Maximum index for non-local projection operator          237
 Maximum index for augmentation-charges          211 (set IRDMAX)


--------------------------------------------------------------------------------------------------------


 First call to EWALD:  gamma=   0.128
 Maximum number of real-space cells 3x 3x 3
 Maximum number of reciprocal cells 3x 3x 3

    FEWALD:  cpu time      0.0023: real time      0.0024


--------------------------------------- Iteration      1(   1)  ---------------------------------------


    POTLOK:  cpu time      0.0377: real time      0.0394
    SETDIJ:  cpu time      0.0040: real time      0.0058
     EDDAV:  cpu time      1.7808: real time      1.7830
       DOS:  cpu time      0.0009: real time      0.0009
    --------------------------------------------
      LOOP:  cpu time      1.8235: real time      1.8292

 eigenvalue-minimisations  :  1560
 total energy-change (2. order) : 0.2881670E+04  (-0.9882442E+04)
 number of electron     289.0000000 magnetization 
 augmentation part      289.0000000 magnetization 

 DIPCOR: dipole corrections for dipol
 direction  3 min pos   111,
 dipolmoment           0.000000      0.000000      0.000489 electrons x Angstroem
 Tr[quadrupol]     -9435.325840

 energy correction for charged system         0.000000 eV
 dipol+quadrupol energy correction           -0.000000 eV
 added-field ion interaction          0.006896 eV  (added to PSCEN)


 Free energy of the ion-electron system (eV)
  ---------------------------------------------------
  alpha Z        PSCENC =       155.34731579
  Ewald energy   TEWEN  =     31804.37621222
  -Hartree energ DENC   =    -44717.69844393
  -exchange      EXHF   =         0.00000000
  -V(xc)+E(xc)   XCENC  =      1064.56155723
  PAW double counting   =     12492.88734781   -12733.26082412
  entropy T*S    EENTRO =        -0.09433431
  eigenvalues    EBANDS =      -886.69825684
  atomic energy  EATOM  =     15702.24924933
  Solvation  Ediel_sol  =         0.00000000
  ---------------------------------------------------
  free energy    TOTEN  =      2881.66982318 eV

  energy without entropy =     2881.76415750  energy(sigma->0) =     2881.71699034


--------------------------------------------------------------------------------------------------------




--------------------------------------- Iteration      1(   2)  ---------------------------------------


     EDDAV:  cpu time      2.0751: real time      2.0765
       DOS:  cpu time      0.0007: real time      0.0007
    --------------------------------------------
      LOOP:  cpu time      2.0758: real time      2.0772

 eigenvalue-minimisations  :  1984
 total energy-change (2. order) :-0.2736712E+04  (-0.2570482E+04)
 number of electron     289.0000000 magnetization 
 augmentation part      289.0000000 magnetization 

 DIPCOR: dipole corrections for dipol
 direction  3 min pos   111,
 dipolmoment           0.000000      0.000000      0.000489 electrons x Angstroem
 Tr[quadrupol]     -9435.325840

 energy correction for charged system         0.000000 eV
 dipol+quadrupol energy correction           -0.000000 eV
 added-field ion interaction          0.006896 eV  (added to PSCEN)


 Free energy of the ion-electron system (eV)
  ---------------------------------------------------
  alpha Z        PSCENC =       155.34731579
  Ewald energy   TEWEN  =     31804.37621222
  -Hartree energ DENC   =    -44717.69844393
  -exchange      EXHF   =         0.00000000
  -V(xc)+E(xc)   XCENC  =      1064.56155723
  PAW double counting   =     12492.88734781   -12733.26082412
  entropy T*S    EENTRO =        -0.03864101
  eigenvalues    EBANDS =     -3623.46565613
  atomic energy  EATOM  =     15702.24924933
  Solvation  Ediel_sol  =         0.00000000
  ---------------------------------------------------
  free energy    TOTEN  =       144.95811720 eV

  energy without entropy =      144.99675821  energy(sigma->0) =      144.97743770


--------------------------------------------------------------------------------------------------------




--------------------------------------- Iteration      1(   3)  ---------------------------------------


     EDDAV:  cpu time      1.9577: real time      1.9590
       DOS:  cpu time      0.0007: real time      0.0007
    --------------------------------------------
      LOOP:  cpu time      1.9584: real time      1.9597

 eigenvalue-minimisations  :  1808
 total energy-change (2. order) :-0.6161209E+03  (-0.6047079E+03)
 number of electron     289.0000000 magnetization 
 augmentation part      289.0000000 magnetization 

 DIPCOR: dipole corrections for dipol
 direction  3 min pos   111,
 dipolmoment           0.000000      0.000000      0.000489 electrons x Angstroem
 Tr[quadrupol]     -9435.325840

 energy correction for charged system         0.000000 eV
 dipol+quadrupol energy correction           -0.000000 eV
 added-field ion interaction          0.006896 eV  (added to PSCEN)


 Free energy of the ion-electron system (eV)
  ---------------------------------------------------
  alpha Z        PSCENC =       155.34731579
  Ewald energy   TEWEN  =     31804.37621222
  -Hartree energ DENC   =    -44717.69844393
  -exchange      EXHF   =         0.00000000
  -V(xc)+E(xc)   XCENC  =      1064.56155723
  PAW double counting   =     12492.88734781   -12733.26082412
  entropy T*S    EENTRO =        -0.10182013
  eigenvalues    EBANDS =     -4239.52338261
  atomic energy  EATOM  =     15702.24924933
  Solvation  Ediel_sol  =         0.00000000
  ---------------------------------------------------
  free energy    TOTEN  =      -471.16278840 eV

  energy without entropy =     -471.06096827  energy(sigma->0) =     -471.11187834


--------------------------------------------------------------------------------------------------------




--------------------------------------- Iteration      1(   4)  ---------------------------------------


     EDDAV:  cpu time      2.1922: real time      2.1961
       DOS:  cpu time      0.0007: real time      0.0007
    --------------------------------------------
      LOOP:  cpu time      2.1929: real time      2.1968

 eigenvalue-minimisations  :  2152
 total energy-change (2. order) :-0.4457442E+02  (-0.4207035E+02)
 number of electron     289.0000000 magnetization 
 augmentation part      289.0000000 magnetization 

 DIPCOR: dipole corrections for dipol
 direction  3 min pos   111,
 dipolmoment           0.000000      0.000000      0.000489 electrons x Angstroem
 Tr[quadrupol]     -9435.325840

 energy correction for charged system         0.000000 eV
 dipol+quadrupol energy correction           -0.000000 eV
 added-field ion interaction          0.006896 eV  (added to PSCEN)


 Free energy of the ion-electron system (eV)
  ---------------------------------------------------
  alpha Z        PSCENC =       155.34731579
  Ewald energy   TEWEN  =     31804.37621222
  -Hartree energ DENC   =    -44717.69844393
  -exchange      EXHF   =         0.00000000
  -V(xc)+E(xc)   XCENC  =      1064.56155723
  PAW double counting   =     12492.88734781   -12733.26082412
  entropy T*S    EENTRO =        -0.12571178
  eigenvalues    EBANDS =     -4284.07390606
  atomic energy  EATOM  =     15702.24924933
  Solvation  Ediel_sol  =         0.00000000
  ---------------------------------------------------
  free energy    TOTEN  =      -515.73720350 eV

  energy without entropy =     -515.61149173  energy(sigma->0) =     -515.67434762


--------------------------------------------------------------------------------------------------------




--------------------------------------- Iteration      1(   5)  ---------------------------------------


     EDDAV:  cpu time      2.1915: real time      2.1989
       DOS:  cpu time      0.0007: real time      0.0007
    CHARGE:  cpu time      0.0493: real time      0.0494
    MIXING:  cpu time      0.0022: real time      0.0022
    --------------------------------------------
      LOOP:  cpu time      2.2437: real time      2.2513

 eigenvalue-minimisations  :  2152
 total energy-change (2. order) :-0.1746790E+01  (-0.1650742E+01)
 number of electron     288.9999961 magnetization 
 augmentation part       23.0698542 magnetization 

 DIPCOR: dipole corrections for dipol
 direction  3 min pos   111,
 dipolmoment           0.000000      0.000000      0.000489 electrons x Angstroem
 Tr[quadrupol]     -9435.325840

 energy correction for charged system         0.000000 eV
 dipol+quadrupol energy correction           -0.000000 eV
 added-field ion interaction          0.006896 eV  (added to PSCEN)


 Broyden mixing:
  rms(total) = 0.68982E+01    rms(broyden)= 0.68942E+01
  rms(prec ) = 0.83519E+01
  weight for this iteration     100.00

 Free energy of the ion-electron system (eV)
  ---------------------------------------------------
  alpha Z        PSCENC =       155.34731579
  Ewald energy   TEWEN  =     31804.37621222
  -Hartree energ DENC   =    -44717.69844393
  -exchange      EXHF   =         0.00000000
  -V(xc)+E(xc)   XCENC  =      1064.56155723
  PAW double counting   =     12492.88734781   -12733.26082412
  entropy T*S    EENTRO =        -0.11481399
  eigenvalues    EBANDS =     -4285.83159403
  atomic energy  EATOM  =     15702.24924933
  Solvation  Ediel_sol  =         0.00000000
  ---------------------------------------------------
  free energy    TOTEN  =      -517.48399368 eV

  energy without entropy =     -517.36917969  energy(sigma->0) =     -517.42658669


--------------------------------------------------------------------------------------------------------




--------------------------------------- Iteration      1(   6)  ---------------------------------------


    POTLOK:  cpu time      0.0310: real time      0.0314
    SETDIJ:  cpu time      0.0033: real time      0.0050
     EDDAV:  cpu time      2.3475: real time      2.3486
       DOS:  cpu time      0.0007: real time      0.0007
    CHARGE:  cpu time      0.0502: real time      0.0502
    MIXING:  cpu time      0.0015: real time      0.0015
    --------------------------------------------
      LOOP:  cpu time      2.4342: real time      2.4373

 eigenvalue-minimisations  :  2264
 total energy-change (2. order) :-0.6481811E+02  (-0.6434885E+02)
 number of electron     288.9999954 magnetization 
 augmentation part       30.9720076 magnetization 

 DIPCOR: dipole corrections for dipol
 direction  3 min pos   103,
 dipolmoment           0.000000      0.000000     -0.996573 electrons x Angstroem
 Tr[quadrupol]     -9437.601577

 energy correction for charged system         0.000000 eV
 dipol+quadrupol energy correction           -0.035821 eV
 added-field ion interaction          1.540232 eV  (added to PSCEN)


 Broyden mixing:
  rms(total) = 0.51375E+01    rms(broyden)= 0.51350E+01
  rms(prec ) = 0.63508E+01
  weight for this iteration     100.00

 eigenvalues of (default mixing * dielectric matrix)
  average eigenvalue GAMMA=   0.6110
  0.6110

 Free energy of the ion-electron system (eV)
  ---------------------------------------------------
  alpha Z        PSCENC =       156.84483085
  Ewald energy   TEWEN  =     31804.37621222
  -Hartree energ DENC   =    -44738.03121220
  -exchange      EXHF   =         0.00000000
  -V(xc)+E(xc)   XCENC  =      1074.51059964
  PAW double counting   =     18064.46728816   -18246.87460418
  entropy T*S    EENTRO =        -0.10550669
  eigenvalues    EBANDS =     -4399.73896434
  atomic energy  EATOM  =     15702.24924933
  Solvation  Ediel_sol  =         0.00000000
  ---------------------------------------------------
  free energy    TOTEN  =      -582.30210721 eV

  energy without entropy =     -582.19660052  energy(sigma->0) =     -582.24935386


--------------------------------------------------------------------------------------------------------




--------------------------------------- Iteration      1(   7)  ---------------------------------------


    POTLOK:  cpu time      0.0312: real time      0.0324
    SETDIJ:  cpu time      0.0033: real time      0.0051
     EDDAV:  cpu time      2.1854: real time      2.1866
       DOS:  cpu time      0.0007: real time      0.0007
    CHARGE:  cpu time      0.0474: real time      0.0474
    MIXING:  cpu time      0.0013: real time      0.0013
    --------------------------------------------
      LOOP:  cpu time      2.2693: real time      2.2735

 eigenvalue-minimisations  :  2144
 total energy-change (2. order) : 0.8537386E+02  (-0.2443981E+02)
 number of electron     288.9999939 magnetization 
 augmentation part       29.6786761 magnetization 

 DIPCOR: dipole corrections for dipol
 direction  3 min pos    99,
 dipolmoment           0.000000      0.000000     -0.362864 electrons x Angstroem
 Tr[quadrupol]     -9437.558193

 energy correction for charged system         0.000000 eV
 dipol+quadrupol energy correction           -0.004749 eV
 added-field ion interaction          3.397531 eV  (added to PSCEN)


 Broyden mixing:
  rms(total) = 0.31634E+01    rms(broyden)= 0.31625E+01
  rms(prec ) = 0.35750E+01
  weight for this iteration     100.00

 eigenvalues of (default mixing * dielectric matrix)
  average eigenvalue GAMMA=   0.9838
  0.9838  0.9838

 Free energy of the ion-electron system (eV)
  ---------------------------------------------------
  alpha Z        PSCENC =       158.73320118
  Ewald energy   TEWEN  =     31804.37621222
  -Hartree energ DENC   =    -44940.61737088
  -exchange      EXHF   =         0.00000000
  -V(xc)+E(xc)   XCENC  =      1080.96187735
  PAW double counting   =     20973.64615875   -21220.26347956
  entropy T*S    EENTRO =        -0.05380928
  eigenvalues    EBANDS =     -4055.96028517
  atomic energy  EATOM  =     15702.24924933
  Solvation  Ediel_sol  =         0.00000000
  ---------------------------------------------------
  free energy    TOTEN  =      -496.92824606 eV

  energy without entropy =     -496.87443678  energy(sigma->0) =     -496.90134142


--------------------------------------------------------------------------------------------------------




--------------------------------------- Iteration      1(   8)  ---------------------------------------


    POTLOK:  cpu time      0.0300: real time      0.0304
    SETDIJ:  cpu time      0.0034: real time      0.0034
     EDDAV:  cpu time      2.2070: real time      2.2079
       DOS:  cpu time      0.0007: real time      0.0007
    CHARGE:  cpu time      0.0472: real time      0.0472
    MIXING:  cpu time      0.0013: real time      0.0013
    --------------------------------------------
      LOOP:  cpu time      2.2895: real time      2.2908

 eigenvalue-minimisations  :  2168
 total energy-change (2. order) : 0.2348285E+02  (-0.9785369E+01)
 number of electron     288.9999932 magnetization 
 augmentation part       27.9946614 magnetization 

 DIPCOR: dipole corrections for dipol
 direction  3 min pos    98,
 dipolmoment           0.000000      0.000000     -0.263194 electrons x Angstroem
 Tr[quadrupol]     -9438.596983

 energy correction for charged system         0.000000 eV
 dipol+quadrupol energy correction           -0.002498 eV
 added-field ion interaction          2.978689 eV  (added to PSCEN)


 Broyden mixing:
  rms(total) = 0.15933E+01    rms(broyden)= 0.15930E+01
  rms(prec ) = 0.16978E+01
  weight for this iteration     100.00

 eigenvalues of (default mixing * dielectric matrix)
  average eigenvalue GAMMA=   1.1971
  2.1465  0.7224  0.7224

 Free energy of the ion-electron system (eV)
  ---------------------------------------------------
  alpha Z        PSCENC =       158.31660954
  Ewald energy   TEWEN  =     31804.37621222
  -Hartree energ DENC   =    -45168.59201638
  -exchange      EXHF   =         0.00000000
  -V(xc)+E(xc)   XCENC  =      1089.13017121
  PAW double counting   =     25067.42530282   -25347.79686294
  entropy T*S    EENTRO =        -0.06598069
  eigenvalues    EBANDS =     -3778.48808611
  atomic energy  EATOM  =     15702.24924933
  Solvation  Ediel_sol  =         0.00000000
  ---------------------------------------------------
  free energy    TOTEN  =      -473.44540100 eV

  energy without entropy =     -473.37942031  energy(sigma->0) =     -473.41241066


--------------------------------------------------------------------------------------------------------




--------------------------------------- Iteration      1(   9)  ---------------------------------------


    POTLOK:  cpu time      0.0315: real time      0.0333
    SETDIJ:  cpu time      0.0034: real time      0.0034
     EDDAV:  cpu time      2.3413: real time      2.3489
       DOS:  cpu time      0.0007: real time      0.0007
    CHARGE:  cpu time      0.0480: real time      0.0480
    MIXING:  cpu time      0.0013: real time      0.0013
    --------------------------------------------
      LOOP:  cpu time      2.4261: real time      2.4355

 eigenvalue-minimisations  :  2320
 total energy-change (2. order) :-0.2758275E+02  (-0.7758535E+01)
 number of electron     288.9999896 magnetization 
 augmentation part       17.4619971 magnetization 

 DIPCOR: dipole corrections for dipol
 direction  3 min pos    98,
 dipolmoment           0.000000      0.000000     -0.060015 electrons x Angstroem
 Tr[quadrupol]     -9439.522628

 energy correction for charged system         0.000000 eV
 dipol+quadrupol energy correction           -0.000130 eV
 added-field ion interaction          0.679224 eV  (added to PSCEN)


 Broyden mixing:
  rms(total) = 0.88341E+01    rms(broyden)= 0.88328E+01
  rms(prec ) = 0.11130E+02
  weight for this iteration     100.00

 eigenvalues of (default mixing * dielectric matrix)
  average eigenvalue GAMMA=   0.9009
  2.0766  0.6196  0.6196  0.2879

 Free energy of the ion-electron system (eV)
  ---------------------------------------------------
  alpha Z        PSCENC =       156.01951329
  Ewald energy   TEWEN  =     31804.37621222
  -Hartree energ DENC   =    -45369.25143813
  -exchange      EXHF   =         0.00000000
  -V(xc)+E(xc)   XCENC  =      1095.47553421
  PAW double counting   =     30338.40264638   -30626.31311216
  entropy T*S    EENTRO =        -0.06340353
  eigenvalues    EBANDS =     -3601.92335358
  atomic energy  EATOM  =     15702.24924933
  Solvation  Ediel_sol  =         0.00000000
  ---------------------------------------------------
  free energy    TOTEN  =      -501.02815196 eV

  energy without entropy =     -500.96474843  energy(sigma->0) =     -500.99645020


--------------------------------------------------------------------------------------------------------




--------------------------------------- Iteration      1(  10)  ---------------------------------------


    POTLOK:  cpu time      0.0301: real time      0.0302
    SETDIJ:  cpu time      0.0032: real time      0.0034
     EDDAV:  cpu time      2.2637: real time      2.2647
       DOS:  cpu time      0.0007: real time      0.0007
    CHARGE:  cpu time      0.0472: real time      0.0472
    MIXING:  cpu time      0.0013: real time      0.0013
    --------------------------------------------
      LOOP:  cpu time      2.3462: real time      2.3476

 eigenvalue-minimisations  :  2240
 total energy-change (2. order) : 0.2674211E+02  (-0.2510827E+01)
 number of electron     288.9999934 magnetization 
 augmentation part       27.9688719 magnetization 

 DIPCOR: dipole corrections for dipol
 direction  3 min pos   104,
 dipolmoment           0.000000      0.000000     -0.225072 electrons x Angstroem
 Tr[quadrupol]     -9439.228185

 energy correction for charged system         0.000000 eV
 dipol+quadrupol energy correction           -0.001827 eV
 added-field ion interaction         -0.092023 eV  (added to PSCEN)


 Broyden mixing:
  rms(total) = 0.60205E+00    rms(broyden)= 0.59051E+00
  rms(prec ) = 0.77547E+00
  weight for this iteration     100.00

 eigenvalues of (default mixing * dielectric matrix)
  average eigenvalue GAMMA=   0.9295
  2.1761  0.9337  0.6536  0.6536  0.2304

 Free energy of the ion-electron system (eV)
  ---------------------------------------------------
  alpha Z        PSCENC =       155.24656891
  Ewald energy   TEWEN  =     31804.37621222
  -Hartree energ DENC   =    -45271.63196084
  -exchange      EXHF   =         0.00000000
  -V(xc)+E(xc)   XCENC  =      1092.93462379
  PAW double counting   =     29867.35518514   -30145.72418835
  entropy T*S    EENTRO =        -0.06373936
  eigenvalues    EBANDS =     -3679.02798838
  atomic energy  EATOM  =     15702.24924933
  Solvation  Ediel_sol  =         0.00000000
  ---------------------------------------------------
  free energy    TOTEN  =      -474.28603754 eV

  energy without entropy =     -474.22229818  energy(sigma->0) =     -474.25416786


--------------------------------------------------------------------------------------------------------




--------------------------------------- Iteration      1(  11)  ---------------------------------------


    POTLOK:  cpu time      0.0307: real time      0.0309
    SETDIJ:  cpu time      0.0034: real time      0.0034
     EDDAV:  cpu time      2.1379: real time      2.1388
       DOS:  cpu time      0.0008: real time      0.0008
    CHARGE:  cpu time      0.0500: real time      0.0503
    MIXING:  cpu time      0.0015: real time      0.0015
    --------------------------------------------
      LOOP:  cpu time      2.2243: real time      2.2257

 eigenvalue-minimisations  :  2008
 total energy-change (2. order) :-0.6183124E+00  (-0.5904039E+00)
 number of electron     288.9999936 magnetization 
 augmentation part       28.0672077 magnetization 

 DIPCOR: dipole corrections for dipol
 direction  3 min pos   102,
 dipolmoment           0.000000      0.000000     -0.150841 electrons x Angstroem
 Tr[quadrupol]     -9439.867459

 energy correction for charged system         0.000000 eV
 dipol+quadrupol energy correction           -0.000821 eV
 added-field ion interaction          0.527932 eV  (added to PSCEN)


 Broyden mixing:
  rms(total) = 0.55343E+00    rms(broyden)= 0.55281E+00
  rms(prec ) = 0.74541E+00
  weight for this iteration     100.00

 eigenvalues of (default mixing * dielectric matrix)
  average eigenvalue GAMMA=   0.9631
  2.3965  0.9137  0.9137  0.6632  0.6632  0.2281

 Free energy of the ion-electron system (eV)
  ---------------------------------------------------
  alpha Z        PSCENC =       155.86753100
  Ewald energy   TEWEN  =     31804.37621222
  -Hartree energ DENC   =    -45300.08319469
  -exchange      EXHF   =         0.00000000
  -V(xc)+E(xc)   XCENC  =      1093.28068772
  PAW double counting   =     31065.37888919   -31338.84613163
  entropy T*S    EENTRO =        -0.06466575
  eigenvalues    EBANDS =     -3657.06292733
  atomic energy  EATOM  =     15702.24924933
  Solvation  Ediel_sol  =         0.00000000
  ---------------------------------------------------
  free energy    TOTEN  =      -474.90434994 eV

  energy without entropy =     -474.83968419  energy(sigma->0) =     -474.87201706


--------------------------------------------------------------------------------------------------------




--------------------------------------- Iteration      1(  12)  ---------------------------------------


    POTLOK:  cpu time      0.0320: real time      0.0331
    SETDIJ:  cpu time      0.0029: real time      0.0043
     EDDAV:  cpu time      2.1826: real time      2.1837
       DOS:  cpu time      0.0007: real time      0.0007
    CHARGE:  cpu time      0.0471: real time      0.0471
    MIXING:  cpu time      0.0014: real time      0.0014
    --------------------------------------------
      LOOP:  cpu time      2.2667: real time      2.2703

 eigenvalue-minimisations  :  2072
 total energy-change (2. order) :-0.3020354E+00  (-0.8798574E-01)
 number of electron     288.9999935 magnetization 
 augmentation part       28.2162270 magnetization 

 DIPCOR: dipole corrections for dipol
 direction  3 min pos   105,
 dipolmoment           0.000000      0.000000     -0.119902 electrons x Angstroem
 Tr[quadrupol]     -9440.300724

 energy correction for charged system         0.000000 eV
 dipol+quadrupol energy correction           -0.000519 eV
 added-field ion interaction         -0.283359 eV  (added to PSCEN)


 Broyden mixing:
  rms(total) = 0.66812E+00    rms(broyden)= 0.66807E+00
  rms(prec ) = 0.86280E+00
  weight for this iteration     100.00

 eigenvalues of (default mixing * dielectric matrix)
  average eigenvalue GAMMA=   0.9597
  2.4290  1.0553  1.0553  0.6482  0.6482  0.2272  0.6544

 Free energy of the ion-electron system (eV)
  ---------------------------------------------------
  alpha Z        PSCENC =       155.05654149
  Ewald energy   TEWEN  =     31804.37621222
  -Hartree energ DENC   =    -45319.65312154
  -exchange      EXHF   =         0.00000000
  -V(xc)+E(xc)   XCENC  =      1093.54417623
  PAW double counting   =     31630.10024804   -31899.95524369
  entropy T*S    EENTRO =        -0.06499588
  eigenvalues    EBANDS =     -3640.85945153
  atomic energy  EATOM  =     15702.24924933
  Solvation  Ediel_sol  =         0.00000000
  ---------------------------------------------------
  free energy    TOTEN  =      -475.20638532 eV

  energy without entropy =     -475.14138944  energy(sigma->0) =     -475.17388738


--------------------------------------------------------------------------------------------------------




--------------------------------------- Iteration      1(  13)  ---------------------------------------


    POTLOK:  cpu time      0.0308: real time      0.0310
    SETDIJ:  cpu time      0.0034: real time      0.0034
     EDDAV:  cpu time      2.1692: real time      2.1703
       DOS:  cpu time      0.0007: real time      0.0007
    CHARGE:  cpu time      0.0471: real time      0.0471
    MIXING:  cpu time      0.0015: real time      0.0015
    --------------------------------------------
      LOOP:  cpu time      2.2526: real time      2.2539

 eigenvalue-minimisations  :  2112
 total energy-change (2. order) : 0.4877674E-01  (-0.1693943E-01)
 number of electron     288.9999935 magnetization 
 augmentation part       28.2316322 magnetization 

 DIPCOR: dipole corrections for dipol
 direction  3 min pos   105,
 dipolmoment           0.000000      0.000000     -0.085872 electrons x Angstroem
 Tr[quadrupol]     -9440.758831

 energy correction for charged system         0.000000 eV
 dipol+quadrupol energy correction           -0.000266 eV
 added-field ion interaction         -0.202936 eV  (added to PSCEN)


 Broyden mixing:
  rms(total) = 0.68094E+00    rms(broyden)= 0.68094E+00
  rms(prec ) = 0.86815E+00
  weight for this iteration     100.00

 eigenvalues of (default mixing * dielectric matrix)
  average eigenvalue GAMMA=   0.9916
  2.3370  1.5706  0.9110  0.9110  0.6900  0.6900  0.2279  0.5953

 Free energy of the ion-electron system (eV)
  ---------------------------------------------------
  alpha Z        PSCENC =       155.13721736
  Ewald energy   TEWEN  =     31804.37621222
[...]
 Tr[quadrupol]     -9240.934440

 energy correction for charged system         0.000000 eV
 dipol+quadrupol energy correction           -0.002077 eV
 added-field ion interaction          1.698128 eV  (added to PSCEN)


 Broyden mixing:
  rms(total) = 0.36597E-01    rms(broyden)= 0.36576E-01
  rms(prec ) = 0.41629E-01
  weight for this iteration     100.00

 eigenvalues of (default mixing * dielectric matrix)
  average eigenvalue GAMMA=   1.0358
  2.0678  1.0503  1.0503  0.4553  0.5553

 Free energy of the ion-electron system (eV)
  ---------------------------------------------------
  alpha Z        PSCENC =       160.13090847
  Ewald energy   TEWEN  =     29352.48382998
  -Hartree energ DENC   =    -43067.48928528
  -exchange      EXHF   =         0.00000000
  -V(xc)+E(xc)   XCENC  =      1091.73599354
  PAW double counting   =     31012.36956362   -31269.19072545
  entropy T*S    EENTRO =        -0.04613848
  eigenvalues    EBANDS =     -3462.13199717
  atomic energy  EATOM  =     15702.24924933
  Solvation  Ediel_sol  =         0.00000000
  ---------------------------------------------------
  free energy    TOTEN  =      -479.88860144 eV

  energy without entropy =     -479.84246296  energy(sigma->0) =     -479.86553220


--------------------------------------------------------------------------------------------------------




--------------------------------------- Iteration     39(   7)  ---------------------------------------


    POTLOK:  cpu time      0.0294: real time      0.0296
    SETDIJ:  cpu time      0.0034: real time      0.0034
     EDDAV:  cpu time      2.1988: real time      2.1998
       DOS:  cpu time      0.0007: real time      0.0007
    CHARGE:  cpu time      0.0470: real time      0.0470
    MIXING:  cpu time      0.0014: real time      0.0014
    --------------------------------------------
      LOOP:  cpu time      2.2807: real time      2.2818

 eigenvalue-minimisations  :  2136
 total energy-change (2. order) : 0.1523418E-03  (-0.1771739E-02)
 number of electron     288.9999994 magnetization 
 augmentation part       27.7323405 magnetization 

 DIPCOR: dipole corrections for dipol
 direction  3 min pos   108,
 dipolmoment           0.000000      0.000000      0.238242 electrons x Angstroem
 Tr[quadrupol]     -9240.923644

 energy correction for charged system         0.000000 eV
 dipol+quadrupol energy correction           -0.002082 eV
 added-field ion interaction          1.699816 eV  (added to PSCEN)


 Broyden mixing:
  rms(total) = 0.23715E-01    rms(broyden)= 0.23709E-01
  rms(prec ) = 0.25151E-01
  weight for this iteration     100.00

 eigenvalues of (default mixing * dielectric matrix)
  average eigenvalue GAMMA=   1.0459
  2.1027  1.1861  1.1861  0.9081  0.4532  0.4393

 Free energy of the ion-electron system (eV)
  ---------------------------------------------------
  alpha Z        PSCENC =       160.13259251
  Ewald energy   TEWEN  =     29352.48382998
  -Hartree energ DENC   =    -43067.03118577
  -exchange      EXHF   =         0.00000000
  -V(xc)+E(xc)   XCENC  =      1091.73106561
  PAW double counting   =     30994.74436128   -31251.49127020
  entropy T*S    EENTRO =        -0.04571119
  eigenvalues    EBANDS =     -3462.66138066
  atomic energy  EATOM  =     15702.24924933
  Solvation  Ediel_sol  =         0.00000000
  ---------------------------------------------------
  free energy    TOTEN  =      -479.88844910 eV

  energy without entropy =     -479.84273791  energy(sigma->0) =     -479.86559351


--------------------------------------------------------------------------------------------------------




--------------------------------------- Iteration     39(   8)  ---------------------------------------


    POTLOK:  cpu time      0.0295: real time      0.0296
    SETDIJ:  cpu time      0.0034: real time      0.0034
     EDDAV:  cpu time      2.3116: real time      2.3128
       DOS:  cpu time      0.0007: real time      0.0007
    CHARGE:  cpu time      0.0469: real time      0.0469
    MIXING:  cpu time      0.0014: real time      0.0014
    --------------------------------------------
      LOOP:  cpu time      2.3934: real time      2.3947

 eigenvalue-minimisations  :  2280
 total energy-change (2. order) :-0.7334919E-04  (-0.2140603E-03)
 number of electron     288.9999994 magnetization 
 augmentation part       27.7291877 magnetization 

 DIPCOR: dipole corrections for dipol
 direction  3 min pos   108,
 dipolmoment           0.000000      0.000000      0.238588 electrons x Angstroem
 Tr[quadrupol]     -9240.913023

 energy correction for charged system         0.000000 eV
 dipol+quadrupol energy correction           -0.002088 eV
 added-field ion interaction          1.702281 eV  (added to PSCEN)


 Broyden mixing:
  rms(total) = 0.13452E-01    rms(broyden)= 0.13448E-01
  rms(prec ) = 0.14196E-01
  weight for this iteration     100.00

 eigenvalues of (default mixing * dielectric matrix)
  average eigenvalue GAMMA=   1.1133
  2.1001  1.5630  1.5630  0.9103  0.7577  0.4646  0.4343

 Free energy of the ion-electron system (eV)
  ---------------------------------------------------
  alpha Z        PSCENC =       160.13505188
  Ewald energy   TEWEN  =     29352.48382998
  -Hartree energ DENC   =    -43066.98632119
  -exchange      EXHF   =         0.00000000
  -V(xc)+E(xc)   XCENC  =      1091.73747842
  PAW double counting   =     30999.78058357   -31256.55338736
  entropy T*S    EENTRO =        -0.04515344
  eigenvalues    EBANDS =     -3462.68985365
  atomic energy  EATOM  =     15702.24924933
  Solvation  Ediel_sol  =         0.00000000
  ---------------------------------------------------
  free energy    TOTEN  =      -479.88852245 eV

  energy without entropy =     -479.84336902  energy(sigma->0) =     -479.86594573


--------------------------------------------------------------------------------------------------------




--------------------------------------- Iteration     39(   9)  ---------------------------------------


    POTLOK:  cpu time      0.0295: real time      0.0297
    SETDIJ:  cpu time      0.0033: real time      0.0033
     EDDAV:  cpu time      1.9664: real time      1.9737
       DOS:  cpu time      0.0008: real time      0.0007
    CHARGE:  cpu time      0.0468: real time      0.0470
    MIXING:  cpu time      0.0014: real time      0.0014
    --------------------------------------------
      LOOP:  cpu time      2.0483: real time      2.0559

 eigenvalue-minimisations  :  1800
 total energy-change (2. order) :-0.2086751E-03  (-0.7489876E-04)
 number of electron     288.9999994 magnetization 
 augmentation part       27.7299952 magnetization 

 DIPCOR: dipole corrections for dipol
 direction  3 min pos   107,
 dipolmoment           0.000000      0.000000      0.238818 electrons x Angstroem
 Tr[quadrupol]     -9240.853550

 energy correction for charged system         0.000000 eV
 dipol+quadrupol energy correction           -0.002092 eV
 added-field ion interaction          1.229339 eV  (added to PSCEN)


 Broyden mixing:
  rms(total) = 0.37526E-02    rms(broyden)= 0.37497E-02
  rms(prec ) = 0.44063E-02
  weight for this iteration     100.00

 eigenvalues of (default mixing * dielectric matrix)
  average eigenvalue GAMMA=   1.1332
  2.3769  1.5215  1.5215  1.0337  1.0337  0.6824  0.4632  0.4324

 Free energy of the ion-electron system (eV)
  ---------------------------------------------------
  alpha Z        PSCENC =       159.66210545
  Ewald energy   TEWEN  =     29352.48382998
  -Hartree energ DENC   =    -43066.71314802
  -exchange      EXHF   =         0.00000000
  -V(xc)+E(xc)   XCENC  =      1091.73319607
  PAW double counting   =     31006.73276045   -31263.50033240
  entropy T*S    EENTRO =        -0.04541319
  eigenvalues    EBANDS =     -3462.49097880
  atomic energy  EATOM  =     15702.24924933
  Solvation  Ediel_sol  =         0.00000000
  ---------------------------------------------------
  free energy    TOTEN  =      -479.88873113 eV

  energy without entropy =     -479.84331794  energy(sigma->0) =     -479.86602453


--------------------------------------------------------------------------------------------------------




--------------------------------------- Iteration     39(  10)  ---------------------------------------


    POTLOK:  cpu time      0.0294: real time      0.0296
    SETDIJ:  cpu time      0.0034: real time      0.0034
     EDDAV:  cpu time      1.9267: real time      1.9276
       DOS:  cpu time      0.0007: real time      0.0007
    CHARGE:  cpu time      0.0469: real time      0.0469
    MIXING:  cpu time      0.0015: real time      0.0015
    --------------------------------------------
      LOOP:  cpu time      2.0086: real time      2.0097

 eigenvalue-minimisations  :  1824
 total energy-change (2. order) :-0.1447383E-03  (-0.9258028E-05)
 number of electron     288.9999994 magnetization 
 augmentation part       27.7288044 magnetization 

 DIPCOR: dipole corrections for dipol
 direction  3 min pos   107,
 dipolmoment           0.000000      0.000000      0.239279 electrons x Angstroem
 Tr[quadrupol]     -9240.839536

 energy correction for charged system         0.000000 eV
 dipol+quadrupol energy correction           -0.002100 eV
 added-field ion interaction          1.231715 eV  (added to PSCEN)


 Broyden mixing:
  rms(total) = 0.16423E-02    rms(broyden)= 0.16412E-02
  rms(prec ) = 0.21776E-02
  weight for this iteration     100.00

 eigenvalues of (default mixing * dielectric matrix)
  average eigenvalue GAMMA=   1.1686
  2.5073  1.4435  1.4435  1.5002  1.0135  1.0135  0.7014  0.4623  0.4322

 Free energy of the ion-electron system (eV)
  ---------------------------------------------------
  alpha Z        PSCENC =       159.66447323
  Ewald energy   TEWEN  =     29352.48382998
  -Hartree energ DENC   =    -43066.48125604
  -exchange      EXHF   =         0.00000000
  -V(xc)+E(xc)   XCENC  =      1091.73063898
  PAW double counting   =     31003.67646212   -31260.45109904
  entropy T*S    EENTRO =        -0.04544839
  eigenvalues    EBANDS =     -3462.71572604
  atomic energy  EATOM  =     15702.24924933
  Solvation  Ediel_sol  =         0.00000000
  ---------------------------------------------------
  free energy    TOTEN  =      -479.88887586 eV

  energy without entropy =     -479.84342748  energy(sigma->0) =     -479.86615167


--------------------------------------------------------------------------------------------------------




--------------------------------------- Iteration     39(  11)  ---------------------------------------


    POTLOK:  cpu time      0.0305: real time      0.0320
    SETDIJ:  cpu time      0.0033: real time      0.0033
     EDDAV:  cpu time      1.3637: real time      1.3644
       DOS:  cpu time      0.0007: real time      0.0007
    CHARGE:  cpu time      0.0569: real time      0.0569
    MIXING:  cpu time      0.0016: real time      0.0016
    --------------------------------------------
      LOOP:  cpu time      1.4568: real time      1.4589

 eigenvalue-minimisations  :  1152
 total energy-change (2. order) :-0.1069753E-03  (-0.3029944E-05)
 number of electron     288.9999994 magnetization 
 augmentation part       27.7294262 magnetization 

 DIPCOR: dipole corrections for dipol
 direction  3 min pos   107,
 dipolmoment           0.000000      0.000000      0.239659 electrons x Angstroem
 Tr[quadrupol]     -9240.826080

 energy correction for charged system         0.000000 eV
 dipol+quadrupol energy correction           -0.002106 eV
 added-field ion interaction          1.233667 eV  (added to PSCEN)


 Broyden mixing:
  rms(total) = 0.69143E-03    rms(broyden)= 0.69094E-03
  rms(prec ) = 0.12236E-02
  weight for this iteration     100.00

 eigenvalues of (default mixing * dielectric matrix)
  average eigenvalue GAMMA=   1.1941
  2.5485  1.8010  1.4624  1.4624  1.0703  1.0703  0.9106  0.7216  0.4621  0.4322

 Free energy of the ion-electron system (eV)
  ---------------------------------------------------
  alpha Z        PSCENC =       159.66641882
  Ewald energy   TEWEN  =     29352.48382998
  -Hartree energ DENC   =    -43066.22942324
  -exchange      EXHF   =         0.00000000
  -V(xc)+E(xc)   XCENC  =      1091.72811677
  PAW double counting   =     31003.31536278   -31260.08418589
  entropy T*S    EENTRO =        -0.04542456
  eigenvalues    EBANDS =     -3462.97292683
  atomic energy  EATOM  =     15702.24924933
  Solvation  Ediel_sol  =         0.00000000
  ---------------------------------------------------
  free energy    TOTEN  =      -479.88898284 eV

  energy without entropy =     -479.84355828  energy(sigma->0) =     -479.86627056


--------------------------------------------------------------------------------------------------------




--------------------------------------- Iteration     39(  12)  ---------------------------------------


    POTLOK:  cpu time      0.0295: real time      0.0297
    SETDIJ:  cpu time      0.0034: real time      0.0034
     EDDAV:  cpu time      1.2316: real time      1.2324
       DOS:  cpu time      0.0007: real time      0.0007
    CHARGE:  cpu time      0.0469: real time      0.0469
    MIXING:  cpu time      0.0016: real time      0.0016
    --------------------------------------------
      LOOP:  cpu time      1.3138: real time      1.3147

 eigenvalue-minimisations  :   984
 total energy-change (2. order) :-0.7542257E-04  (-0.1062188E-05)
 number of electron     288.9999994 magnetization 
 augmentation part       27.7292644 magnetization 

 DIPCOR: dipole corrections for dipol
 direction  3 min pos   107,
 dipolmoment           0.000000      0.000000      0.239922 electrons x Angstroem
 Tr[quadrupol]     -9240.814381

 energy correction for charged system         0.000000 eV
 dipol+quadrupol energy correction           -0.002111 eV
 added-field ion interaction          1.235022 eV  (added to PSCEN)


 Broyden mixing:
  rms(total) = 0.36973E-03    rms(broyden)= 0.36958E-03
  rms(prec ) = 0.85306E-03
  weight for this iteration     100.00

 eigenvalues of (default mixing * dielectric matrix)
  average eigenvalue GAMMA=   1.2355
  2.6378  1.9272  1.5075  1.5075  1.3849  1.0606  1.0606  0.8863  0.7243  0.4621
  0.4321

 Free energy of the ion-electron system (eV)
  ---------------------------------------------------
  alpha Z        PSCENC =       159.66776900
  Ewald energy   TEWEN  =     29352.48382998
  -Hartree energ DENC   =    -43066.04865782
  -exchange      EXHF   =         0.00000000
  -V(xc)+E(xc)   XCENC  =      1091.72718974
  PAW double counting   =     31003.29464429   -31260.06434142
  entropy T*S    EENTRO =        -0.04545144
  eigenvalues    EBANDS =     -3463.15328992
  atomic energy  EATOM  =     15702.24924933
  Solvation  Ediel_sol  =         0.00000000
  ---------------------------------------------------
  free energy    TOTEN  =      -479.88905826 eV

  energy without entropy =     -479.84360682  energy(sigma->0) =     -479.86633254


--------------------------------------------------------------------------------------------------------




--------------------------------------- Iteration     39(  13)  ---------------------------------------


    POTLOK:  cpu time      0.0297: real time      0.0298
    SETDIJ:  cpu time      0.0034: real time      0.0034
     EDDAV:  cpu time      1.3354: real time      1.3359
       DOS:  cpu time      0.0007: real time      0.0007
    CHARGE:  cpu time      0.0467: real time      0.0469
    MIXING:  cpu time      0.0017: real time      0.0017
    --------------------------------------------
      LOOP:  cpu time      1.4175: real time      1.4183

 eigenvalue-minimisations  :  1120
 total energy-change (2. order) :-0.8824441E-04  (-0.1631386E-05)
 number of electron     288.9999994 magnetization 
 augmentation part       27.7293507 magnetization 

 DIPCOR: dipole corrections for dipol
 direction  3 min pos   107,
 dipolmoment           0.000000      0.000000      0.240272 electrons x Angstroem
 Tr[quadrupol]     -9240.796785

 energy correction for charged system         0.000000 eV
 dipol+quadrupol energy correction           -0.002117 eV
 added-field ion interaction          1.236826 eV  (added to PSCEN)


 Broyden mixing:
  rms(total) = 0.27392E-03    rms(broyden)= 0.27381E-03
  rms(prec ) = 0.55199E-03
  weight for this iteration     100.00

 eigenvalues of (default mixing * dielectric matrix)
  average eigenvalue GAMMA=   1.2997
  2.6352  2.6352  1.4720  1.4720  1.4283  1.4283  1.0398  1.0398  0.8201  0.7314
  0.4321  0.4621

 Free energy of the ion-electron system (eV)
  ---------------------------------------------------
  alpha Z        PSCENC =       159.66956735
  Ewald energy   TEWEN  =     29352.48382998
  -Hartree energ DENC   =    -43065.78851261
  -exchange      EXHF   =         0.00000000
  -V(xc)+E(xc)   XCENC  =      1091.72543080
  PAW double counting   =     31003.19100610   -31259.95929621
  entropy T*S    EENTRO =        -0.04545563
  eigenvalues    EBANDS =     -3463.41496563
  atomic energy  EATOM  =     15702.24924933
  Solvation  Ediel_sol  =         0.00000000
  ---------------------------------------------------
  free energy    TOTEN  =      -479.88914651 eV

  energy without entropy =     -479.84369087  energy(sigma->0) =     -479.86641869


--------------------------------------------------------------------------------------------------------




--------------------------------------- Iteration     39(  14)  ---------------------------------------


    POTLOK:  cpu time      0.0299: real time      0.0301
    SETDIJ:  cpu time      0.0033: real time      0.0033
     EDDAV:  cpu time      1.2638: real time      1.2642
       DOS:  cpu time      0.0007: real time      0.0007
    CHARGE:  cpu time      0.0573: real time      0.0573
    MIXING:  cpu time      0.0017: real time      0.0017
    --------------------------------------------
      LOOP:  cpu time      1.3567: real time      1.3573

 eigenvalue-minimisations  :  1032
 total energy-change (2. order) :-0.5611166E-04  (-0.8100376E-06)
 number of electron     288.9999994 magnetization 
 augmentation part       27.7293854 magnetization 

 DIPCOR: dipole corrections for dipol
 direction  3 min pos   107,
 dipolmoment           0.000000      0.000000      0.240546 electrons x Angstroem
 Tr[quadrupol]     -9240.780284

 energy correction for charged system         0.000000 eV
 dipol+quadrupol energy correction           -0.002122 eV
 added-field ion interaction          1.238235 eV  (added to PSCEN)


 Broyden mixing:
  rms(total) = 0.19441E-03    rms(broyden)= 0.19431E-03
  rms(prec ) = 0.33759E-03
  weight for this iteration     100.00

 eigenvalues of (default mixing * dielectric matrix)
  average eigenvalue GAMMA=   1.3807
  3.7867  2.6061  1.5087  1.5087  1.5340  1.5340  0.4321  0.4621  1.0701  1.0701
  0.7287  0.8540  0.8540

 Free energy of the ion-electron system (eV)
  ---------------------------------------------------
  alpha Z        PSCENC =       159.67097123
  Ewald energy   TEWEN  =     29352.48382998
  -Hartree energ DENC   =    -43065.56635474
  -exchange      EXHF   =         0.00000000
  -V(xc)+E(xc)   XCENC  =      1091.72403754
  PAW double counting   =     31003.43839778   -31260.20662695
  entropy T*S    EENTRO =        -0.04546356
  eigenvalues    EBANDS =     -3463.63724324
  atomic energy  EATOM  =     15702.24924933
  Solvation  Ediel_sol  =         0.00000000
  ---------------------------------------------------
  free energy    TOTEN  =      -479.88920262 eV

  energy without entropy =     -479.84373906  energy(sigma->0) =     -479.86647084


--------------------------------------------------------------------------------------------------------




--------------------------------------- Iteration     39(  15)  ---------------------------------------


    POTLOK:  cpu time      0.0297: real time      0.0298
    SETDIJ:  cpu time      0.0034: real time      0.0034
