<?xml version="1.0" encoding="ISO-8859-1"?>
<modeling>
 <generator>
  <i name="program" type="string">vasp </i>
  <i name="version" type="string">6.3.2  </i>
  <i name="subversion" type="string">27Jun22 (build May 04 2024 18:40:40) complex                          parallel </i>
  <i name="platform" type="string">LinuxIFC </i>
  <i name="date" type="string">2024 09 02 </i>
  <i name="time" type="string">22:26:14 </i>
 </generator>
 <incar>
  <i type="string" name="SYSTEM">slab_Cel1-OPT</i>
  <i type="int" name="ISTART">     0</i>
  <i type="string" name="PREC">N</i>
  <i type="string" name="ALGO">N</i>
  <i type="int" name="ICHARG">     2</i>
  <i type="int" name="NELM">   200</i>
  <i type="int" name="IBRION">     2</i>
  <i name="EDIFF">      0.00001000</i>
  <i name="EDIFFG">     -0.05000000</i>
  <i type="int" name="NSW">  1000</i>
  <i type="int" name="ISIF">     3</i>
  <i name="ENCUT">    400.00000000</i>
  <i name="POTIM">      0.10000000</i>
  <i type="string" name="LREAL">AUTO</i>
  <i type="int" name="ISMEAR">     0</i>
  <i name="SIGMA">      0.10000000</i>
  <i type="logical" name="LWAVE"> F  </i>
  <i type="logical" name="LCHARG"> F  </i>
  <i type="logical" name="LELF"> F  </i>
  <i type="logical" name="LAECHG"> F  </i>
  <i type="logical" name="LDIPOL"> T  </i>
  <i type="int" name="IDIPOL">     3</i>
 </incar>
 <primitive_cell>
  <structure name="primitive_cell" >
   <crystal>
    <varray name="basis" >
     <v>      14.26590000       0.00000000       0.00000000 </v>
     <v>       0.00000000      12.35699650       0.00000000 </v>
     <v>       0.00000000       0.00000000      15.00000000 </v>
    </varray>
    <i name="volume">   2644.25514646 </i>
    <varray name="rec_basis" >
     <v>       0.07009722       0.00000000       0.00000000 </v>
     <v>       0.00000000       0.08092581       0.00000000 </v>
     <v>       0.00000000       0.00000000       0.06666667 </v>
    </varray>
   </crystal>
   <varray name="positions" >
    <v>       0.06537593       0.40364000       0.13333000 </v>
    <v>       0.98097748       0.23494000       0.13333000 </v>
    <v>       0.22593437       0.39820000       0.13333000 </v>
    <v>       0.81543575       0.57710000       0.13333000 </v>
    <v>       0.14973747       0.23490000       0.13333000 </v>
    <v>       0.90517930       0.39797000       0.13333000 </v>
    <v>       0.56537593       0.40364000       0.13333000 </v>
    <v>       0.48097748       0.23494000       0.13333000 </v>
    <v>       0.72593437       0.39820000       0.13333000 </v>
    <v>       0.31543575       0.57710000       0.13333000 </v>
    <v>       0.64973747       0.23490000       0.13333000 </v>
    <v>       0.40517930       0.39797000       0.13333000 </v>
    <v>       0.81551954       0.90364000       0.13333000 </v>
    <v>       0.73112108       0.73494000       0.13333000 </v>
    <v>       0.97607797       0.89820000       0.13333000 </v>
    <v>       0.06529214       0.07710000       0.13333000 </v>
    <v>       0.89988107       0.73490000       0.13333000 </v>
    <v>       0.65532291       0.89797000       0.13333000 </v>
    <v>       0.31551954       0.90364000       0.13333000 </v>
    <v>       0.23112108       0.73494000       0.13333000 </v>
    <v>       0.47607797       0.89820000       0.13333000 </v>
    <v>       0.56529214       0.07710000       0.13333000 </v>
    <v>       0.39988107       0.73490000       0.13333000 </v>
    <v>       0.15532291       0.89797000       0.13333000 </v>
    <v>       0.98400093       0.45588000       0.13333000 </v>
    <v>       0.90111835       0.29021000       0.13333000 </v>
    <v>       0.14710595       0.45595000       0.13333000 </v>
    <v>       0.14840652       0.12714000       0.13333000 </v>
    <v>       0.98256150       0.12707000       0.13333000 </v>
    <v>       0.22992331       0.29008000       0.13333000 </v>
    <v>       0.06536362       0.29116000       0.13333000 </v>
    <v>       0.81553147       0.45774000       0.13333000 </v>
    <v>       0.48400093       0.45588000       0.13333000 </v>
    <v>       0.40111835       0.29021000       0.13333000 </v>
    <v>       0.64710595       0.45595000       0.13333000 </v>
    <v>       0.64840652       0.12714000       0.13333000 </v>
    <v>       0.48256150       0.12707000       0.13333000 </v>
    <v>       0.72992331       0.29008000       0.13333000 </v>
    <v>       0.56536362       0.29116000       0.13333000 </v>
    <v>       0.31553147       0.45774000       0.13333000 </v>
    <v>       0.73414454       0.95588000       0.13333000 </v>
    <v>       0.65126196       0.79021000       0.13333000 </v>
    <v>       0.89724956       0.95595000       0.13333000 </v>
    <v>       0.89855012       0.62714000       0.13333000 </v>
    <v>       0.73270510       0.62707000       0.13333000 </v>
    <v>       0.98006692       0.79008000       0.13333000 </v>
    <v>       0.81550723       0.79116000       0.13333000 </v>
    <v>       0.56567507       0.95774000       0.13333000 </v>
    <v>       0.23414454       0.95588000       0.13333000 </v>
    <v>       0.15126196       0.79021000       0.13333000 </v>
    <v>       0.39724956       0.95595000       0.13333000 </v>
    <v>       0.39855012       0.62714000       0.13333000 </v>
    <v>       0.23270510       0.62707000       0.13333000 </v>
    <v>       0.48006692       0.79008000       0.13333000 </v>
    <v>       0.31550723       0.79116000       0.13333000 </v>
    <v>       0.06567507       0.95774000       0.13333000 </v>
    <v>       0.57212639       0.73516025       0.21645333 </v>
    <v>       0.65206172       0.57443857       0.21306333 </v>
    <v>       0.48966112       0.57467425       0.20988333 </v>
   </varray>
  </structure>
  <varray name="primitive_index" >
   <v type="int" >        1 </v>
   <v type="int" >        2 </v>
   <v type="int" >        3 </v>
   <v type="int" >        4 </v>
   <v type="int" >        5 </v>
   <v type="int" >        6 </v>
   <v type="int" >        7 </v>
   <v type="int" >        8 </v>
   <v type="int" >        9 </v>
   <v type="int" >       10 </v>
   <v type="int" >       11 </v>
   <v type="int" >       12 </v>
   <v type="int" >       13 </v>
   <v type="int" >       14 </v>
   <v type="int" >       15 </v>
   <v type="int" >       16 </v>
   <v type="int" >       17 </v>
   <v type="int" >       18 </v>
   <v type="int" >       19 </v>
   <v type="int" >       20 </v>
   <v type="int" >       21 </v>
   <v type="int" >       22 </v>
   <v type="int" >       23 </v>
   <v type="int" >       24 </v>
   <v type="int" >       25 </v>
   <v type="int" >       26 </v>
   <v type="int" >       27 </v>
   <v type="int" >       28 </v>
   <v type="int" >       29 </v>
   <v type="int" >       30 </v>
   <v type="int" >       31 </v>
   <v type="int" >       32 </v>
   <v type="int" >       33 </v>
   <v type="int" >       34 </v>
   <v type="int" >       35 </v>
   <v type="int" >       36 </v>
   <v type="int" >       37 </v>
   <v type="int" >       38 </v>
   <v type="int" >       39 </v>
   <v type="int" >       40 </v>
   <v type="int" >       41 </v>
   <v type="int" >       42 </v>
   <v type="int" >       43 </v>
   <v type="int" >       44 </v>
   <v type="int" >       45 </v>
   <v type="int" >       46 </v>
   <v type="int" >       47 </v>
   <v type="int" >       48 </v>
   <v type="int" >       49 </v>
   <v type="int" >       50 </v>
   <v type="int" >       51 </v>
   <v type="int" >       52 </v>
   <v type="int" >       53 </v>
   <v type="int" >       54 </v>
   <v type="int" >       55 </v>
   <v type="int" >       56 </v>
   <v type="int" >       57 </v>
   <v type="int" >       58 </v>
   <v type="int" >       59 </v>
  </varray>
 </primitive_cell>
 <kpoints>
  <generation param="Gamma">
   <v type="int" name="divisions">       2        2        1 </v>
   <v name="usershift">      0.00000000       0.00000000       0.00000000 </v>
   <v name="genvec1">      0.50000000       0.00000000       0.00000000 </v>
   <v name="genvec2">      0.00000000       0.50000000       0.00000000 </v>
   <v name="genvec3">      0.00000000       0.00000000       1.00000000 </v>
   <v name="shift">      0.00000000       0.00000000       0.00000000 </v>
  </generation>
  <varray name="kpointlist" >
   <v>       0.00000000       0.00000000       0.00000000 </v>
   <v>       0.50000000       0.00000000       0.00000000 </v>
   <v>       0.00000000       0.50000000       0.00000000 </v>
   <v>       0.50000000       0.50000000       0.00000000 </v>
  </varray>
  <varray name="weights" >
   <v>       0.25000000 </v>
   <v>       0.25000000 </v>
   <v>       0.25000000 </v>
   <v>       0.25000000 </v>
  </varray>
 </kpoints>
 <parameters>
  <separator name="general" >
   <i type="string" name="SYSTEM">slab_Cel1-OPT</i>
   <i type="logical" name="LCOMPAT"> F  </i>
  </separator>
  <separator name="electronic" >
   <i type="string" name="PREC">n</i>
   <i name="ENMAX">    400.00000000</i>
   <i name="ENAUG">    644.87300000</i>
   <i name="EDIFF">      0.00001000</i>
   <i type="int" name="IALGO">    38</i>
   <i type="int" name="IWAVPR">    11</i>
   <i type="int" name="NBANDS">   176</i>
   <i type="int" name="NBANDSLOW">    -1</i>
   <i type="int" name="NBANDSHIGH">    -1</i>
   <i name="NELECT">    289.00000000</i>
   <i type="int" name="TURBO">     0</i>
   <i type="int" name="IRESTART">     0</i>
   <i type="int" name="NREBOOT">     0</i>
   <i type="int" name="NMIN">     0</i>
   <i name="EREF">      0.00000000</i>
   <separator name="electronic smearing" >
    <i type="int" name="ISMEAR">     0</i>
    <i name="SIGMA">      0.10000000</i>
    <i name="KSPACING">      0.50000000</i>
    <i type="logical" name="KGAMMA"> T  </i>
    <i type="logical" name="KBLOWUP"> T  </i>
   </separator>
   <separator name="electronic projectors" >
    <i type="logical" name="LREAL"> T  </i>
    <v name="ROPT">     -0.00050000     -0.00050000     -0.00050000     -0.00050000</v>
    <i type="int" name="LMAXPAW">  -100</i>
    <i type="int" name="LMAXMIX">     2</i>
    <i type="logical" name="NLSPLINE"> F  </i>
   </separator>
   <separator name="electronic startup" >
    <i type="int" name="ISTART">     0</i>
    <i type="int" name="ICHARG">     2</i>
    <i type="int" name="INIWAV">     1</i>
   </separator>
   <separator name="electronic spin" >
    <i type="int" name="ISPIN">     1</i>
    <i type="logical" name="LNONCOLLINEAR"> F  </i>
    <v name="MAGMOM">      1.00000000      1.00000000      1.00000000      1.00000000      1.00000000      1.00000000      1.00000000      1.00000000      1.00000000      1.00000000      1.00000000      1.00000000      1.00000000      1.00000000      1.00000000      1.00000000      1.00000000      1.00000000      1.00000000      1.00000000
      1.00000000      1.00000000      1.00000000      1.00000000      1.00000000      1.00000000      1.00000000      1.00000000      1.00000000      1.00000000      1.00000000      1.00000000      1.00000000      1.00000000      1.00000000      1.00000000      1.00000000      1.00000000      1.00000000      1.00000000
      1.00000000      1.00000000      1.00000000      1.00000000      1.00000000      1.00000000      1.00000000      1.00000000      1.00000000      1.00000000      1.00000000      1.00000000      1.00000000      1.00000000      1.00000000      1.00000000      1.00000000      1.00000000      1.00000000</v>
    <i name="NUPDOWN">     -1.00000000</i>
    <i type="logical" name="LSORBIT"> F  </i>
    <v name="SAXIS">      0.00000000      0.00000000      1.00000000</v>
    <i type="logical" name="LSPIRAL"> F  </i>
    <v name="QSPIRAL">      0.00000000      0.00000000      0.00000000</v>
    <i type="logical" name="LZEROZ"> F  </i>
   </separator>
   <separator name="electronic exchange-correlation" >
    <i type="logical" name="LASPH"> F  </i>
    <i type="logical" name="LMETAGGA"> F  </i>
   </separator>
   <separator name="electronic convergence" >
    <i type="int" name="NELM">   200</i>
    <i type="int" name="NELMDL">    -5</i>
    <i type="int" name="NELMIN">     2</i>
    <i name="ENINI">    400.00000000</i>
    <separator name="electronic convergence detail" >
     <i type="logical" name="LDIAG"> T  </i>
     <i type="logical" name="LSUBROT"> F  </i>
     <i name="WEIMIN">      0.00100000</i>
     <i name="EBREAK">      0.00000001</i>
     <i name="DEPER">      0.30000000</i>
     <i type="int" name="NRMM">     4</i>
     <i name="TIME">      0.40000000</i>
    </separator>
   </separator>
   <separator name="electronic mixer" >
    <i name="AMIX">      0.40000000</i>
    <i name="BMIX">      1.00000000</i>
    <i name="AMIN">      0.10000000</i>
    <i name="AMIX_MAG">      1.60000000</i>
    <i name="BMIX_MAG">      1.00000000</i>
    <separator name="electronic mixer details" >
     <i type="int" name="IMIX">     4</i>
     <i type="logical" name="MIXFIRST"> F  </i>
     <i type="int" name="MAXMIX">   -45</i>
     <i name="WC">    100.00000000</i>
     <i type="int" name="INIMIX">     1</i>
     <i type="int" name="MIXPRE">     1</i>
     <i type="int" name="MREMOVE">     5</i>
    </separator>
   </separator>
   <separator name="electronic dipolcorrection" >
    <i type="logical" name="LDIPOL"> T  </i>
    <i type="logical" name="LMONO"> F  </i>
    <i type="int" name="IDIPOL">     3</i>
    <i name="EPSILON">      1.00000000</i>
    <v name="DIPOL">   -100.00000000   -100.00000000   -100.00000000</v>
    <i name="EFIELD">      0.00000000</i>
   </separator>
  </separator>
  <separator name="grids" >
   <i type="int" name="NGX">    70</i>
   <i type="int" name="NGY">    60</i>
   <i type="int" name="NGZ">    80</i>
   <i type="int" name="NGXF">   140</i>
   <i type="int" name="NGYF">   120</i>
   <i type="int" name="NGZF">   160</i>
   <i type="logical" name="ADDGRID"> F  </i>
  </separator>
  <separator name="ionic" >
   <i type="int" name="NSW">  1000</i>
   <i type="int" name="IBRION">     2</i>
   <i type="int" name="MDALGO">     0</i>
   <i type="int" name="ISIF">     3</i>
   <i name="PSTRESS">      0.00000000</i>
   <i name="EDIFFG">     -0.05000000</i>
   <i type="int" name="NFREE">     1</i>
   <i name="POTIM">      0.10000000</i>
   <i name="SMASS">     -3.00000000</i>
   <i name="SCALEE">      1.00000000</i>
  </separator>
  <separator name="ionic md" >
   <i name="TEBEG">      0.00010000</i>
   <i name="TEEND">      0.00010000</i>
   <i type="int" name="NBLOCK">     1</i>
   <i type="int" name="KBLOCK">  1000</i>
   <i type="int" name="NPACO">   256</i>
   <i name="APACO">     10.00000000</i>
  </separator>
  <separator name="symmetry" >
   <i type="int" name="ISYM">     2</i>
   <i name="SYMPREC">      0.00001000</i>
  </separator>
  <separator name="dos" >
   <i type="int" name="LORBIT">     0</i>
   <v name="RWIGS">     -1.00000000     -1.00000000     -1.00000000     -1.00000000</v>
   <i type="int" name="NEDOS">   301</i>
   <i name="EMIN">     10.00000000</i>
   <i name="EMAX">    -10.00000000</i>
   <i name="EFERMI">      0.00000000</i>
  </separator>
  <separator name="writing" >
   <i type="int" name="NWRITE">     2</i>
   <i type="logical" name="LWAVE"> F  </i>
   <i type="logical" name="LDOWNSAMPLE"> F  </i>
   <i type="logical" name="LCHARG"> F  </i>
   <i type="logical" name="LPARD"> F  </i>
   <i type="logical" name="LVTOT"> F  </i>
   <i type="logical" name="LVHAR"> F  </i>
   <i type="logical" name="LELF"> F  </i>
   <i type="logical" name="LOPTICS"> F  </i>
   <v name="STM">      0.00000000      0.00000000      0.00000000      0.00000000      0.00000000      0.00000000      0.00000000</v>
  </separator>
  <separator name="performance" >
   <i type="int" name="NPAR">     4</i>
   <i type="int" name="NSIM">     4</i>
   <i type="int" name="NBLK">    -1</i>
   <i type="logical" name="LPLANE"> T  </i>
   <i type="logical" name="LSCALAPACK"> T  </i>
   <i type="logical" name="LSCAAWARE"> F  </i>
   <i type="logical" name="LSCALU"> F  </i>
   <i type="logical" name="LASYNC"> F  </i>
   <i type="logical" name="LORBITALREAL"> F  </i>
  </separator>
  <separator name="miscellaneous" >
   <i type="int" name="IDIOT">     3</i>
   <i type="int" name="PHON_NSTRUCT">    -1</i>
   <i type="logical" name="LMUSIC"> F  </i>
   <v name="POMASS">     12.01100000     14.00100000    196.96600000     63.54600000</v>
   <v name="DARWINR">      0.00000000      0.00000000      0.00000000      0.00000000</v>
   <v name="DARWINV">      1.00000000      1.00000000      1.00000000      1.00000000</v>
   <i type="logical" name="LCORR"> T  </i>
  </separator>
  <i type="logical" name="GGA_COMPAT"> T  </i>
  <i type="logical" name="LBERRY"> F  </i>
  <i type="int" name="ICORELEVEL">     0</i>
  <i type="logical" name="LDAU"> F  </i>
  <i type="int" name="I_CONSTRAINED_M">     0</i>
  <separator name="electronic exchange-correlation" >
   <i type="string" name="GGA">--</i>
   <i type="int" name="VOSKOWN">     0</i>
   <i type="logical" name="LHFCALC"> F  </i>
   <i type="string" name="PRECFOCK"></i>
   <i type="logical" name="LSYMGRAD"> F  </i>
   <i type="logical" name="LHFONE"> F  </i>
   <i type="logical" name="LRHFCALC"> F  </i>
   <i type="logical" name="LTHOMAS"> F  </i>
   <i type="logical" name="LMODELHF"> F  </i>
   <i type="logical" name="LFOCKACE"> F  </i>
   <i name="ENCUT4O">     -1.00000000</i>
   <i type="int" name="EXXOEP">     0</i>
   <i type="int" name="FOURORBIT">     0</i>
   <i name="AEXX">      0.00000000</i>
   <i name="HFALPHA">      0.00000000</i>
   <i name="MCALPHA">      0.00000000</i>
   <i name="ALDAX">      1.00000000</i>
   <i name="AGGAX">      1.00000000</i>
   <i name="ALDAC">      1.00000000</i>
   <i name="AGGAC">      1.00000000</i>
   <i type="int" name="NKREDX">     1</i>
   <i type="int" name="NKREDY">     1</i>
   <i type="int" name="NKREDZ">     1</i>
   <i type="logical" name="SHIFTRED"> F  </i>
   <i type="logical" name="ODDONLY"> F  </i>
   <i type="logical" name="EVENONLY"> F  </i>
   <i type="int" name="LMAXFOCK">     0</i>
   <i type="int" name="NMAXFOCKAE">     0</i>
   <i type="logical" name="LFOCKAEDFT"> F  </i>
   <i name="HFSCREEN">      0.00000000</i>
   <i name="HFSCREENC">      0.00000000</i>
   <i type="int" name="NBANDSGWLOW">     0</i>
  </separator>
  <separator name="vdW DFT" >
   <i type="logical" name="LUSE_VDW"> F  </i>
   <i name="Zab_VDW">     -0.84910000</i>
   <i name="PARAM1">      0.12340000</i>
   <i name="PARAM2">      1.00000000</i>
   <i name="PARAM3">      0.00000000</i>
  </separator>
  <separator name="model GW" >
   <i type="int" name="MODEL_GW">     0</i>
   <i name="MODEL_EPS0">     26.89073030</i>
   <i name="MODEL_ALPHA">      1.00000000</i>
  </separator>
  <separator name="linear response parameters" >
   <i type="logical" name="LEPSILON"> F  </i>
   <i type="logical" name="LRPA"> F  </i>
   <i type="logical" name="LNABLA"> F  </i>
   <i type="logical" name="LVEL"> F  </i>
   <i name="CSHIFT">      0.10000000</i>
   <i name="OMEGAMAX">     -1.00000000</i>
   <i name="DEG_THRESHOLD">      0.00200000</i>
   <i name="RTIME">     -0.10000000</i>
   <i name="WPLASMAI">      0.00000000</i>
   <v name="DFIELD">      0.00000000      0.00000000      0.00000000</v>
   <v name="WPLASMA">      0.00000000      0.00000000      0.00000000      0.00000000      0.00000000      0.00000000      0.00000000      0.00000000      0.00000000</v>
  </separator>
  <separator name="orbital magnetization" >
   <i type="logical" name="NUCIND"> F  </i>
   <v name="MAGPOS">      0.00000000      0.00000000      0.00000000</v>
   <i type="logical" name="LNICSALL"> T  </i>
   <i type="logical" name="ORBITALMAG"> F  </i>
   <i type="logical" name="LMAGBLOCH"> F  </i>
   <i type="logical" name="LCHIMAG"> F  </i>
   <i type="logical" name="LGAUGE"> T  </i>
   <i type="int" name="MAGATOM">     0</i>
   <v name="MAGDIPOL">      0.00000000      0.00000000      0.00000000</v>
   <v name="AVECCONST">      0.00000000      0.00000000      0.00000000</v>
  </separator>
  <separator name="response functions" >
   <i type="logical" name="LFINITE_TEMPERATURE"> F  </i>
   <i type="logical" name="LADDER"> F  </i>
   <i type="logical" name="LRPAFORCE"> F  </i>
   <i type="logical" name="LFXC"> F  </i>
   <i type="logical" name="LHARTREE"> T  </i>
   <i type="int" name="IBSE">     0</i>
   <v type="int" name="KPOINT">    -1     0     0     0</v>
   <i type="logical" name="LTCTC"> F  </i>
   <i type="logical" name="LTCTE"> F  </i>
   <i type="logical" name="LTETE"> F  </i>
   <i type="logical" name="LTRIPLET"> F  </i>
   <i type="logical" name="LFXCEPS"> F  </i>
   <i type="logical" name="LFXHEG"> F  </i>
   <i type="int" name="NATURALO">     2</i>
   <i type="logical" name="LHOLEGF"> F  </i>
   <i type="logical" name="L2ORDER"> F  </i>
   <i type="logical" name="LDMP1"> F  </i>
   <i type="logical" name="LMP2LT"> F  </i>
   <i type="logical" name="LSMP2LT"> F  </i>
   <i type="logical" name="LGWLF"> F  </i>
   <i name="ENCUTGW">     -2.00000000</i>
   <i name="ENCUTGWSOFT">     -2.00000000</i>
   <i name="ENCUTLF">     -1.00000000</i>
   <i type="logical" name="LESF_SPLINES"> F  </i>
   <i type="int" name="LMAXMP2">    -1</i>
   <i name="SCISSOR">      0.00000000</i>
   <i type="int" name="NOMEGA">     0</i>
   <i type="int" name="NOMEGAR">     0</i>
   <i type="int" name="NBANDSGW">    -1</i>
   <i type="int" name="NBANDSO">    -1</i>
   <i type="int" name="NBANDSV">    -1</i>
   <i type="int" name="NELMGW">     1</i>
   <i type="int" name="NELMHF">     1</i>
   <i type="int" name="DIM">     3</i>
   <i type="int" name="IESPILON">     4</i>
   <i type="int" name="ANTIRES">     0</i>
   <i name="OMEGAMAX">    -30.00000000</i>
   <i name="OMEGAMIN">    -30.00000000</i>
   <i name="OMEGATL">   -200.00000000</i>
   <i type="int" name="OMEGAGRID">     0</i>
   <i name="CSHIFT">     -0.10000000</i>
   <i type="logical" name="LSELFENERGY"> F  </i>
   <i type="logical" name="LSPECTRAL"> F  </i>
   <i type="logical" name="LSPECTRALGW"> F  </i>
   <i type="logical" name="LSINGLES"> F  </i>
   <i type="logical" name="LFERMIGW"> F  </i>
   <i type="logical" name="ODDONLYGW"> F  </i>
   <i type="logical" name="EVENONLYGW"> F  </i>
   <i type="int" name="NKREDLFX">     1</i>
   <i type="int" name="NKREDLFY">     1</i>
   <i type="int" name="NKREDLFZ">     1</i>
   <i type="int" name="MAXMEM">  2800</i>
   <i type="int" name="TELESCOPE">     0</i>
   <i type="int" name="NTAUPAR">    -1</i>
   <i type="int" name="NOMEGAPAR">    -1</i>
   <i name="DAMP_NEWTON">      0.80000001</i>
   <i name="LAMBDA">      1.00000000</i>
  </separator>
  <separator name="External order field" >
   <i name="OFIELD_KAPPA">      0.00000000</i>
   <v name="OFIELD_K">      0.00000000      0.00000000      0.00000000</v>
   <i name="OFIELD_Q6_NEAR">      0.00000000</i>
   <i name="OFIELD_Q6_FAR">      0.00000000</i>
   <i name="OFIELD_A">      0.00000000</i>
  </separator>
  <separator name="optional k-points parameters" >
   <i type="int" name="KPOINTS_OPT_MODE">     1</i>
   <i type="logical" name="LKPOINTS_OPT"> F  </i>
  </separator>
  <separator name="solvation model" >
   <i type="logical" name="LSOL"> F  </i>
  </separator>
 </parameters>
 <atominfo>
  <atoms>      59 </atoms>
  <types>       4 </types>
  <array name="atoms" >
   <dimension dim="1">ion</dimension>
   <field type="string">element</field>
   <field type="int">atomtype</field>
   <set>
    <rc><c>C </c><c>   1</c></rc>
    <rc><c>C </c><c>   1</c></rc>
    <rc><c>C </c><c>   1</c></rc>
    <rc><c>C </c><c>   1</c></rc>
    <rc><c>C </c><c>   1</c></rc>
    <rc><c>C </c><c>   1</c></rc>
    <rc><c>C </c><c>   1</c></rc>
    <rc><c>C </c><c>   1</c></rc>
    <rc><c>C </c><c>   1</c></rc>
    <rc><c>C </c><c>   1</c></rc>
    <rc><c>C </c><c>   1</c></rc>
    <rc><c>C </c><c>   1</c></rc>
    <rc><c>C </c><c>   1</c></rc>
    <rc><c>C </c><c>   1</c></rc>
    <rc><c>C </c><c>   1</c></rc>
    <rc><c>C </c><c>   1</c></rc>
    <rc><c>C </c><c>   1</c></rc>
    <rc><c>C </c><c>   1</c></rc>
    <rc><c>C </c><c>   1</c></rc>
    <rc><c>C </c><c>   1</c></rc>
    <rc><c>C </c><c>   1</c></rc>
    <rc><c>C </c><c>   1</c></rc>
    <rc><c>C </c><c>   1</c></rc>
    <rc><c>C </c><c>   1</c></rc>
    <rc><c>N </c><c>   2</c></rc>
    <rc><c>N </c><c>   2</c></rc>
    <rc><c>N </c><c>   2</c></rc>
    <rc><c>N </c><c>   2</c></rc>
    <rc><c>N </c><c>   2</c></rc>
    <rc><c>N </c><c>   2</c></rc>
    <rc><c>N </c><c>   2</c></rc>
    <rc><c>N </c><c>   2</c></rc>
    <rc><c>N </c><c>   2</c></rc>
    <rc><c>N </c><c>   2</c></rc>
    <rc><c>N </c><c>   2</c></rc>
    <rc><c>N </c><c>   2</c></rc>
    <rc><c>N </c><c>   2</c></rc>
    <rc><c>N </c><c>   2</c></rc>
    <rc><c>N </c><c>   2</c></rc>
    <rc><c>N </c><c>   2</c></rc>
    <rc><c>N </c><c>   2</c></rc>
    <rc><c>N </c><c>   2</c></rc>
    <rc><c>N </c><c>   2</c></rc>
    <rc><c>N </c><c>   2</c></rc>
    <rc><c>N </c><c>   2</c></rc>
    <rc><c>N </c><c>   2</c></rc>
    <rc><c>N </c><c>   2</c></rc>
    <rc><c>N </c><c>   2</c></rc>
    <rc><c>N </c><c>   2</c></rc>
    <rc><c>N </c><c>   2</c></rc>
    <rc><c>N </c><c>   2</c></rc>
    <rc><c>N </c><c>   2</c></rc>
    <rc><c>N </c><c>   2</c></rc>
    <rc><c>N </c><c>   2</c></rc>
    <rc><c>N </c><c>   2</c></rc>
    <rc><c>N </c><c>   2</c></rc>
    <rc><c>Au</c><c>   3</c></rc>
    <rc><c>Cu</c><c>   4</c></rc>
    <rc><c>Cu</c><c>   4</c></rc>
   </set>
  </array>
  <array name="atomtypes" >
   <dimension dim="1">type</dimension>
   <field type="int">atomspertype</field>
   <field type="string">element</field>
   <field>mass</field>
   <field>valence</field>
   <field type="string">pseudopotential</field>
   <set>
    <rc><c>  24</c><c>C </c><c>     12.01100000</c><c>      4.00000000</c><c>  PAW_PBE C 08Apr2002                   </c></rc>
    <rc><c>  32</c><c>N </c><c>     14.00100000</c><c>      5.00000000</c><c>  PAW_PBE N 08Apr2002                   </c></rc>
    <rc><c>   1</c><c>Au</c><c>    196.96600000</c><c>     11.00000000</c><c>  PAW_PBE Au 04Oct2007                  </c></rc>
    <rc><c>   2</c><c>Cu</c><c>     63.54600000</c><c>     11.00000000</c><c>  PAW_PBE Cu 22Jun2005                  </c></rc>
   </set>
  </array>
 </atominfo>
 <structure name="initialpos" >
  <crystal>
   <varray name="basis" >
    <v>      14.26590000       0.00000000       0.00000000 </v>
    <v>       0.00000000      12.35699650       0.00000000 </v>
    <v>       0.00000000       0.00000000      15.00000000 </v>
   </varray>
   <i name="volume">   2644.25514646 </i>
   <varray name="rec_basis" >
    <v>       0.07009722       0.00000000       0.00000000 </v>
    <v>       0.00000000       0.08092581       0.00000000 </v>
    <v>       0.00000000       0.00000000       0.06666667 </v>
   </varray>
  </crystal>
  <varray name="positions" >
   <v>       0.06537593       0.40364000       0.13333000 </v>
   <v>       0.98097748       0.23494000       0.13333000 </v>
   <v>       0.22593437       0.39820000       0.13333000 </v>
   <v>       0.81543575       0.57710000       0.13333000 </v>
   <v>       0.14973747       0.23490000       0.13333000 </v>
   <v>       0.90517930       0.39797000       0.13333000 </v>
   <v>       0.56537593       0.40364000       0.13333000 </v>
   <v>       0.48097748       0.23494000       0.13333000 </v>
   <v>       0.72593437       0.39820000       0.13333000 </v>
   <v>       0.31543575       0.57710000       0.13333000 </v>
   <v>       0.64973747       0.23490000       0.13333000 </v>
   <v>       0.40517930       0.39797000       0.13333000 </v>
   <v>       0.81551954       0.90364000       0.13333000 </v>
   <v>       0.73112108       0.73494000       0.13333000 </v>
   <v>       0.97607797       0.89820000       0.13333000 </v>
   <v>       0.06529214       0.07710000       0.13333000 </v>
   <v>       0.89988107       0.73490000       0.13333000 </v>
   <v>       0.65532291       0.89797000       0.13333000 </v>
   <v>       0.31551954       0.90364000       0.13333000 </v>
   <v>       0.23112108       0.73494000       0.13333000 </v>
   <v>       0.47607797       0.89820000       0.13333000 </v>
   <v>       0.56529214       0.07710000       0.13333000 </v>
   <v>       0.39988107       0.73490000       0.13333000 </v>
   <v>       0.15532291       0.89797000       0.13333000 </v>
   <v>       0.98400093       0.45588000       0.13333000 </v>
   <v>       0.90111835       0.29021000       0.13333000 </v>
   <v>       0.14710595       0.45595000       0.13333000 </v>
   <v>       0.14840652       0.12714000       0.13333000 </v>
   <v>       0.98256150       0.12707000       0.13333000 </v>
   <v>       0.22992331       0.29008000       0.13333000 </v>
   <v>       0.06536362       0.29116000       0.13333000 </v>
   <v>       0.81553147       0.45774000       0.13333000 </v>
   <v>       0.48400093       0.45588000       0.13333000 </v>
   <v>       0.40111835       0.29021000       0.13333000 </v>
   <v>       0.64710595       0.45595000       0.13333000 </v>
   <v>       0.64840652       0.12714000       0.13333000 </v>
   <v>       0.48256150       0.12707000       0.13333000 </v>
   <v>       0.72992331       0.29008000       0.13333000 </v>
   <v>       0.56536362       0.29116000       0.13333000 </v>
   <v>       0.31553147       0.45774000       0.13333000 </v>
   <v>       0.73414454       0.95588000       0.13333000 </v>
   <v>       0.65126196       0.79021000       0.13333000 </v>
   <v>       0.89724956       0.95595000       0.13333000 </v>
   <v>       0.89855012       0.62714000       0.13333000 </v>
   <v>       0.73270510       0.62707000       0.13333000 </v>
   <v>       0.98006692       0.79008000       0.13333000 </v>
   <v>       0.81550723       0.79116000       0.13333000 </v>
   <v>       0.56567507       0.95774000       0.13333000 </v>
   <v>       0.23414454       0.95588000       0.13333000 </v>
   <v>       0.15126196       0.79021000       0.13333000 </v>
   <v>       0.39724956       0.95595000       0.13333000 </v>
   <v>       0.39855012       0.62714000       0.13333000 </v>
   <v>       0.23270510       0.62707000       0.13333000 </v>
   <v>       0.48006692       0.79008000       0.13333000 </v>
   <v>       0.31550723       0.79116000       0.13333000 </v>
   <v>       0.06567507       0.95774000       0.13333000 </v>
   <v>       0.57212639       0.73516025       0.21645333 </v>
   <v>       0.65206172       0.57443857       0.21306333 </v>
   <v>       0.48966112       0.57467425       0.20988333 </v>
  </varray>
 </structure>
 <calculation>
  <scstep>
   <time name="dav">    1.78    1.78</time>
   <time name="total">    1.82    1.83</time>
   <dipole>
    <v name="dipole">      0.00000000       0.00000000       0.00048947 </v>
    <i name="Tr[quadrupol]">  -9435.32583959 </i>
    <i name="Echarged">      0.00000000 </i>
    <i name="Edipol_quadrupol">      0.00000000 </i>
    <i name="Eion">      0.00000000 </i>
   </dipole>
   <energy>
    <i name="alphaZ">    155.34731579 </i>
    <i name="ewald">  31804.37621222 </i>
    <i name="hartreedc"> -44717.69844393 </i>
    <i name="XCdc">   1064.56155723 </i>
    <i name="pawpsdc">  12492.88734781 </i>
    <i name="pawaedc"> -12733.26082412 </i>
    <i name="eentropy">     -0.09433431 </i>
    <i name="bandstr">   -886.69825684 </i>
    <i name="atom">  15702.24924933 </i>
    <i name="e_fr_energy">   2881.66982318 </i>
    <i name="e_wo_entrp">   2881.76415750 </i>
    <i name="e_0_energy">   2881.71699034 </i>
   </energy>
  </scstep>
  <scstep>
   <time name="dav">    2.08    2.08</time>
   <time name="total">    2.08    2.08</time>
   <dipole>
    <v name="dipole">      0.00000000       0.00000000       0.00048947 </v>
    <i name="Tr[quadrupol]">  -9435.32583959 </i>
    <i name="Echarged">      0.00000000 </i>
    <i name="Edipol_quadrupol">      0.00000000 </i>
    <i name="Eion">      0.00000000 </i>
   </dipole>
   <energy>
    <i name="e_fr_energy">    144.95811720 </i>
    <i name="e_wo_entrp">    144.99675821 </i>
    <i name="e_0_energy">    144.97743770 </i>
   </energy>
  </scstep>
  <scstep>
   <time name="dav">    1.96    1.96</time>
   <time name="total">    1.96    1.96</time>
   <dipole>
    <v name="dipole">      0.00000000       0.00000000       0.00048947 </v>
    <i name="Tr[quadrupol]">  -9435.32583959 </i>
    <i name="Echarged">      0.00000000 </i>
    <i name="Edipol_quadrupol">      0.00000000 </i>
    <i name="Eion">      0.00000000 </i>
   </dipole>
   <energy>
    <i name="e_fr_energy">   -471.16278840 </i>
    <i name="e_wo_entrp">   -471.06096827 </i>
    <i name="e_0_energy">   -471.11187834 </i>
   </energy>
  </scstep>
  <scstep>
   <time name="dav">    2.19    2.20</time>
   <time name="total">    2.19    2.20</time>
   <dipole>
    <v name="dipole">      0.00000000       0.00000000       0.00048947 </v>
    <i name="Tr[quadrupol]">  -9435.32583959 </i>
    <i name="Echarged">      0.00000000 </i>
    <i name="Edipol_quadrupol">      0.00000000 </i>
    <i name="Eion">      0.00000000 </i>
   </dipole>
   <energy>
    <i name="e_fr_energy">   -515.73720350 </i>
    <i name="e_wo_entrp">   -515.61149173 </i>
    <i name="e_0_energy">   -515.67434762 </i>
   </energy>
  </scstep>
  <scstep>
   <time name="dav">    2.19    2.20</time>
   <time name="total">    2.24    2.25</time>
   <dipole>
    <v name="dipole">      0.00000000       0.00000000       0.00048947 </v>
    <i name="Tr[quadrupol]">  -9435.32583959 </i>
    <i name="Echarged">      0.00000000 </i>
    <i name="Edipol_quadrupol">      0.00000000 </i>
    <i name="Eion">      0.00000000 </i>
   </dipole>
   <energy>
    <i name="e_fr_energy">   -517.48399368 </i>
    <i name="e_wo_entrp">   -517.36917969 </i>
    <i name="e_0_energy">   -517.42658669 </i>
   </energy>
  </scstep>
  <scstep>
   <time name="dav">    2.35    2.35</time>
   <time name="total">    2.43    2.44</time>
   <dipole>
    <v name="dipole">      0.00000000       0.00000000      -0.99657288 </v>
    <i name="Tr[quadrupol]">  -9437.60157687 </i>
    <i name="Echarged">      0.00000000 </i>
    <i name="Edipol_quadrupol">      0.00000000 </i>
    <i name="Eion">      0.00000000 </i>
   </dipole>
   <energy>
    <i name="e_fr_energy">   -582.30210721 </i>
    <i name="e_wo_entrp">   -582.19660052 </i>
    <i name="e_0_energy">   -582.24935386 </i>
   </energy>
  </scstep>
  <scstep>
   <time name="dav">    2.19    2.19</time>
   <time name="total">    2.27    2.27</time>
   <dipole>
    <v name="dipole">      0.00000000       0.00000000      -0.36286428 </v>
    <i name="Tr[quadrupol]">  -9437.55819284 </i>
    <i name="Echarged">      0.00000000 </i>
    <i name="Edipol_quadrupol">      0.00000000 </i>
    <i name="Eion">      0.00000000 </i>
   </dipole>
   <energy>
    <i name="e_fr_energy">   -496.92824606 </i>
    <i name="e_wo_entrp">   -496.87443678 </i>
    <i name="e_0_energy">   -496.90134142 </i>
   </energy>
  </scstep>
  <scstep>
   <time name="dav">    2.21    2.21</time>
   <time name="total">    2.29    2.29</time>
   <dipole>
    <v name="dipole">      0.00000000       0.00000000      -0.26319362 </v>
    <i name="Tr[quadrupol]">  -9438.59698342 </i>
    <i name="Echarged">      0.00000000 </i>
    <i name="Edipol_quadrupol">      0.00000000 </i>
    <i name="Eion">      0.00000000 </i>
   </dipole>
   <energy>
    <i name="e_fr_energy">   -473.44540100 </i>
    <i name="e_wo_entrp">   -473.37942031 </i>
    <i name="e_0_energy">   -473.41241066 </i>
   </energy>
  </scstep>
  <scstep>
   <time name="dav">    2.34    2.35</time>
   <time name="total">    2.43    2.44</time>
   <dipole>
    <v name="dipole">      0.00000000       0.00000000      -0.06001547 </v>
    <i name="Tr[quadrupol]">  -9439.52262767 </i>
    <i name="Echarged">      0.00000000 </i>
    <i name="Edipol_quadrupol">      0.00000000 </i>
    <i name="Eion">      0.00000000 </i>
   </dipole>
   <energy>
    <i name="e_fr_energy">   -501.02815196 </i>
    <i name="e_wo_entrp">   -500.96474843 </i>
    <i name="e_0_energy">   -500.99645020 </i>
   </energy>
  </scstep>
  <scstep>
   <time name="dav">    2.26    2.26</time>
   <time name="total">    2.35    2.35</time>
   <dipole>
    <v name="dipole">      0.00000000       0.00000000      -0.22507228 </v>
    <i name="Tr[quadrupol]">  -9439.22818498 </i>
    <i name="Echarged">      0.00000000 </i>
    <i name="Edipol_quadrupol">      0.00000000 </i>
    <i name="Eion">      0.00000000 </i>
   </dipole>
   <energy>
    <i name="e_fr_energy">   -474.28603754 </i>
    <i name="e_wo_entrp">   -474.22229818 </i>
    <i name="e_0_energy">   -474.25416786 </i>
   </energy>
  </scstep>
  <scstep>
   <time name="dav">    2.14    2.14</time>
   <time name="total">    2.22    2.23</time>
   <dipole>
    <v name="dipole">      0.00000000       0.00000000      -0.15084129 </v>
    <i name="Tr[quadrupol]">  -9439.86745904 </i>
    <i name="Echarged">      0.00000000 </i>
    <i name="Edipol_quadrupol">      0.00000000 </i>
    <i name="Eion">      0.00000000 </i>
   </dipole>
   <energy>
    <i name="e_fr_energy">   -474.90434994 </i>
    <i name="e_wo_entrp">   -474.83968419 </i>
    <i name="e_0_energy">   -474.87201706 </i>
   </energy>
  </scstep>
  <scstep>
   <time name="dav">    2.18    2.18</time>
   <time name="total">    2.27    2.27</time>
   <dipole>
    <v name="dipole">      0.00000000       0.00000000      -0.11990231 </v>
    <i name="Tr[quadrupol]">  -9440.30072364 </i>
    <i name="Echarged">      0.00000000 </i>
    <i name="Edipol_quadrupol">      0.00000000 </i>
    <i name="Eion">      0.00000000 </i>
   </dipole>
   <energy>
    <i name="e_fr_energy">   -475.20638532 </i>
    <i name="e_wo_entrp">   -475.14138944 </i>
    <i name="e_0_energy">   -475.17388738 </i>
   </energy>
  </scstep>
  <scstep>
   <time name="dav">    2.17    2.17</time>
   <time name="total">    2.25    2.25</time>
   <dipole>
    <v name="dipole">      0.00000000       0.00000000      -0.08587152 </v>
    <i name="Tr[quadrupol]">  -9440.75883062 </i>
    <i name="Echarged">      0.00000000 </i>
    <i name="Edipol_quadrupol">      0.00000000 </i>
    <i name="Eion">      0.00000000 </i>
   </dipole>
   <energy>
    <i name="e_fr_energy">   -475.15760859 </i>
    <i name="e_wo_entrp">   -475.09078464 </i>
    <i name="e_0_energy">   -475.12419661 </i>
   </energy>
  </scstep>
  <scstep>
   <time name="dav">    2.36    2.37</time>
   <time name="total">    2.45    2.46</time>
   <dipole>
    <v name="dipole">      0.00000000       0.00000000      -0.05013480 </v>
    <i name="Tr[quadrupol]">  -9441.26832704 </i>
    <i name="Echarged">      0.00000000 </i>
    <i name="Edipol_quadrupol">      0.00000000 </i>
    <i name="Eion">      0.00000000 </i>
   </dipole>
   <energy>
    <i name="e_fr_energy">   -474.86677484 </i>
    <i name="e_wo_entrp">   -474.79950576 </i>
    <i name="e_0_energy">   -474.83314030 </i>
   </energy>
  </scstep>
  <scstep>
   <time name="dav">    2.33    2.33</time>
   <time name="total">    2.42    2.42</time>
   <dipole>
    <v name="dipole">      0.00000000       0.00000000       0.00683576 </v>
    <i name="Tr[quadrupol]">  -9442.05293506 </i>
    <i name="Echarged">      0.00000000 </i>
    <i name="Edipol_quadrupol">      0.00000000 </i>
    <i name="Eion">      0.00000000 </i>
   </dipole>
   <energy>
    <i name="e_fr_energy">   -474.43755010 </i>
    <i name="e_wo_entrp">   -474.37010824 </i>
    <i name="e_0_energy">   -474.40382917 </i>
   </energy>
  </scstep>
  <scstep>
   <time name="dav">    2.37    2.37</time>
   <time name="total">    2.45    2.45</time>
   <dipole>
    <v name="dipole">      0.00000000       0.00000000       0.04257261 </v>
    <i name="Tr[quadrupol]">  -9442.46466648 </i>
    <i name="Echarged">      0.00000000 </i>
    <i name="Edipol_quadrupol">      0.00000000 </i>
    <i name="Eion">      0.00000000 </i>
   </dipole>
   <energy>
    <i name="e_fr_energy">   -474.21105186 </i>
    <i name="e_wo_entrp">   -474.14306096 </i>
    <i name="e_0_energy">   -474.17705641 </i>
   </energy>
  </scstep>
  <scstep>
   <time name="dav">    2.41    2.41</time>
   <time name="total">    2.49    2.49</time>
   <dipole>
    <v name="dipole">      0.00000000       0.00000000       0.07649485 </v>
    <i name="Tr[quadrupol]">  -9442.80315536 </i>
    <i name="Echarged">      0.00000000 </i>
    <i name="Edipol_quadrupol">      0.00000000 </i>
    <i name="Eion">      0.00000000 </i>
   </dipole>
   <energy>
    <i name="e_fr_energy">   -474.06857056 </i>
    <i name="e_wo_entrp">   -474.00029654 </i>
    <i name="e_0_energy">   -474.03443355 </i>
   </energy>
  </scstep>
  <scstep>
   <time name="dav">    2.38    2.39</time>
   <time name="total">    2.46    2.47</time>
   <dipole>
    <v name="dipole">      0.00000000       0.00000000       0.13804883 </v>
    <i name="Tr[quadrupol]">  -9443.39441255 </i>
    <i name="Echarged">      0.00000000 </i>
    <i name="Edipol_quadrupol">      0.00000000 </i>
    <i name="Eion">      0.00000000 </i>
   </dipole>
   <energy>
    <i name="e_fr_energy">   -473.85051882 </i>
    <i name="e_wo_entrp">   -473.78145259 </i>
    <i name="e_0_energy">   -473.81598571 </i>
   </energy>
  </scstep>
  <scstep>
   <time name="dav">    2.34    2.34</time>
   <time name="total">    2.44    2.45</time>
   <dipole>
    <v name="dipole">      0.00000000       0.00000000       0.20725160 </v>
    <i name="Tr[quadrupol]">  -9444.03719997 </i>
    <i name="Echarged">      0.00000000 </i>
    <i name="Edipol_quadrupol">      0.00000000 </i>
    <i name="Eion">      0.00000000 </i>
   </dipole>
   <energy>
    <i name="e_fr_energy">   -473.66931770 </i>
    <i name="e_wo_entrp">   -473.59938944 </i>
    <i name="e_0_energy">   -473.63435357 </i>
   </energy>
  </scstep>
  <scstep>
   <time name="dav">    2.26    2.26</time>
   <time name="total">    2.34    2.34</time>
   <dipole>
    <v name="dipole">      0.00000000       0.00000000       0.32920281 </v>
    <i name="Tr[quadrupol]">  -9444.74931060 </i>
    <i name="Echarged">      0.00000000 </i>
    <i name="Edipol_quadrupol">      0.00000000 </i>
    <i name="Eion">      0.00000000 </i>
   </dipole>
   <energy>
    <i name="e_fr_energy">   -473.63617265 </i>
    <i name="e_wo_entrp">   -473.56592649 </i>
    <i name="e_0_energy">   -473.60104957 </i>
   </energy>
  </scstep>
  <scstep>
   <time name="dav">    2.42    2.42</time>
   <time name="total">    2.51    2.51</time>
   <dipole>
    <v name="dipole">      0.00000000       0.00000000       0.38079968 </v>
    <i name="Tr[quadrupol]">  -9445.23255198 </i>
    <i name="Echarged">      0.00000000 </i>
    <i name="Edipol_quadrupol">      0.00000000 </i>
    <i name="Eion">      0.00000000 </i>
   </dipole>
   <energy>
    <i name="e_fr_energy">   -473.61099024 </i>
    <i name="e_wo_entrp">   -473.54045208 </i>
    <i name="e_0_energy">   -473.57572116 </i>
   </energy>
  </scstep>
  <scstep>
   <time name="dav">    2.30    2.30</time>
   <time name="total">    2.38    2.39</time>
   <dipole>
    <v name="dipole">      0.00000000       0.00000000       0.36367448 </v>
    <i name="Tr[quadrupol]">  -9445.40869211 </i>
    <i name="Echarged">      0.00000000 </i>
    <i name="Edipol_quadrupol">      0.00000000 </i>
    <i name="Eion">      0.00000000 </i>
   </dipole>
   <energy>
    <i name="e_fr_energy">   -473.59011626 </i>
    <i name="e_wo_entrp">   -473.51913812 </i>
    <i name="e_0_energy">   -473.55462719 </i>
   </energy>
  </scstep>
  <scstep>
   <time name="dav">    2.36    2.36</time>
   <time name="total">    2.44    2.44</time>
   <dipole>
    <v name="dipole">      0.00000000       0.00000000       0.37429312 </v>
    <i name="Tr[quadrupol]">  -9445.89783249 </i>
    <i name="Echarged">      0.00000000 </i>
    <i name="Edipol_quadrupol">      0.00000000 </i>
    <i name="Eion">      0.00000000 </i>
   </dipole>
   <energy>
    <i name="e_fr_energy">   -473.55445807 </i>
    <i name="e_wo_entrp">   -473.47512185 </i>
    <i name="e_0_energy">   -473.51478996 </i>
   </energy>
  </scstep>
  <scstep>
   <time name="dav">    1.84    1.84</time>
   <time name="total">    1.92    1.92</time>
   <dipole>
    <v name="dipole">      0.00000000       0.00000000       0.37306146 </v>
    <i name="Tr[quadrupol]">  -9445.90389602 </i>
    <i name="Echarged">      0.00000000 </i>
    <i name="Edipol_quadrupol">      0.00000000 </i>
    <i name="Eion">      0.00000000 </i>
   </dipole>
   <energy>
    <i name="e_fr_energy">   -473.55600369 </i>
    <i name="e_wo_entrp">   -473.47693398 </i>
    <i name="e_0_energy">   -473.51646883 </i>
   </energy>
  </scstep>
  <scstep>
   <time name="dav">    2.22    2.22</time>
   <time name="total">    2.30    2.31</time>
   <dipole>
    <v name="dipole">      0.00000000       0.00000000       0.36912604 </v>
    <i name="Tr[quadrupol]">  -9445.84590952 </i>
    <i name="Echarged">      0.00000000 </i>
    <i name="Edipol_quadrupol">      0.00000000 </i>
    <i name="Eion">      0.00000000 </i>
   </dipole>
   <energy>
    <i name="e_fr_energy">   -473.55608194 </i>
    <i name="e_wo_entrp">   -473.47688249 </i>
    <i name="e_0_energy">   -473.51648222 </i>
   </energy>
  </scstep>
  <scstep>
   <time name="dav">    1.80    1.80</time>
   <time name="total">    1.88    1.89</time>
   <dipole>
    <v name="dipole">      0.00000000       0.00000000       0.36679874 </v>
    <i name="Tr[quadrupol]">  -9445.86805340 </i>
    <i name="Echarged">      0.00000000 </i>
    <i name="Edipol_quadrupol">      0.00000000 </i>
    <i name="Eion">      0.00000000 </i>
   </dipole>
   <energy>
    <i name="e_fr_energy">   -473.55567607 </i>
    <i name="e_wo_entrp">   -473.47455986 </i>
    <i name="e_0_energy">   -473.51511797 </i>
   </energy>
  </scstep>
  <scstep>
   <time name="dav">    2.24    2.25</time>
   <time name="total">    2.32    2.33</time>
   <dipole>
    <v name="dipole">      0.00000000       0.00000000       0.36341286 </v>
    <i name="Tr[quadrupol]">  -9445.85061559 </i>
    <i name="Echarged">      0.00000000 </i>
    <i name="Edipol_quadrupol">      0.00000000 </i>
    <i name="Eion">      0.00000000 </i>
   </dipole>
   <energy>
    <i name="e_fr_energy">   -473.55573739 </i>
    <i name="e_wo_entrp">   -473.47144555 </i>
    <i name="e_0_energy">   -473.51359147 </i>
   </energy>
  </scstep>
  <scstep>
   <time name="dav">    2.18    2.18</time>
   <time name="total">    2.27    2.28</time>
   <dipole>
    <v name="dipole">      0.00000000       0.00000000       0.36376055 </v>
    <i name="Tr[quadrupol]">  -9445.85589478 </i>
    <i name="Echarged">      0.00000000 </i>
    <i name="Edipol_quadrupol">      0.00000000 </i>
    <i name="Eion">      0.00000000 </i>
   </dipole>
   <energy>
    <i name="e_fr_energy">   -473.55847582 </i>
    <i name="e_wo_entrp">   -473.46863824 </i>
    <i name="e_0_energy">   -473.51355703 </i>
   </energy>
  </scstep>
  <scstep>
   <time name="dav">    2.03    2.03</time>
   <time name="total">    2.11    2.11</time>
   <dipole>
    <v name="dipole">      0.00000000       0.00000000       0.36194185 </v>
    <i name="Tr[quadrupol]">  -9445.80327788 </i>
    <i name="Echarged">      0.00000000 </i>
    <i name="Edipol_quadrupol">      0.00000000 </i>
    <i name="Eion">      0.00000000 </i>
   </dipole>
   <energy>
    <i name="e_fr_energy">   -473.55864715 </i>
    <i name="e_wo_entrp">   -473.47017228 </i>
    <i name="e_0_energy">   -473.51440972 </i>
   </energy>
  </scstep>
  <scstep>
   <time name="dav">    2.04    2.04</time>
   <time name="total">    2.12    2.12</time>
   <dipole>
    <v name="dipole">      0.00000000       0.00000000       0.35954446 </v>
    <i name="Tr[quadrupol]">  -9445.81622715 </i>
    <i name="Echarged">      0.00000000 </i>
    <i name="Edipol_quadrupol">      0.00000000 </i>
    <i name="Eion">      0.00000000 </i>
   </dipole>
   <energy>
    <i name="e_fr_energy">   -473.55836534 </i>
    <i name="e_wo_entrp">   -473.47025367 </i>
    <i name="e_0_energy">   -473.51430951 </i>
   </energy>
  </scstep>
  <scstep>
   <time name="dav">    2.12    2.13</time>
   <time name="total">    2.21    2.22</time>
   <dipole>
    <v name="dipole">      0.00000000       0.00000000       0.36032637 </v>
    <i name="Tr[quadrupol]">  -9445.80397661 </i>
    <i name="Echarged">      0.00000000 </i>
    <i name="Edipol_quadrupol">      0.00000000 </i>
    <i name="Eion">      0.00000000 </i>
   </dipole>
   <energy>
    <i name="e_fr_energy">   -473.55737716 </i>
    <i name="e_wo_entrp">   -473.47219206 </i>
    <i name="e_0_energy">   -473.51478461 </i>
   </energy>
  </scstep>
  <scstep>
   <time name="dav">    2.02    2.02</time>
   <time name="total">    2.10    2.10</time>
   <dipole>
    <v name="dipole">      0.00000000       0.00000000       0.36146317 </v>
    <i name="Tr[quadrupol]">  -9445.83511211 </i>
    <i name="Echarged">      0.00000000 </i>
    <i name="Edipol_quadrupol">      0.00000000 </i>
    <i name="Eion">      0.00000000 </i>
   </dipole>
   <energy>
    <i name="e_fr_energy">   -473.55746574 </i>
    <i name="e_wo_entrp">   -473.47274977 </i>
    <i name="e_0_energy">   -473.51510776 </i>
   </energy>
  </scstep>
  <scstep>
   <time name="dav">    1.39    1.39</time>
   <time name="total">    1.49    1.49</time>
   <dipole>
    <v name="dipole">      0.00000000       0.00000000       0.36142623 </v>
    <i name="Tr[quadrupol]">  -9445.83202733 </i>
    <i name="Echarged">      0.00000000 </i>
    <i name="Edipol_quadrupol">      0.00000000 </i>
    <i name="Eion">      0.00000000 </i>
   </dipole>
   <energy>
    <i name="e_fr_energy">   -473.55736335 </i>
    <i name="e_wo_entrp">   -473.47304264 </i>
    <i name="e_0_energy">   -473.51520300 </i>
   </energy>
  </scstep>
  <scstep>
   <time name="dav">    1.54    1.54</time>
   <time name="total">    1.62    1.62</time>
   <dipole>
    <v name="dipole">      0.00000000       0.00000000       0.36147593 </v>
    <i name="Tr[quadrupol]">  -9445.83076869 </i>
    <i name="Echarged">      0.00000000 </i>
    <i name="Edipol_quadrupol">      0.00000000 </i>
    <i name="Eion">      0.00000000 </i>
   </dipole>
   <energy>
    <i name="e_fr_energy">   -473.55723871 </i>
    <i name="e_wo_entrp">   -473.47342192 </i>
    <i name="e_0_energy">   -473.51533032 </i>
   </energy>
  </scstep>
  <scstep>
   <time name="dav">    2.13    2.13</time>
   <time name="total">    2.21    2.22</time>
   <dipole>
    <v name="dipole">      0.00000000       0.00000000       0.36142691 </v>
    <i name="Tr[quadrupol]">  -9445.83162308 </i>
    <i name="Echarged">      0.00000000 </i>
    <i name="Edipol_quadrupol">      0.00000000 </i>
    <i name="Eion">      0.00000000 </i>
   </dipole>
   <energy>
    <i name="e_fr_energy">   -473.55711861 </i>
    <i name="e_wo_entrp">   -473.47540032 </i>
    <i name="e_0_energy">   -473.51625946 </i>
   </energy>
  </scstep>
  <scstep>
   <time name="dav">    1.74    1.75</time>
   <time name="total">    1.83    1.84</time>
   <dipole>
    <v name="dipole">      0.00000000       0.00000000       0.36219678 </v>
    <i name="Tr[quadrupol]">  -9445.83405182 </i>
    <i name="Echarged">      0.00000000 </i>
    <i name="Edipol_quadrupol">      0.00000000 </i>
    <i name="Eion">      0.00000000 </i>
   </dipole>
   <energy>
    <i name="e_fr_energy">   -473.55718970 </i>
    <i name="e_wo_entrp">   -473.47525581 </i>
    <i name="e_0_energy">   -473.51622275 </i>
   </energy>
  </scstep>
  <scstep>
   <time name="dav">    1.21    1.21</time>
   <time name="total">    1.29    1.30</time>
   <dipole>
    <v name="dipole">      0.00000000       0.00000000       0.36198253 </v>
    <i name="Tr[quadrupol]">  -9445.83925125 </i>
    <i name="Echarged">      0.00000000 </i>
    <i name="Edipol_quadrupol">      0.00000000 </i>
    <i name="Eion">      0.00000000 </i>
   </dipole>
   <energy>
    <i name="e_fr_energy">   -473.55724671 </i>
    <i name="e_wo_entrp">   -473.47524297 </i>
    <i name="e_0_energy">   -473.51624484 </i>
   </energy>
  </scstep>
  <scstep>
   <time name="dav">    2.12    2.12</time>
   <time name="total">    2.21    2.21</time>
   <dipole>
    <v name="dipole">      0.00000000       0.00000000       0.36103868 </v>
    <i name="Tr[quadrupol]">  -9445.83264420 </i>
    <i name="Echarged">      0.00000000 </i>
    <i name="Edipol_quadrupol">      0.00000000 </i>
    <i name="Eion">      0.00000000 </i>
   </dipole>
   <energy>
    <i name="e_fr_energy">   -473.55746258 </i>
    <i name="e_wo_entrp">   -473.47673711 </i>
    <i name="e_0_energy">   -473.51709984 </i>
   </energy>
  </scstep>
  <scstep>
   <time name="dav">    1.54    1.54</time>
   <time name="total">    1.62    1.63</time>
   <dipole>
    <v name="dipole">      0.00000000       0.00000000       0.36131572 </v>
    <i name="Tr[quadrupol]">  -9445.84183297 </i>
    <i name="Echarged">      0.00000000 </i>
    <i name="Edipol_quadrupol">      0.00000000 </i>
    <i name="Eion">      0.00000000 </i>
   </dipole>
   <energy>
    <i name="e_fr_energy">   -473.55744266 </i>
    <i name="e_wo_entrp">   -473.47605788 </i>
    <i name="e_0_energy">   -473.51675027 </i>
   </energy>
  </scstep>
  <scstep>
   <time name="dav">    1.51    1.51</time>
   <time name="total">    1.55    1.55</time>
   <dipole>
    <v name="dipole">      0.00000000       0.00000000       0.36139420 </v>
    <i name="Tr[quadrupol]">  -9445.84040279 </i>
    <i name="Echarged">      0.00000000 </i>
    <i name="Edipol_quadrupol">      0.00000000 </i>
    <i name="Eion">      0.00000000 </i>
   </dipole>
   <energy>
    <i name="alphaZ">    163.25282702 </i>
    <i name="ewald">  31804.37621222 </i>
    <i name="hartreedc"> -45450.05053071 </i>
    <i name="XCdc">   1095.03775371 </i>
    <i name="pawpsdc">  31741.79871132 </i>
    <i name="pawaedc"> -32006.09044209 </i>
    <i name="eentropy">     -0.08139873 </i>
    <i name="bandstr">  -3524.04982571 </i>
    <i name="atom">  15702.24924933 </i>
    <i name="e_fr_energy">   -473.55744364 </i>
    <i name="e_wo_entrp">   -473.47604491 </i>
    <i name="e_0_energy">   -473.51674427 </i>
   </energy>
  </scstep>
  <structure>
   <crystal>
    <varray name="basis" >
     <v>      14.26590000       0.00000000       0.00000000 </v>
     <v>       0.00000000      12.35699650       0.00000000 </v>
     <v>       0.00000000       0.00000000      15.00000000 </v>
    </varray>
    <i name="volume">   2644.25514646 </i>
    <varray name="rec_basis" >
     <v>       0.07009722       0.00000000       0.00000000 </v>
     <v>       0.00000000       0.08092581       0.00000000 </v>
     <v>       0.00000000       0.00000000       0.06666667 </v>
    </varray>
   </crystal>
   <varray name="positions" >
    <v>       0.06537593       0.40364000       0.13333000 </v>
    <v>       0.98097748       0.23494000       0.13333000 </v>
    <v>       0.22593437       0.39820000       0.13333000 </v>
    <v>       0.81543575       0.57710000       0.13333000 </v>
    <v>       0.14973747       0.23490000       0.13333000 </v>
    <v>       0.90517930       0.39797000       0.13333000 </v>
    <v>       0.56537593       0.40364000       0.13333000 </v>
    <v>       0.48097748       0.23494000       0.13333000 </v>
    <v>       0.72593437       0.39820000       0.13333000 </v>
    <v>       0.31543575       0.57710000       0.13333000 </v>
    <v>       0.64973747       0.23490000       0.13333000 </v>
    <v>       0.40517930       0.39797000       0.13333000 </v>
    <v>       0.81551954       0.90364000       0.13333000 </v>
    <v>       0.73112108       0.73494000       0.13333000 </v>
    <v>       0.97607797       0.89820000       0.13333000 </v>
    <v>       0.06529214       0.07710000       0.13333000 </v>
    <v>       0.89988107       0.73490000       0.13333000 </v>
    <v>       0.65532291       0.89797000       0.13333000 </v>
    <v>       0.31551954       0.90364000       0.13333000 </v>
    <v>       0.23112108       0.73494000       0.13333000 </v>
    <v>       0.47607797       0.89820000       0.13333000 </v>
    <v>       0.56529214       0.07710000       0.13333000 </v>
    <v>       0.39988107       0.73490000       0.13333000 </v>
    <v>       0.15532291       0.89797000       0.13333000 </v>
    <v>       0.98400093       0.45588000       0.13333000 </v>
    <v>       0.90111835       0.29021000       0.13333000 </v>
    <v>       0.14710595       0.45595000       0.13333000 </v>
    <v>       0.14840652       0.12714000       0.13333000 </v>
    <v>       0.98256150       0.12707000       0.13333000 </v>
    <v>       0.22992331       0.29008000       0.13333000 </v>
    <v>       0.06536362       0.29116000       0.13333000 </v>
    <v>       0.81553147       0.45774000       0.13333000 </v>
    <v>       0.48400093       0.45588000       0.13333000 </v>
    <v>       0.40111835       0.29021000       0.13333000 </v>
    <v>       0.64710595       0.45595000       0.13333000 </v>
    <v>       0.64840652       0.12714000       0.13333000 </v>
    <v>       0.48256150       0.12707000       0.13333000 </v>
    <v>       0.72992331       0.29008000       0.13333000 </v>
    <v>       0.56536362       0.29116000       0.13333000 </v>
    <v>       0.31553147       0.45774000       0.13333000 </v>
    <v>       0.73414454       0.95588000       0.13333000 </v>
    <v>       0.65126196       0.79021000       0.13333000 </v>
    <v>       0.89724956       0.95595000       0.13333000 </v>
    <v>       0.89855012       0.62714000       0.13333000 </v>
    <v>       0.73270510       0.62707000       0.13333000 </v>
    <v>       0.98006692       0.79008000       0.13333000 </v>
    <v>       0.81550723       0.79116000       0.13333000 </v>
    <v>       0.56567507       0.95774000       0.13333000 </v>
    <v>       0.23414454       0.95588000       0.13333000 </v>
    <v>       0.15126196       0.79021000       0.13333000 </v>
    <v>       0.39724956       0.95595000       0.13333000 </v>
    <v>       0.39855012       0.62714000       0.13333000 </v>
    <v>       0.23270510       0.62707000       0.13333000 </v>
    <v>       0.48006692       0.79008000       0.13333000 </v>
    <v>       0.31550723       0.79116000       0.13333000 </v>
    <v>       0.06567507       0.95774000       0.13333000 </v>
    <v>       0.57212639       0.73516025       0.21645333 </v>
    <v>       0.65206172       0.57443857       0.21306333 </v>
    <v>       0.48966112       0.57467425       0.20988333 </v>
   </varray>
  </structure>
  <varray name="forces" >
   <v>       0.15455359       0.11488723       0.00440949 </v>
   <v>       0.00756613      -0.33100400       0.00881926 </v>
   <v>      -0.12838764      -0.32209085       0.01843642 </v>
   <v>       1.98005502      -1.05887124      -0.29104277 </v>
   <v>       0.13190815      -0.23045332       0.00698400 </v>
   <v>       0.01951072      -0.08193997       0.00906094 </v>
   <v>       0.15929075      -1.47690974      -0.31046525 </v>
   <v>      -0.44135844      -0.81101062      -0.00126132 </v>
   <v>       2.04872519      -1.42222369      -0.23990696 </v>
   <v>      -1.54102305      -1.09507636      -0.20454161 </v>
   <v>       0.54902419      -0.69155470       0.00476013 </v>
   <v>      -2.15537960      -1.05027124      -0.17277411 </v>
   <v>       0.35566014       0.58816861      -0.01603742 </v>
   <v>       2.18375671       0.57679131      -0.63332131 </v>
   <v>       0.16927263       0.10230404      -0.02782606 </v>
   <v>       0.19047697      -0.08015670       0.00944400 </v>
   <v>       0.78168963      -0.26946277      -0.00692594 </v>
   <v>       0.13994917       2.87206280      -0.32726293 </v>
   <v>      -0.09428181       0.57920419      -0.00238337 </v>
   <v>      -0.64584585      -0.35064836      -0.00843480 </v>
   <v>      -0.18028255       2.40140513      -0.33714162 </v>
   <v>       0.21238444      -0.13727465      -0.02730671 </v>
   <v>      -1.51280689       0.55537826      -0.47947676 </v>
   <v>      -0.31402581       0.32114886      -0.02246565 </v>
   <v>      -0.06759708       0.14573358      -0.00249430 </v>
   <v>      -0.17322673       0.07631939      -0.00659417 </v>
   <v>      -0.06414601       0.09809041      -0.00468012 </v>
   <v>      -0.02377485       0.07159100      -0.00932450 </v>
   <v>      -0.13915147       0.16418741      -0.00885009 </v>
   <v>       0.08776446       0.19382303      -0.00723686 </v>
   <v>       0.03235218       0.03281523       0.00478560 </v>
   <v>      -0.37309343       0.13162026      -0.11483315 </v>
   <v>       0.77961980      -0.72213892      -0.37423797 </v>
   <v>       0.23379779       0.43213344      -0.02562232 </v>
   <v>      -0.84043602      -0.56319074      -0.32415548 </v>
   <v>       0.06254734       0.31778508       0.03516322 </v>
   <v>      -0.24780838       0.44590738       0.04291717 </v>
   <v>      -0.28731444       0.56966124      -0.00897715 </v>
   <v>       0.05040855       0.98980520      -0.23003033 </v>
   <v>       0.47169013       0.22282423      -0.08312266 </v>
   <v>      -0.22985841      -0.41767111       0.09467528 </v>
   <v>       4.43870117       2.18905866      -5.15522895 </v>
   <v>      -0.26592624      -0.00049377      -0.00026037 </v>
   <v>      -0.48677320       0.15572707       0.04517017 </v>
   <v>       1.42760983       1.39984839      -1.75541272 </v>
   <v>      -0.25215920      -0.22235720       0.03361614 </v>
   <v>      -0.81503745      -0.35421954      -0.11784175 </v>
   <v>      -0.12686676      -0.18561662      -0.30246517 </v>
   <v>       0.21634513       0.05559534       0.00062280 </v>
   <v>       0.14971294      -0.31972612       0.03940888 </v>
   <v>       0.15240482      -0.45465409       0.05474118 </v>
   <v>      -0.85820778       1.09343081      -0.75319674 </v>
   <v>       0.34809192       0.24461587       0.00994405 </v>
   <v>      -2.96295895       1.12450800      -2.71875644 </v>
   <v>       0.85899680      -0.34860496      -0.11252494 </v>
   <v>      -0.03169967      -0.03664889       0.00390842 </v>
   <v>      -2.29786785      -2.90165916       9.52620929 </v>
   <v>      -1.24521142      -1.60037083       3.03742522 </v>
   <v>       0.40864070      -0.73013128       2.23391907 </v>
  </varray>
  <varray name="stress" >
   <v>      12.30506218       0.18461853      -2.35548297 </v>
   <v>       0.18461850       9.64709929      -3.87265648 </v>
   <v>      -2.35548298      -3.87265648      -1.18195652 </v>
  </varray>
  <energy>
   <i name="e_fr_energy">   -473.55744364 </i>
   <i name="e_wo_entrp">   -473.47604491 </i>
   <i name="e_0_energy">   -473.51674427 </i>
  </energy>
  <time name="totalsc">   87.64   87.79</time>
 </calculation>
 <calculation>
  <scstep>
   <time name="dav">    1.58    1.58</time>
   <time name="total">    1.67    1.67</time>
   <dipole>
    <v name="dipole">      0.00000000       0.00000000       0.36167013 </v>
    <i name="Tr[quadrupol]">  -9501.91936704 </i>
    <i name="Echarged">      0.00000000 </i>
    <i name="Edipol_quadrupol">      0.00000000 </i>
    <i name="Eion">      0.00000000 </i>
   </dipole>
   <energy>
    <i name="alphaZ">    162.28051420 </i>
    <i name="ewald">  31405.71304644 </i>
    <i name="hartreedc"> -45046.77552908 </i>
    <i name="XCdc">   1092.53747140 </i>
    <i name="pawpsdc">  31742.00433430 </i>
    <i name="pawaedc"> -32006.29230635 </i>
    <i name="eentropy">     -0.06514049 </i>
    <i name="bandstr">  -3526.75038219 </i>
    <i name="atom">  15702.24924933 </i>
    <i name="e_fr_energy">   -475.09874244 </i>
    <i name="e_wo_entrp">   -475.03360194 </i>
    <i name="e_0_energy">   -475.06617219 </i>
   </energy>
  </scstep>
  <scstep>
   <time name="dav">    2.13    2.14</time>
   <time name="total">    2.21    2.22</time>
   <dipole>
    <v name="dipole">      0.00000000       0.00000000       0.37413914 </v>
    <i name="Tr[quadrupol]">  -9502.07951828 </i>
    <i name="Echarged">      0.00000000 </i>
    <i name="Edipol_quadrupol">      0.00000000 </i>
    <i name="Eion">      0.00000000 </i>
   </dipole>
   <energy>
    <i name="e_fr_energy">   -475.51765300 </i>
    <i name="e_wo_entrp">   -475.39138131 </i>
    <i name="e_0_energy">   -475.45451715 </i>
   </energy>
  </scstep>
  <scstep>
   <time name="dav">    2.19    2.19</time>
   <time name="total">    2.27    2.27</time>
   <dipole>
    <v name="dipole">      0.00000000       0.00000000       0.35638274 </v>
    <i name="Tr[quadrupol]">  -9501.69018443 </i>
    <i name="Echarged">      0.00000000 </i>
    <i name="Edipol_quadrupol">      0.00000000 </i>
    <i name="Eion">      0.00000000 </i>
   </dipole>
   <energy>
    <i name="e_fr_energy">   -475.40930418 </i>
    <i name="e_wo_entrp">   -475.34203362 </i>
    <i name="e_0_energy">   -475.37566890 </i>
   </energy>
  </scstep>
  <scstep>
   <time name="dav">    2.21    2.22</time>
   <time name="total">    2.30    2.30</time>
   <dipole>
    <v name="dipole">      0.00000000       0.00000000       0.35401679 </v>
    <i name="Tr[quadrupol]">  -9501.84777925 </i>
    <i name="Echarged">      0.00000000 </i>
    <i name="Edipol_quadrupol">      0.00000000 </i>
    <i name="Eion">      0.00000000 </i>
   </dipole>
   <energy>
    <i name="e_fr_energy">   -475.40713533 </i>
    <i name="e_wo_entrp">   -475.29969908 </i>
    <i name="e_0_energy">   -475.35341720 </i>
   </energy>
  </scstep>
  <scstep>
   <time name="dav">    2.20    2.20</time>
   <time name="total">    2.28    2.28</time>
   <dipole>
    <v name="dipole">      0.00000000       0.00000000       0.35223507 </v>
    <i name="Tr[quadrupol]">  -9501.76292702 </i>
    <i name="Echarged">      0.00000000 </i>
    <i name="Edipol_quadrupol">      0.00000000 </i>
    <i name="Eion">      0.00000000 </i>
   </dipole>
   <energy>
    <i name="e_fr_energy">   -475.35597336 </i>
    <i name="e_wo_entrp">   -475.28222176 </i>
    <i name="e_0_energy">   -475.31909756 </i>
   </energy>
  </scstep>
  <scstep>
   <time name="dav">    2.04    2.05</time>
   <time name="total">    2.12    2.13</time>
   <dipole>
    <v name="dipole">      0.00000000       0.00000000       0.35496488 </v>
    <i name="Tr[quadrupol]">  -9501.76188851 </i>
    <i name="Echarged">      0.00000000 </i>
    <i name="Edipol_quadrupol">      0.00000000 </i>
    <i name="Eion">      0.00000000 </i>
   </dipole>
   <energy>
    <i name="e_fr_energy">   -475.35717796 </i>
    <i name="e_wo_entrp">   -475.28063647 </i>
    <i name="e_0_energy">   -475.31890721 </i>
   </energy>
  </scstep>
  <scstep>
   <time name="dav">    2.10    2.10</time>
   <time name="total">    2.18    2.18</time>
   <dipole>
    <v name="dipole">      0.00000000       0.00000000       0.35678150 </v>
    <i name="Tr[quadrupol]">  -9501.75673603 </i>
    <i name="Echarged">      0.00000000 </i>
    <i name="Edipol_quadrupol">      0.00000000 </i>
    <i name="Eion">      0.00000000 </i>
   </dipole>
   <energy>
    <i name="e_fr_energy">   -475.35661854 </i>
    <i name="e_wo_entrp">   -475.28175192 </i>
    <i name="e_0_energy">   -475.31918523 </i>
   </energy>
  </scstep>
  <scstep>
   <time name="dav">    2.12    2.13</time>
   <time name="total">    2.21    2.22</time>
   <dipole>
    <v name="dipole">      0.00000000       0.00000000       0.35758879 </v>
    <i name="Tr[quadrupol]">  -9501.75243953 </i>
    <i name="Echarged">      0.00000000 </i>
    <i name="Edipol_quadrupol">      0.00000000 </i>
    <i name="Eion">      0.00000000 </i>
   </dipole>
   <energy>
    <i name="e_fr_energy">   -475.35666989 </i>
    <i name="e_wo_entrp">   -475.28261422 </i>
    <i name="e_0_energy">   -475.31964206 </i>
   </energy>
  </scstep>
  <scstep>
   <time name="dav">    2.17    2.17</time>
   <time name="total">    2.25    2.26</time>
   <dipole>
    <v name="dipole">      0.00000000       0.00000000       0.35768195 </v>
    <i name="Tr[quadrupol]">  -9501.74921568 </i>
    <i name="Echarged">      0.00000000 </i>
    <i name="Edipol_quadrupol">      0.00000000 </i>
    <i name="Eion">      0.00000000 </i>
   </dipole>
   <energy>
    <i name="e_fr_energy">   -475.35675557 </i>
    <i name="e_wo_entrp">   -475.28288091 </i>
    <i name="e_0_energy">   -475.31981824 </i>
   </energy>
  </scstep>
  <scstep>
   <time name="dav">    1.70    1.70</time>
   <time name="total">    1.78    1.78</time>
   <dipole>
    <v name="dipole">      0.00000000       0.00000000       0.35760567 </v>
    <i name="Tr[quadrupol]">  -9501.74478775 </i>
    <i name="Echarged">      0.00000000 </i>
    <i name="Edipol_quadrupol">      0.00000000 </i>
    <i name="Eion">      0.00000000 </i>
   </dipole>
   <energy>
    <i name="e_fr_energy">   -475.35689014 </i>
    <i name="e_wo_entrp">   -475.28291904 </i>
    <i name="e_0_energy">   -475.31990459 </i>
   </energy>
  </scstep>
  <scstep>
   <time name="dav">    1.64    1.65</time>
   <time name="total">    1.73    1.74</time>
   <dipole>
    <v name="dipole">      0.00000000       0.00000000       0.35714009 </v>
    <i name="Tr[quadrupol]">  -9501.67258403 </i>
    <i name="Echarged">      0.00000000 </i>
    <i name="Edipol_quadrupol">      0.00000000 </i>
    <i name="Eion">      0.00000000 </i>
   </dipole>
   <energy>
    <i name="e_fr_energy">   -475.35706067 </i>
    <i name="e_wo_entrp">   -475.28298147 </i>
    <i name="e_0_energy">   -475.32002107 </i>
   </energy>
  </scstep>
  <scstep>
   <time name="dav">    1.37    1.37</time>
   <time name="total">    1.46    1.47</time>
   <dipole>
    <v name="dipole">      0.00000000       0.00000000       0.35701826 </v>
    <i name="Tr[quadrupol]">  -9501.60025908 </i>
    <i name="Echarged">      0.00000000 </i>
    <i name="Edipol_quadrupol">      0.00000000 </i>
    <i name="Eion">      0.00000000 </i>
   </dipole>
   <energy>
    <i name="e_fr_energy">   -475.35720233 </i>
    <i name="e_wo_entrp">   -475.28305256 </i>
    <i name="e_0_energy">   -475.32012744 </i>
   </energy>
  </scstep>
  <scstep>
   <time name="dav">    1.32    1.32</time>
   <time name="total">    1.40    1.40</time>
   <dipole>
    <v name="dipole">      0.00000000       0.00000000       0.35690100 </v>
    <i name="Tr[quadrupol]">  -9501.59471658 </i>
    <i name="Echarged">      0.00000000 </i>
    <i name="Edipol_quadrupol">      0.00000000 </i>
    <i name="Eion">      0.00000000 </i>
   </dipole>
   <energy>
    <i name="e_fr_energy">   -475.35730443 </i>
    <i name="e_wo_entrp">   -475.28313766 </i>
    <i name="e_0_energy">   -475.32022105 </i>
   </energy>
  </scstep>
  <scstep>
   <time name="dav">    1.33    1.33</time>
   <time name="total">    1.41    1.42</time>
   <dipole>
    <v name="dipole">      0.00000000       0.00000000       0.35674078 </v>
    <i name="Tr[quadrupol]">  -9501.58883716 </i>
    <i name="Echarged">      0.00000000 </i>
    <i name="Edipol_quadrupol">      0.00000000 </i>
    <i name="Eion">      0.00000000 </i>
   </dipole>
   <energy>
    <i name="e_fr_energy">   -475.35738150 </i>
    <i name="e_wo_entrp">   -475.28320549 </i>
    <i name="e_0_energy">   -475.32029350 </i>
   </energy>
  </scstep>
  <scstep>
   <time name="dav">    1.25    1.25</time>
   <time name="total">    1.33    1.33</time>
   <dipole>
    <v name="dipole">      0.00000000       0.00000000       0.35658540 </v>
    <i name="Tr[quadrupol]">  -9501.65218756 </i>
    <i name="Echarged">      0.00000000 </i>
    <i name="Edipol_quadrupol">      0.00000000 </i>
    <i name="Eion">      0.00000000 </i>
   </dipole>
   <energy>
    <i name="e_fr_energy">   -475.35741213 </i>
    <i name="e_wo_entrp">   -475.28321995 </i>
    <i name="e_0_energy">   -475.32031604 </i>
   </energy>
  </scstep>
  <scstep>
   <time name="dav">    1.21    1.22</time>
   <time name="total">    1.30    1.30</time>
   <dipole>
    <v name="dipole">      0.00000000       0.00000000       0.35660830 </v>
    <i name="Tr[quadrupol]">  -9501.71570256 </i>
    <i name="Echarged">      0.00000000 </i>
    <i name="Edipol_quadrupol">      0.00000000 </i>
    <i name="Eion">      0.00000000 </i>
   </dipole>
   <energy>
    <i name="e_fr_energy">   -475.35742867 </i>
    <i name="e_wo_entrp">   -475.28323084 </i>
    <i name="e_0_energy">   -475.32032976 </i>
   </energy>
  </scstep>
  <scstep>
   <time name="dav">    1.18    1.18</time>
   <time name="total">    1.21    1.22</time>
   <dipole>
    <v name="dipole">      0.00000000       0.00000000       0.35666194 </v>
    <i name="Tr[quadrupol]">  -9501.78050494 </i>
    <i name="Echarged">      0.00000000 </i>
    <i name="Edipol_quadrupol">      0.00000000 </i>
    <i name="Eion">      0.00000000 </i>
   </dipole>
   <energy>
    <i name="alphaZ">    161.47817056 </i>
    <i name="ewald">  31405.71304644 </i>
    <i name="hartreedc"> -45064.36026753 </i>
    <i name="XCdc">   1093.39357122 </i>
    <i name="pawpsdc">  31322.31347074 </i>
    <i name="pawaedc"> -31584.85222591 </i>
    <i name="eentropy">     -0.07419199 </i>
    <i name="bandstr">  -3511.21825912 </i>
    <i name="atom">  15702.24924933 </i>
    <i name="e_fr_energy">   -475.35743626 </i>
    <i name="e_wo_entrp">   -475.28324427 </i>
    <i name="e_0_energy">   -475.32034027 </i>
   </energy>
  </scstep>
  <structure>
   <crystal>
    <varray name="basis" >
     <v>      14.31327890       0.00000000       0.00000000 </v>
     <v>       0.00000000      12.38917099       0.00000000 </v>
     <v>       0.00000000       0.00000000      15.00000000 </v>
    </varray>
    <i name="volume">   2659.94489531 </i>
    <varray name="rec_basis" >
     <v>       0.06986519       0.00000000       0.00000000 </v>
     <v>       0.00000000       0.08071565       0.00000000 </v>
     <v>       0.00000000       0.00000000       0.06666667 </v>
    </varray>
   </crystal>
   <varray name="positions" >
    <v>       0.06548046       0.40372971       0.13333284 </v>
    <v>       0.98098259       0.23468155       0.13333567 </v>
    <v>       0.22584753       0.39794851       0.13334186 </v>
    <v>       0.81677493       0.57627322       0.13314279 </v>
    <v>       0.14982668       0.23472006       0.13333449 </v>
    <v>       0.90519250       0.39790602       0.13333583 </v>
    <v>       0.56548366       0.40248681       0.13313030 </v>
    <v>       0.48067897       0.23430675       0.13332919 </v>
    <v>       0.72731999       0.39708951       0.13317568 </v>
    <v>       0.31439350       0.57624495       0.13319843 </v>
    <v>       0.65010879       0.23436002       0.13333306 </v>
    <v>       0.40372154       0.39714993       0.13321887 </v>
    <v>       0.81576008       0.90409925       0.13331968 </v>
    <v>       0.73259804       0.73539037       0.13292263 </v>
    <v>       0.97619246       0.89827988       0.13331210 </v>
    <v>       0.06542097       0.07703741       0.13333607 </v>
    <v>       0.90040976       0.73468960       0.13332554 </v>
    <v>       0.65541756       0.90021255       0.13311949 </v>
    <v>       0.31545577       0.90409225       0.13332847 </v>
    <v>       0.23068428       0.73466621       0.13332457 </v>
    <v>       0.47595604       0.90007505       0.13311314 </v>
    <v>       0.56543579       0.07699281       0.13331244 </v>
    <v>       0.39885791       0.73533365       0.13302158 </v>
    <v>       0.15511052       0.89822076       0.13331555 </v>
    <v>       0.98395522       0.45599379       0.13332840 </v>
    <v>       0.90100119       0.29026959       0.13332576 </v>
    <v>       0.14706257       0.45602659       0.13332699 </v>
    <v>       0.14839044       0.12719590       0.13332400 </v>
    <v>       0.98246738       0.12719820       0.13332431 </v>
    <v>       0.22998267       0.29023134       0.13332534 </v>
    <v>       0.06538551       0.29118562       0.13333308 </v>
    <v>       0.81527913       0.45784277       0.13325614 </v>
    <v>       0.48452822       0.45531614       0.13308928 </v>
    <v>       0.40127648       0.29054742       0.13331352 </v>
    <v>       0.64653754       0.45551025       0.13312149 </v>
    <v>       0.64844882       0.12738813       0.13335262 </v>
    <v>       0.48239389       0.12741817       0.13335761 </v>
    <v>       0.72972899       0.29052480       0.13332423 </v>
    <v>       0.56539772       0.29193285       0.13318204 </v>
    <v>       0.31585049       0.45791398       0.13327653 </v>
    <v>       0.73398908       0.95555388       0.13339090 </v>
    <v>       0.65426401       0.79191925       0.13001397 </v>
    <v>       0.89706971       0.95594961       0.13332983 </v>
    <v>       0.89822090       0.62726159       0.13335906 </v>
    <v>       0.73367065       0.62816302       0.13220086 </v>
    <v>       0.97989638       0.78990638       0.13335162 </v>
    <v>       0.81495599       0.79088342       0.13325420 </v>
    <v>       0.56558927       0.95759507       0.13313544 </v>
    <v>       0.23429086       0.95592341       0.13333040 </v>
    <v>       0.15136321       0.78996035       0.13335535 </v>
    <v>       0.39735264       0.95559500       0.13336521 </v>
    <v>       0.39796969       0.62799377       0.13284552 </v>
    <v>       0.23294053       0.62726100       0.13333640 </v>
    <v>       0.47806297       0.79095803       0.13158120 </v>
    <v>       0.31608820       0.79088780       0.13325762 </v>
    <v>       0.06565364       0.95771138       0.13333251 </v>
    <v>       0.57057226       0.73289459       0.22258093 </v>
    <v>       0.65121954       0.57318898       0.21501711 </v>
    <v>       0.48993750       0.57410415       0.21132027 </v>
   </varray>
  </structure>
  <varray name="forces" >
   <v>       0.00079215       0.07714616       0.00534314 </v>
   <v>      -0.03277900      -0.03887938       0.00680362 </v>
   <v>      -0.23590241      -0.15295936       0.00791118 </v>
   <v>       0.74330108      -0.26154109      -0.26436834 </v>
   <v>       0.06884134      -0.04418060       0.00476981 </v>
   <v>       0.18967411      -0.11473758       0.00200598 </v>
   <v>       0.06206238      -0.98896957      -0.28535187 </v>
   <v>      -0.18829575      -0.04861912      -0.01644674 </v>
   <v>       0.41819856      -0.26484300      -0.20424459 </v>
   <v>      -0.47705195      -0.23854246      -0.17364927 </v>
   <v>       0.25169278      -0.05907762      -0.01327736 </v>
   <v>      -0.48968670      -0.21634398      -0.15708307 </v>
   <v>      -0.09693172       0.24872467      -0.01576508 </v>
   <v>       1.47297299       0.72157827      -0.76124018 </v>
   <v>      -0.03599129      -0.06287026      -0.02578511 </v>
   <v>       0.02554676       0.06716591       0.00674828 </v>
   <v>       0.18349705      -0.07290950       0.00542028 </v>
   <v>       0.21222408       0.96790966      -0.44234527 </v>
   <v>       0.13100164       0.18399488      -0.01132440 </v>
   <v>      -0.09623277      -0.08110315      -0.00859309 </v>
   <v>      -0.16895382       0.65689668      -0.35788425 </v>
   <v>       0.00569773       0.11459347      -0.02883150 </v>
   <v>      -1.12107478       0.59093329      -0.55663791 </v>
   <v>       0.00417904       0.01101465      -0.02045468 </v>
   <v>      -0.02987088      -0.06667956      -0.00086054 </v>
   <v>       0.06422942       0.06725532      -0.00356975 </v>
   <v>       0.04327048      -0.08957211      -0.00192213 </v>
   <v>      -0.13803968       0.05047861      -0.00733239 </v>
   <v>       0.14351980       0.00827890      -0.00721866 </v>
   <v>      -0.09921540       0.09321225      -0.00418630 </v>
   <v>       0.05434520      -0.01614899       0.00667597 </v>
   <v>       0.20078833      -0.12305910      -0.11592393 </v>
   <v>      -0.25033892      -0.72805608      -0.15845787 </v>
   <v>       0.02324165      -0.05451509      -0.01697069 </v>
   <v>       0.31367866      -0.67486410      -0.14426151 </v>
[...]
    <i name="Edipol_quadrupol">      0.00000000 </i>
    <i name="Eion">      0.00000000 </i>
   </dipole>
   <energy>
    <i name="e_fr_energy">   -479.89914208 </i>
    <i name="e_wo_entrp">   -479.85290675 </i>
    <i name="e_0_energy">   -479.87602441 </i>
   </energy>
  </scstep>
  <scstep>
   <time name="dav">    1.16    1.16</time>
   <time name="total">    1.24    1.24</time>
   <dipole>
    <v name="dipole">      0.00000000       0.00000000       0.23758634 </v>
    <i name="Tr[quadrupol]">  -9279.27424022 </i>
    <i name="Echarged">      0.00000000 </i>
    <i name="Edipol_quadrupol">      0.00000000 </i>
    <i name="Eion">      0.00000000 </i>
   </dipole>
   <energy>
    <i name="e_fr_energy">   -479.89917339 </i>
    <i name="e_wo_entrp">   -479.85293234 </i>
    <i name="e_0_energy">   -479.87605287 </i>
   </energy>
  </scstep>
  <scstep>
   <time name="dav">    1.20    1.20</time>
   <time name="total">    1.29    1.29</time>
   <dipole>
    <v name="dipole">      0.00000000       0.00000000       0.23777847 </v>
    <i name="Tr[quadrupol]">  -9279.26992743 </i>
    <i name="Echarged">      0.00000000 </i>
    <i name="Edipol_quadrupol">      0.00000000 </i>
    <i name="Eion">      0.00000000 </i>
   </dipole>
   <energy>
    <i name="e_fr_energy">   -479.89918941 </i>
    <i name="e_wo_entrp">   -479.85295042 </i>
    <i name="e_0_energy">   -479.87606991 </i>
   </energy>
  </scstep>
  <scstep>
   <time name="dav">    1.23    1.23</time>
   <time name="total">    1.31    1.31</time>
   <dipole>
    <v name="dipole">      0.00000000       0.00000000       0.23799308 </v>
    <i name="Tr[quadrupol]">  -9279.26449192 </i>
    <i name="Echarged">      0.00000000 </i>
    <i name="Edipol_quadrupol">      0.00000000 </i>
    <i name="Eion">      0.00000000 </i>
   </dipole>
   <energy>
    <i name="e_fr_energy">   -479.89920506 </i>
    <i name="e_wo_entrp">   -479.85296562 </i>
    <i name="e_0_energy">   -479.87608534 </i>
   </energy>
  </scstep>
  <scstep>
   <time name="dav">    1.22    1.22</time>
   <time name="total">    1.25    1.25</time>
   <dipole>
    <v name="dipole">      0.00000000       0.00000000       0.23815023 </v>
    <i name="Tr[quadrupol]">  -9279.25983737 </i>
    <i name="Echarged">      0.00000000 </i>
    <i name="Edipol_quadrupol">      0.00000000 </i>
    <i name="Eion">      0.00000000 </i>
   </dipole>
   <energy>
    <i name="alphaZ">    158.58604692 </i>
    <i name="ewald">  29459.73499392 </i>
    <i name="hartreedc"> -43175.41522017 </i>
    <i name="XCdc">   1092.00390802 </i>
    <i name="pawpsdc">  31048.65479668 </i>
    <i name="pawaedc"> -31305.73403636 </i>
    <i name="eentropy">     -0.04623979 </i>
    <i name="bandstr">  -3459.93271317 </i>
    <i name="atom">  15702.24924933 </i>
    <i name="e_fr_energy">   -479.89921461 </i>
    <i name="e_wo_entrp">   -479.85297483 </i>
    <i name="e_0_energy">   -479.87609472 </i>
   </energy>
  </scstep>
  <structure>
   <crystal>
    <varray name="basis" >
     <v>      14.16177213       0.00000000       0.00000000 </v>
     <v>       0.00000000      12.25169550       0.00000000 </v>
     <v>       0.00000000       0.00000000      15.00000000 </v>
    </varray>
    <i name="volume">   2602.58579697 </i>
    <varray name="rec_basis" >
     <v>       0.07061263       0.00000000       0.00000000 </v>
     <v>       0.00000000       0.08162136       0.00000000 </v>
     <v>       0.00000000       0.00000000       0.06666667 </v>
    </varray>
   </crystal>
   <varray name="positions" >
    <v>       0.06605357       0.40327841       0.13314830 </v>
    <v>       0.98031089       0.23389540       0.13288813 </v>
    <v>       0.22629201       0.39757047       0.13375204 </v>
    <v>       0.81508687       0.57595244       0.12613222 </v>
    <v>       0.15083568       0.23346355       0.13143632 </v>
    <v>       0.90600871       0.39876782       0.13398522 </v>
    <v>       0.56651223       0.39971744       0.15702602 </v>
    <v>       0.48143396       0.23875283       0.11793326 </v>
    <v>       0.72869192       0.39639447       0.14078850 </v>
    <v>       0.31537268       0.57614146       0.12810746 </v>
    <v>       0.65046825       0.23872766       0.11319118 </v>
    <v>       0.40409809       0.39780949       0.14371574 </v>
    <v>       0.81458909       0.90468269       0.13589701 </v>
    <v>       0.73066794       0.73706962       0.10910528 </v>
    <v>       0.97645414       0.89712496       0.13824074 </v>
    <v>       0.06521717       0.07592487       0.13336886 </v>
    <v>       0.89973276       0.73462982       0.12830261 </v>
    <v>       0.65462121       0.90082249       0.12345951 </v>
    <v>       0.31546869       0.90575109       0.13050526 </v>
    <v>       0.23019885       0.73428420       0.12431320 </v>
    <v>       0.47622443       0.90134973       0.12605829 </v>
    <v>       0.56581707       0.07973652       0.12129576 </v>
    <v>       0.40025891       0.73677165       0.11733061 </v>
    <v>       0.15440011       0.89671642       0.13593613 </v>
    <v>       0.98488015       0.45659611       0.13226217 </v>
    <v>       0.90088007       0.29062694       0.13442671 </v>
    <v>       0.14762710       0.45559094       0.13436467 </v>
    <v>       0.14912367       0.12521064       0.13080598 </v>
    <v>       0.98149878       0.12546941       0.13139508 </v>
    <v>       0.23092095       0.28940857       0.13061882 </v>
    <v>       0.06569907       0.29010430       0.13374080 </v>
    <v>       0.81554430       0.45875826       0.13626245 </v>
    <v>       0.48365497       0.44603688       0.17839046 </v>
    <v>       0.40190445       0.29519873       0.11945872 </v>
    <v>       0.65040244       0.44549151       0.17724255 </v>
    <v>       0.64971098       0.13122085       0.11438774 </v>
    <v>       0.48276118       0.13194964       0.12242830 </v>
    <v>       0.73053262       0.29488245       0.11313687 </v>
    <v>       0.56602569       0.29936553       0.11161859 </v>
    <v>       0.31643554       0.45897267       0.13762640 </v>
    <v>       0.73181124       0.95462299       0.14845287 </v>
    <v>       0.65270529       0.79593024       0.09872767 </v>
    <v>       0.89636314       0.95537181       0.14273244 </v>
    <v>       0.89663383       0.62659569       0.13208191 </v>
    <v>       0.72948315       0.62611590       0.11164496 </v>
    <v>       0.98014771       0.78842014       0.13697345 </v>
    <v>       0.81585188       0.79167068       0.11841292 </v>
    <v>       0.56519246       0.96115780       0.12581243 </v>
    <v>       0.23348437       0.95557378       0.13981825 </v>
    <v>       0.15001116       0.78834156       0.13320858 </v>
    <v>       0.39703464       0.95817338       0.13816054 </v>
    <v>       0.40112762       0.62681716       0.12291660 </v>
    <v>       0.23330169       0.62640834       0.12755569 </v>
    <v>       0.48031157       0.79244032       0.11820854 </v>
    <v>       0.31485775       0.79199327       0.11474788 </v>
    <v>       0.06520275       0.95611297       0.13722678 </v>
    <v>       0.57071139       0.67806615       0.35202258 </v>
    <v>       0.65427090       0.59580740       0.22373306 </v>
    <v>       0.48298387       0.59235459       0.22935888 </v>
   </varray>
  </structure>
  <varray name="forces" >
   <v>       0.01333161      -0.06114619       0.03614891 </v>
   <v>       0.20166121      -0.18449222       0.05111761 </v>
   <v>       0.35292325       0.01452983       0.02519706 </v>
   <v>      -0.11984396      -0.16556943       0.06225325 </v>
   <v>      -0.15367650      -0.15578625       0.02991382 </v>
   <v>      -0.32315224       0.00174377       0.01426526 </v>
   <v>       0.17563268      -0.03935223       0.04864248 </v>
   <v>      -0.01327916      -0.18967370      -0.07612363 </v>
   <v>       0.21872237       0.14380600      -0.21407104 </v>
   <v>       0.19899818      -0.27279012       0.09718009 </v>
   <v>       0.11149465      -0.44869302      -0.14401632 </v>
   <v>      -0.35097236       0.00382896      -0.23236634 </v>
   <v>      -0.03098956      -0.14956516       0.18882221 </v>
   <v>       0.02439430       0.18944077      -0.12170947 </v>
   <v>      -0.27611458       0.13770422      -0.10719200 </v>
   <v>       0.05072713      -0.25053378      -0.04204217 </v>
   <v>       0.19518964      -0.02790596       0.10217312 </v>
   <v>      -0.14427611      -0.02939039      -0.03911330 </v>
   <v>       0.03141617      -0.25777364       0.10409747 </v>
   <v>       0.09938958       0.06699719       0.02220242 </v>
   <v>       0.21379986      -0.09174642      -0.02624742 </v>
   <v>       0.15242431       0.15948416      -0.16291141 </v>
   <v>       0.18449528       0.37025115      -0.01319917 </v>
   <v>      -0.04425570       0.26756329      -0.06266190 </v>
   <v>      -0.11139299       0.33225323      -0.04497108 </v>
   <v>      -0.32907691      -0.14433510       0.23570446 </v>
   <v>       0.05280260       0.34592616       0.07011375 </v>
   <v>      -0.10315165       0.10516469      -0.02083733 </v>
   <v>       0.02153342       0.13829982      -0.01962257 </v>
   <v>       0.30373413      -0.09087382       0.12992045 </v>
   <v>       0.01283618      -0.01066386      -0.05441146 </v>
   <v>       0.08356440      -0.13463591      -0.22885808 </v>
   <v>       0.01682485      -0.07246662      -0.08018956 </v>
   <v>      -0.08326886       0.16440461      -0.15710961 </v>
   <v>      -0.10643518      -0.16933134      -0.12441783 </v>
   <v>      -0.12577071      -0.28865075      -0.28553388 </v>
   <v>       0.00208534      -0.32941001      -0.18754966 </v>
   <v>       0.00113353       0.28450893      -0.23408910 </v>
   <v>      -0.02737016       0.19715753       0.66161239 </v>
   <v>      -0.07758830      -0.22093879      -0.18732170 </v>
   <v>       0.18224621       0.09762903       0.19796110 </v>
   <v>      -0.15553862      -0.13839721      -0.20419540 </v>
   <v>       0.23305609       0.05128310       0.34878495 </v>
   <v>       0.05615123       0.00705538       0.14140711 </v>
   <v>       0.00011790      -0.03919490       0.11409835 </v>
   <v>      -0.12638635       0.04901593       0.02207699 </v>
   <v>      -0.49644238       0.24148193      -0.04567546 </v>
   <v>       0.08734473      -0.15075234      -0.29705277 </v>
   <v>      -0.11714678       0.01172741       0.23421860 </v>
   <v>       0.16902267      -0.07186248      -0.15146982 </v>
   <v>      -0.07016913      -0.01669259       0.11013468 </v>
   <v>      -0.12501833      -0.17667542       0.17604164 </v>
   <v>      -0.11713438       0.01647127       0.07092674 </v>
   <v>      -0.06397917       0.03697837       0.04696220 </v>
   <v>       0.23209720       0.14515463      -0.05551878 </v>
   <v>      -0.03384101       0.31005361      -0.09522463 </v>
   <v>       0.06141320       0.08601644      -0.08900769 </v>
   <v>      -0.23884964       0.15403591       0.21876062 </v>
   <v>       0.22455680       0.24933232       0.24397284 </v>
  </varray>
  <varray name="stress" >
   <v>      -1.24951345       0.40762242       0.16844767 </v>
   <v>       0.40762240      -1.98759112       0.60050674 </v>
   <v>       0.16844767       0.60050674     -11.61521867 </v>
  </varray>
  <energy>
   <i name="e_fr_energy">   -479.89921461 </i>
   <i name="e_wo_entrp">   -479.85297483 </i>
   <i name="e_0_energy">   -479.87609472 </i>
  </energy>
  <time name="totalsc">   27.92   27.97</time>
 </calculation>
 <calculation>
  <scstep>
   <time name="dav">    1.62    1.62</time>
   <time name="total">    1.70    1.70</time>
   <dipole>
    <v name="dipole">      0.00000000       0.00000000       0.23808821 </v>
    <i name="Tr[quadrupol]">  -9240.99572160 </i>
    <i name="Echarged">      0.00000000 </i>
    <i name="Edipol_quadrupol">      0.00000000 </i>
    <i name="Eion">      0.00000000 </i>
   </dipole>
   <energy>
    <i name="alphaZ">    159.18522654 </i>
    <i name="ewald">  29352.48382998 </i>
    <i name="hartreedc"> -43084.68093238 </i>
    <i name="XCdc">   1092.39174653 </i>
    <i name="pawpsdc">  31048.63470802 </i>
    <i name="pawaedc"> -31305.71404884 </i>
    <i name="eentropy">     -0.05195016 </i>
    <i name="bandstr">  -3443.28461386 </i>
    <i name="atom">  15702.24924933 </i>
    <i name="e_fr_energy">   -478.78678483 </i>
    <i name="e_wo_entrp">   -478.73483468 </i>
    <i name="e_0_energy">   -478.76080976 </i>
   </energy>
  </scstep>
  <scstep>
   <time name="dav">    2.06    2.06</time>
   <time name="total">    2.15    2.15</time>
   <dipole>
    <v name="dipole">      0.00000000       0.00000000       0.23394822 </v>
    <i name="Tr[quadrupol]">  -9240.92214260 </i>
    <i name="Echarged">      0.00000000 </i>
    <i name="Edipol_quadrupol">      0.00000000 </i>
    <i name="Eion">      0.00000000 </i>
   </dipole>
   <energy>
    <i name="e_fr_energy">   -479.98471974 </i>
    <i name="e_wo_entrp">   -479.94520181 </i>
    <i name="e_0_energy">   -479.96496078 </i>
   </energy>
  </scstep>
  <scstep>
   <time name="dav">    2.24    2.24</time>
   <time name="total">    2.33    2.33</time>
   <dipole>
    <v name="dipole">      0.00000000       0.00000000       0.23704717 </v>
    <i name="Tr[quadrupol]">  -9241.01019735 </i>
    <i name="Echarged">      0.00000000 </i>
    <i name="Edipol_quadrupol">      0.00000000 </i>
    <i name="Eion">      0.00000000 </i>
   </dipole>
   <energy>
    <i name="e_fr_energy">   -479.92752930 </i>
    <i name="e_wo_entrp">   -479.88337710 </i>
    <i name="e_0_energy">   -479.90545320 </i>
   </energy>
  </scstep>
  <scstep>
   <time name="dav">    2.23    2.23</time>
   <time name="total">    2.31    2.32</time>
   <dipole>
    <v name="dipole">      0.00000000       0.00000000       0.23416822 </v>
    <i name="Tr[quadrupol]">  -9240.98834864 </i>
    <i name="Echarged">      0.00000000 </i>
    <i name="Edipol_quadrupol">      0.00000000 </i>
    <i name="Eion">      0.00000000 </i>
   </dipole>
   <energy>
    <i name="e_fr_energy">   -479.90252399 </i>
    <i name="e_wo_entrp">   -479.85791676 </i>
    <i name="e_0_energy">   -479.88022038 </i>
   </energy>
  </scstep>
  <scstep>
   <time name="dav">    2.17    2.18</time>
   <time name="total">    2.25    2.26</time>
   <dipole>
    <v name="dipole">      0.00000000       0.00000000       0.23651234 </v>
    <i name="Tr[quadrupol]">  -9240.96589974 </i>
    <i name="Echarged">      0.00000000 </i>
    <i name="Edipol_quadrupol">      0.00000000 </i>
    <i name="Eion">      0.00000000 </i>
   </dipole>
   <energy>
    <i name="e_fr_energy">   -479.88663144 </i>
    <i name="e_wo_entrp">   -479.84292192 </i>
    <i name="e_0_energy">   -479.86477668 </i>
   </energy>
  </scstep>
  <scstep>
   <time name="dav">    2.20    2.20</time>
   <time name="total">    2.28    2.28</time>
   <dipole>
    <v name="dipole">      0.00000000       0.00000000       0.23800537 </v>
    <i name="Tr[quadrupol]">  -9240.93444017 </i>
    <i name="Echarged">      0.00000000 </i>
    <i name="Edipol_quadrupol">      0.00000000 </i>
    <i name="Eion">      0.00000000 </i>
   </dipole>
   <energy>
    <i name="e_fr_energy">   -479.88860144 </i>
    <i name="e_wo_entrp">   -479.84246296 </i>
    <i name="e_0_energy">   -479.86553220 </i>
   </energy>
  </scstep>
  <scstep>
   <time name="dav">    2.20    2.20</time>
   <time name="total">    2.28    2.28</time>
   <dipole>
    <v name="dipole">      0.00000000       0.00000000       0.23824198 </v>
    <i name="Tr[quadrupol]">  -9240.92364448 </i>
    <i name="Echarged">      0.00000000 </i>
    <i name="Edipol_quadrupol">      0.00000000 </i>
    <i name="Eion">      0.00000000 </i>
   </dipole>
   <energy>
    <i name="e_fr_energy">   -479.88844910 </i>
    <i name="e_wo_entrp">   -479.84273791 </i>
    <i name="e_0_energy">   -479.86559351 </i>
   </energy>
  </scstep>
  <scstep>
   <time name="dav">    2.31    2.31</time>
   <time name="total">    2.39    2.39</time>
   <dipole>
    <v name="dipole">      0.00000000       0.00000000       0.23858753 </v>
    <i name="Tr[quadrupol]">  -9240.91302261 </i>
    <i name="Echarged">      0.00000000 </i>
    <i name="Edipol_quadrupol">      0.00000000 </i>
    <i name="Eion">      0.00000000 </i>
   </dipole>
   <energy>
    <i name="e_fr_energy">   -479.88852245 </i>
    <i name="e_wo_entrp">   -479.84336902 </i>
    <i name="e_0_energy">   -479.86594573 </i>
   </energy>
  </scstep>
  <scstep>
   <time name="dav">    1.97    1.97</time>
   <time name="total">    2.05    2.06</time>
   <dipole>
    <v name="dipole">      0.00000000       0.00000000       0.23881785 </v>
    <i name="Tr[quadrupol]">  -9240.85354967 </i>
    <i name="Echarged">      0.00000000 </i>
    <i name="Edipol_quadrupol">      0.00000000 </i>
    <i name="Eion">      0.00000000 </i>
   </dipole>
   <energy>
    <i name="e_fr_energy">   -479.88873113 </i>
    <i name="e_wo_entrp">   -479.84331794 </i>
    <i name="e_0_energy">   -479.86602453 </i>
   </energy>
  </scstep>
  <scstep>
   <time name="dav">    1.93    1.93</time>
   <time name="total">    2.01    2.01</time>
   <dipole>
    <v name="dipole">      0.00000000       0.00000000       0.23927940 </v>
    <i name="Tr[quadrupol]">  -9240.83953621 </i>
    <i name="Echarged">      0.00000000 </i>
    <i name="Edipol_quadrupol">      0.00000000 </i>
    <i name="Eion">      0.00000000 </i>
   </dipole>
   <energy>
    <i name="e_fr_energy">   -479.88887586 </i>
    <i name="e_wo_entrp">   -479.84342748 </i>
    <i name="e_0_energy">   -479.86615167 </i>
   </energy>
  </scstep>
  <scstep>
   <time name="dav">    1.36    1.36</time>
   <time name="total">    1.46    1.46</time>
   <dipole>
    <v name="dipole">      0.00000000       0.00000000       0.23965865 </v>
    <i name="Tr[quadrupol]">  -9240.82608025 </i>
    <i name="Echarged">      0.00000000 </i>
    <i name="Edipol_quadrupol">      0.00000000 </i>
    <i name="Eion">      0.00000000 </i>
   </dipole>
   <energy>
    <i name="e_fr_energy">   -479.88898284 </i>
    <i name="e_wo_entrp">   -479.84355828 </i>
    <i name="e_0_energy">   -479.86627056 </i>
   </energy>
  </scstep>
  <scstep>
   <time name="dav">    1.23    1.23</time>
   <time name="total">    1.31    1.31</time>
   <dipole>
    <v name="dipole">      0.00000000       0.00000000       0.23992185 </v>
    <i name="Tr[quadrupol]">  -9240.81438109 </i>
    <i name="Echarged">      0.00000000 </i>
    <i name="Edipol_quadrupol">      0.00000000 </i>
    <i name="Eion">      0.00000000 </i>
   </dipole>
   <energy>
    <i name="e_fr_energy">   -479.88905826 </i>
    <i name="e_wo_entrp">   -479.84360682 </i>
    <i name="e_0_energy">   -479.86633254 </i>
   </energy>
  </scstep>
  <scstep>
   <time name="dav">    1.34    1.34</time>
   <time name="total">    1.42    1.42</time>
   <dipole>
    <v name="dipole">      0.00000000       0.00000000       0.24027240 </v>
    <i name="Tr[quadrupol]">  -9240.79678531 </i>
    <i name="Echarged">      0.00000000 </i>
    <i name="Edipol_quadrupol">      0.00000000 </i>
    <i name="Eion">      0.00000000 </i>
   </dipole>
   <energy>
    <i name="e_fr_energy">   -479.88914651 </i>
    <i name="e_wo_entrp">   -479.84369087 </i>
    <i name="e_0_energy">   -479.86641869 </i>
   </energy>
  </scstep>
  <scstep>
   <time name="dav">    1.26    1.26</time>
   <time name="total">    1.36    1.36</time>
   <dipole>
    <v name="dipole">      0.00000000       0.00000000       0.24054607 </v>
    <i name="Tr[quadrupol]">  -9240.78028394 </i>
    <i name="Echarged">      0.00000000 </i>
    <i name="Edipol_quadrupol">      0.00000000 </i>
    <i name="Eion">      0.00000000 </i>
   </dipole>
   <energy>
    <i name="e_fr_energy">   -479.88920262 </i>
    <i name="e_wo_entrp">   -479.84373906 </i>
    <i name="e_0_energy">   -479.86647084 </i>
   </energy>
  </scstep>
  <scstep>
