slab_Cel1-OPT                           
           1
    14.265900    0.000000    0.000000
     0.000000   12.356997    0.000000
     0.000000    0.000000   15.000000
   C    N    Au   Cu
    24    32     1     2
Direct configuration=     1
   0.06537593  0.40364000  0.13333000
   0.98097748  0.23494000  0.13333000
   0.22593437  0.39820000  0.13333000
   0.81543575  0.57710000  0.13333000
   0.14973747  0.23490000  0.13333000
   0.90517930  0.39797000  0.13333000
   0.56537593  0.40364000  0.13333000
   0.48097748  0.23494000  0.13333000
   0.72593437  0.39820000  0.13333000
   0.31543575  0.57710000  0.13333000
   0.64973747  0.23490000  0.13333000
   0.40517930  0.39797000  0.13333000
   0.81551954  0.90364000  0.13333000
   0.73112108  0.73494000  0.13333000
   0.97607797  0.89820000  0.13333000
   0.06529214  0.07710000  0.13333000
   0.89988107  0.73490000  0.13333000
   0.65532291  0.89797000  0.13333000
   0.31551954  0.90364000  0.13333000
   0.23112108  0.73494000  0.13333000
   0.47607797  0.89820000  0.13333000
   0.56529214  0.07710000  0.13333000
   0.39988107  0.73490000  0.13333000
   0.15532291  0.89797000  0.13333000
   0.98400093  0.45588000  0.13333000
   0.90111835  0.29021000  0.13333000
   0.14710595  0.45595000  0.13333000
   0.14840652  0.12714000  0.13333000
   0.98256150  0.12707000  0.13333000
   0.22992331  0.29008000  0.13333000
   0.06536362  0.29116000  0.13333000
   0.81553147  0.45774000  0.13333000
   0.48400093  0.45588000  0.13333000
   0.40111835  0.29021000  0.13333000
   0.64710595  0.45595000  0.13333000
   0.64840652  0.12714000  0.13333000
   0.48256150  0.12707000  0.13333000
   0.72992331  0.29008000  0.13333000
   0.56536362  0.29116000  0.13333000
   0.31553147  0.45774000  0.13333000
   0.73414454  0.95588000  0.13333000
   0.65126196  0.79021000  0.13333000
   0.89724956  0.95595000  0.13333000
   0.89855012  0.62714000  0.13333000
   0.73270510  0.62707000  0.13333000
   0.98006692  0.79008000  0.13333000
   0.81550723  0.79116000  0.13333000
   0.56567507  0.95774000  0.13333000
   0.23414454  0.95588000  0.13333000
   0.15126196  0.79021000  0.13333000
   0.39724956  0.95595000  0.13333000
   0.39855012  0.62714000  0.13333000
   0.23270510  0.62707000  0.13333000
   0.48006692  0.79008000  0.13333000
   0.31550723  0.79116000  0.13333000
   0.06567507  0.95774000  0.13333000
   0.57212639  0.73516025  0.21645333
   0.65206172  0.57443857  0.21306333
   0.48966112  0.57467425  0.20988333
slab_Cel1-OPT                           
           1
    14.313279    0.000000    0.000000
     0.000000   12.389171    0.000000
     0.000000    0.000000   15.000000
   C    N    Au   Cu
    24    32     1     2
Direct configuration=     2
   0.06548046  0.40372971  0.13333284
   0.98098259  0.23468155  0.13333567
   0.22584753  0.39794851  0.13334186
   0.81677493  0.57627322  0.13314279
   0.14982668  0.23472006  0.13333449
   0.90519250  0.39790602  0.13333583
   0.56548366  0.40248681  0.13313030
   0.48067897  0.23430675  0.13332919
   0.72731999  0.39708951  0.13317568
   0.31439350  0.57624495  0.13319843
   0.65010879  0.23436002  0.13333306
   0.40372154  0.39714993  0.13321887
   0.81576008  0.90409925  0.13331968
   0.73259804  0.73539037  0.13292263
   0.97619246  0.89827988  0.13331210
   0.06542097  0.07703741  0.13333607
   0.90040976  0.73468960  0.13332554
   0.65541756  0.90021255  0.13311949
   0.31545577  0.90409225  0.13332847
   0.23068428  0.73466621  0.13332457
   0.47595604  0.90007505  0.13311314
   0.56543579  0.07699281  0.13331244
   0.39885791  0.73533365  0.13302158
   0.15511052  0.89822076  0.13331555
   0.98395522  0.45599379  0.13332840
   0.90100119  0.29026959  0.13332576
   0.14706257  0.45602659  0.13332699
   0.14839044  0.12719590  0.13332400
   0.98246738  0.12719820  0.13332431
   0.22998267  0.29023134  0.13332534
   0.06538551  0.29118562  0.13333308
   0.81527913  0.45784277  0.13325614
   0.48452822  0.45531614  0.13308928
   0.40127648  0.29054742  0.13331352
   0.64653754  0.45551025  0.13312149
   0.64844882  0.12738813  0.13335262
   0.48239389  0.12741817  0.13335761
   0.72972899  0.29052480  0.13332423
   0.56539772  0.29193285  0.13318204
   0.31585049  0.45791398  0.13327653
   0.73398908  0.95555388  0.13339090
   0.65426401  0.79191925  0.13001397
   0.89706971  0.95594961  0.13332983
   0.89822090  0.62726159  0.13335906
   0.73367065  0.62816302  0.13220086
   0.97989638  0.78990638  0.13335162
   0.81495599  0.79088342  0.13325420
   0.56558927  0.95759507  0.13313544
   0.23429086  0.95592341  0.13333040
   0.15136321  0.78996035  0.13335535
   0.39735264  0.95559500  0.13336521
   0.39796969  0.62799377  0.13284552
   0.23294053  0.62726100  0.13333640
   0.47806297  0.79095803  0.13158120
   0.31608820  0.79088780  0.13325762
   0.06565364  0.95771138  0.13333251
   0.57057226  0.73289459  0.22258093
   0.65121954  0.57318898  0.21501711
   0.48993750  0.57410415  0.21132027
slab_Cel1-OPT                           
           1
    14.378187    0.000000    0.000000
     0.000000   12.433249    0.000000
     0.000000    0.000000   15.000000
   C    N    Au   Cu
    24    32     1     2
Direct configuration=     3
   0.06562319  0.40385228  0.13333672
   0.98098958  0.23432839  0.13334344
   0.22572897  0.39760486  0.13335811
   0.81860350  0.57514349  0.13288632
   0.14994850  0.23447418  0.13334065
   0.90521052  0.39781860  0.13334381
   0.56563077  0.40091106  0.13285671
   0.48027138  0.23344147  0.13332808
   0.72921198  0.39557211  0.13296427
   0.31297038  0.57507659  0.13301819
   0.65061581  0.23362219  0.13333726
   0.40173106  0.39602938  0.13306661
   0.81608853  0.90472678  0.13330555
   0.73461472  0.73600576  0.13236453
   0.97634878  0.89838903  0.13328758
   0.06559687  0.07695189  0.13334440
   0.90113164  0.73440210  0.13331944
   0.65554680  0.90327681  0.13283110
   0.31536870  0.90471022  0.13332637
   0.23008784  0.73429210  0.13331714
   0.47578955  0.90263716  0.13281604
   0.56563192  0.07684635  0.13328837
   0.39746084  0.73592619  0.13259906
   0.15482052  0.89856340  0.13329575
   0.98389279  0.45614928  0.13332620
   0.90084122  0.29035102  0.13331995
   0.14700333  0.45613124  0.13332287
   0.14836848  0.12727228  0.13331579
   0.98233888  0.12737337  0.13331651
   0.23006372  0.29043813  0.13331897
   0.06541538  0.29122063  0.13333730
   0.81493458  0.45798320  0.13315494
   0.48524819  0.45454568  0.13275949
   0.40149239  0.29100847  0.13329094
   0.64576140  0.45490937  0.13283584
   0.64850658  0.12772718  0.13338360
   0.48216504  0.12789392  0.13339543
   0.72946366  0.29113258  0.13331631
   0.56544427  0.29298890  0.13297933
   0.31628609  0.45815172  0.13320328
   0.73377681  0.95510825  0.13347433
   0.65836313  0.79425480  0.12547110
   0.89682412  0.95594909  0.13332960
   0.89777137  0.62742774  0.13339886
   0.73498904  0.62965655  0.13065396
   0.97966351  0.78966914  0.13338125
   0.81420331  0.79050550  0.13315036
   0.56547211  0.95739703  0.13286891
   0.23449066  0.95598273  0.13333095
   0.15150147  0.78961923  0.13339008
   0.39749338  0.95510992  0.13341345
   0.39717714  0.62916037  0.13218179
   0.23326199  0.62752199  0.13334516
   0.47532669  0.79215779  0.12918539
   0.31688148  0.79051587  0.13315846
   0.06562436  0.95767228  0.13333596
   0.56845019  0.72979876  0.23097558
   0.65006959  0.57148151  0.21769374
   0.49031487  0.57332516  0.21328883
slab_Cel1-OPT                           
           1
    14.364302    0.000000    0.000000
     0.000000   12.423820    0.000000
     0.000000    0.000000   15.000000
   C    N    Au   Cu
    24    32     1     2
Direct configuration=     4
   0.06559280  0.40382615  0.13333589
   0.98098809  0.23440367  0.13334178
   0.22575422  0.39767811  0.13335463
   0.81821411  0.57538430  0.13294118
   0.14992256  0.23452659  0.13333933
   0.90520668  0.39783723  0.13334210
   0.56559944  0.40124694  0.13291524
   0.48035818  0.23362591  0.13332831
   0.72880908  0.39589555  0.13300950
   0.31327343  0.57532563  0.13305674
   0.65050784  0.23377946  0.13333636
   0.40215493  0.39626823  0.13309918
   0.81601859  0.90459302  0.13330857
   0.73418527  0.73587458  0.13248392
   0.97631549  0.89836576  0.13329283
   0.06555942  0.07697012  0.13334262
   0.90097792  0.73446339  0.13332075
   0.65551928  0.90262364  0.13289279
   0.31538724  0.90457849  0.13332682
   0.23021485  0.73437184  0.13331873
   0.47582501  0.90209103  0.13287960
   0.56559016  0.07687757  0.13329352
   0.39775834  0.73579989  0.13268944
   0.15488228  0.89849036  0.13329999
   0.98390608  0.45611613  0.13332667
   0.90087528  0.29033366  0.13332119
   0.14701595  0.45610894  0.13332375
   0.14837316  0.12725600  0.13331754
   0.98236624  0.12733603  0.13331818
   0.23004646  0.29039405  0.13332033
   0.06540902  0.29121317  0.13333639
   0.81500795  0.45795327  0.13317659
   0.48509488  0.45470991  0.13283004
   0.40144641  0.29091019  0.13329577
   0.64592668  0.45503745  0.13289695
   0.64849428  0.12765491  0.13337698
   0.48221378  0.12779251  0.13338734
   0.72952016  0.29100303  0.13331801
   0.56543436  0.29276379  0.13302269
   0.31619333  0.45810104  0.13321895
   0.73382201  0.95520324  0.13345648
   0.65749022  0.79375696  0.12644289
   0.89687642  0.95594920  0.13332965
   0.89786710  0.62739233  0.13339034
   0.73470828  0.62933819  0.13098486
   0.97971310  0.78971971  0.13337491
   0.81436359  0.79058605  0.13317257
   0.56549706  0.95743924  0.13292592
   0.23444811  0.95597008  0.13333083
   0.15147203  0.78969194  0.13338265
   0.39746341  0.95521332  0.13340313
   0.39734591  0.62891170  0.13232377
   0.23319354  0.62746635  0.13334328
   0.47590938  0.79190205  0.12969789
   0.31671255  0.79059515  0.13317967
   0.06563059  0.95768062  0.13333522
   0.56890209  0.73045866  0.22917983
   0.65031447  0.57184547  0.21712117
   0.49023451  0.57349121  0.21286773
slab_Cel1-OPT                           
           1
    14.349335    0.000000    0.000000
     0.000000   12.419234    0.000000
     0.000000    0.000000   15.000000
   C    N    Au   Cu
    24    32     1     2
Direct configuration=     5
   0.06549750  0.40389114  0.13334196
   0.98092548  0.23457044  0.13334650
   0.22543291  0.39761332  0.13335745
   0.81817591  0.57562654  0.13267084
   0.14995561  0.23460646  0.13334207
   0.90550730  0.39767837  0.13334017
   0.56559464  0.40053970  0.13265253
   0.48026821  0.23414810  0.13330017
   0.72837659  0.39638698  0.13282301
   0.31341809  0.57562785  0.13289296
   0.65060888  0.23417108  0.13331207
   0.40257653  0.39656272  0.13294702
   0.81566357  0.90459336  0.13328770
   0.73513334  0.73681700  0.13163310
   0.97615687  0.89815852  0.13326931
   0.06549024  0.07716221  0.13334698
   0.90080065  0.73446496  0.13334122
   0.65580892  0.90233787  0.13230616
   0.31563471  0.90449955  0.13330600
   0.23043609  0.73441083  0.13331494
   0.47564697  0.90163328  0.13247361
   0.56548397  0.07720326  0.13326466
   0.39691811  0.73648437  0.13210114
   0.15506430  0.89826782  0.13328274
   0.98390466  0.45588275  0.13332684
   0.90109005  0.29040208  0.13331913
   0.14712436  0.45586581  0.13332353
   0.14815787  0.12730009  0.13331149
   0.98268553  0.12723519  0.13331212
   0.22982682  0.29042848  0.13331794
   0.06548230  0.29115740  0.13334357
   0.81560131  0.45759398  0.13306553
   0.48428520  0.45389297  0.13279201
   0.40134635  0.29041891  0.13328386
   0.64684995  0.45424969  0.13286753
   0.64822478  0.12753369  0.13341813
   0.48259651  0.12748492  0.13343320
   0.72957239  0.29031404  0.13330726
   0.56550598  0.29157692  0.13276908
   0.31561685  0.45777250  0.13312785
   0.73475828  0.95640766  0.13373816
   0.65691355  0.79454216  0.12493752
   0.89703696  0.95575779  0.13330838
   0.89831809  0.62735631  0.13344054
   0.73559069  0.62874021  0.13035883
   0.97967544  0.79008281  0.13339033
   0.81610269  0.79117243  0.13323550
   0.56546840  0.95840086  0.13275155
   0.23427581  0.95581041  0.13332895
   0.15147335  0.79009247  0.13341066
   0.39679423  0.95603493  0.13354107
   0.39635774  0.62847155  0.13203516
   0.23295150  0.62730341  0.13335769
   0.47613112  0.79305006  0.12866917
   0.31553317  0.79107754  0.13311921
   0.06560259  0.95773998  0.13334282
   0.56848637  0.73104717  0.23368211
   0.65009457  0.57041375  0.21863434
   0.48989274  0.57212643  0.21402462
slab_Cel1-OPT                           
           1
    14.332561    0.000000    0.000000
     0.000000   12.414095    0.000000
     0.000000    0.000000   15.000000
   C    N    Au   Cu
    24    32     1     2
Direct configuration=     6
   0.06539059  0.40396400  0.13334876
   0.98085524  0.23475742  0.13335179
   0.22507243  0.39754067  0.13336062
   0.81813305  0.57589813  0.13236785
   0.14999269  0.23469599  0.13334515
   0.90584457  0.39750025  0.13333800
   0.56558926  0.39974677  0.13235810
   0.48016728  0.23473356  0.13326862
   0.72789137  0.39693794  0.13261401
   0.31358040  0.57596668  0.13270940
   0.65072224  0.23461014  0.13328484
   0.40304952  0.39689288  0.13277648
   0.81526526  0.90459375  0.13326431
   0.73619700  0.73787360  0.13067955
   0.97597890  0.89792617  0.13324296
   0.06541262  0.07737757  0.13335187
   0.90060178  0.73446673  0.13336416
   0.65613387  0.90201749  0.13164870
   0.31591235  0.90441104  0.13328267
   0.23068430  0.73445454  0.13331068
   0.47544723  0.90112006  0.13201860
   0.56536484  0.07756841  0.13323232
   0.39597543  0.73725178  0.13144181
   0.15526851  0.89801831  0.13326342
   0.98390307  0.45562109  0.13332703
   0.90133099  0.29047879  0.13331681
   0.14724599  0.45559323  0.13332328
   0.14791634  0.12734951  0.13330472
   0.98304374  0.12712214  0.13330534
   0.22958040  0.29046708  0.13331526
   0.06556452  0.29109488  0.13335161
   0.81626701  0.45719116  0.13294107
   0.48337680  0.45297705  0.13274939
   0.40123409  0.28986810  0.13327052
   0.64788577  0.45336649  0.13283456
   0.64792242  0.12739779  0.13346426
   0.48302590  0.12714007  0.13348460
   0.72963098  0.28954157  0.13329521
   0.56558633  0.29024624  0.13248485
   0.31497010  0.45740415  0.13302576
   0.73580870  0.95775800  0.13405385
   0.65626658  0.79542249  0.12325037
   0.89721708  0.95554319  0.13328453
   0.89882406  0.62731592  0.13349680
   0.73658067  0.62806979  0.12965721
   0.97963319  0.79048990  0.13340762
   0.81805380  0.79182984  0.13330604
   0.56543625  0.95947899  0.13255611
   0.23408251  0.95563139  0.13332684
   0.15147483  0.79054152  0.13344205
   0.39604347  0.95695608  0.13369566
   0.39524911  0.62797807  0.13171170
   0.23267996  0.62712072  0.13337384
   0.47637990  0.79433716  0.12751623
   0.31421001  0.79161837  0.13305145
   0.06557117  0.95780654  0.13335134
   0.56801996  0.73170699  0.23872802
   0.64984786  0.56880856  0.22033021
   0.48950930  0.57059630  0.21532121
slab_Cel1-OPT                           
           1
    14.311152    0.000000    0.000000
     0.000000   12.387186    0.000000
     0.000000    0.000000   15.000000
   C    N    Au   Cu
    24    32     1     2
Direct configuration=     7
   0.06546113  0.40385009  0.13336184
   0.98107764  0.23459893  0.13335691
   0.22494403  0.39739961  0.13334640
   0.81879020  0.57578348  0.13198583
   0.14984417  0.23461326  0.13334897
   0.90599407  0.39734984  0.13331503
   0.56561794  0.39939631  0.13200740
   0.48018150  0.23396790  0.13320619
   0.72828146  0.39634041  0.13235461
   0.31291962  0.57573479  0.13248266
   0.65068768  0.23383050  0.13322185
   0.40263497  0.39640602  0.13254864
   0.81634766  0.90513717  0.13331233
   0.73614189  0.73823293  0.12919311
   0.97583742  0.89798814  0.13322344
   0.06543631  0.07732783  0.13335232
   0.90150852  0.73467947  0.13344656
   0.65667531  0.90269876  0.13066049
   0.31512985  0.90486127  0.13328098
   0.23001817  0.73460435  0.13333192
   0.47500996  0.90187745  0.13134167
   0.56533941  0.07805193  0.13319803
   0.39600193  0.73759847  0.13046459
   0.15535343  0.89806107  0.13325545
   0.98414802  0.45551350  0.13332930
   0.90154749  0.29030931  0.13331620
   0.14690818  0.45550830  0.13332663
   0.14794963  0.12755560  0.13329757
   0.98300903  0.12744842  0.13329968
   0.22941820  0.29032307  0.13331439
   0.06550535  0.29118950  0.13336587
   0.81685887  0.45689208  0.13274781
   0.48376831  0.45222536  0.13280950
   0.40087696  0.28957827  0.13322948
   0.64761454  0.45267083  0.13294151
   0.64805272  0.12769804  0.13353584
   0.48286086  0.12761656  0.13356255
   0.73012076  0.28943631  0.13324128
   0.56557770  0.28967961  0.13199373
   0.31449500  0.45710826  0.13286007
   0.73600537  0.95902302  0.13453257
   0.65569150  0.79440566  0.12199454
   0.89734414  0.95554324  0.13323073
   0.89966413  0.62722639  0.13353567
   0.73643547  0.62898238  0.12912577
   0.97980889  0.79040623  0.13342567
   0.81872883  0.79241760  0.13339268
   0.56557659  0.96005451  0.13227327
   0.23405196  0.95557783  0.13331546
   0.15150484  0.79042733  0.13348130
   0.39580141  0.95790932  0.13394024
   0.39522945  0.62894700  0.13146676
   0.23204924  0.62718565  0.13335703
   0.47647756  0.79367273  0.12650094
   0.31348597  0.79208786  0.13292575
   0.06557348  0.95782320  0.13335004
   0.56786365  0.73314009  0.24448338
   0.64985836  0.56728377  0.22206077
   0.48880687  0.56893624  0.21671878
slab_Cel1-OPT                           
           1
    14.287767    0.000000    0.000000
     0.000000   12.357793    0.000000
     0.000000    0.000000   15.000000
   C    N    Au   Cu
    24    32     1     2
Direct configuration=     8
   0.06553830  0.40372539  0.13337614
   0.98132093  0.23442542  0.13336250
   0.22480358  0.39724520  0.13333086
   0.81950910  0.57565797  0.13156855
   0.14968170  0.23452270  0.13335314
   0.90615761  0.39718519  0.13328994
   0.56564932  0.39901266  0.13162431
   0.48019706  0.23312973  0.13313801
   0.72870820  0.39568631  0.13207127
   0.31219676  0.57548094  0.13223498
   0.65064987  0.23297705  0.13315305
   0.40218147  0.39587307  0.13229977
   0.81753175  0.90573204  0.13336478
   0.73608161  0.73862628  0.12756945
   0.97568265  0.89805597  0.13320211
   0.06546223  0.07727338  0.13335280
   0.90250046  0.73491236  0.13353657
   0.65726763  0.90344454  0.12958106
   0.31427382  0.90535412  0.13327914
   0.22928945  0.73476834  0.13335513
   0.47453160  0.90270656  0.13060225
   0.56531159  0.07858123  0.13316057
   0.39603092  0.73797799  0.12939716
   0.15544633  0.89810787  0.13324675
   0.98441597  0.45539571  0.13333178
   0.90178434  0.29012379  0.13331553
   0.14653863  0.45541532  0.13333030
   0.14798604  0.12778121  0.13328977
   0.98297106  0.12780559  0.13329349
   0.22924075  0.29016543  0.13331344
   0.06544063  0.29129308  0.13338144
   0.81750633  0.45656469  0.13253672
   0.48419660  0.45140249  0.13287516
   0.40048628  0.28926100  0.13318465
   0.64731783  0.45190929  0.13305834
   0.64819526  0.12802672  0.13361403
   0.48268030  0.12813817  0.13364769
   0.73065655  0.28932108  0.13318236
   0.56556825  0.28905932  0.13145727
   0.31397526  0.45678434  0.13267910
   0.73622052  0.96040782  0.13505547
   0.65506239  0.79329256  0.12062277
   0.89748314  0.95554330  0.13317196
   0.90058311  0.62712839  0.13357814
   0.73627664  0.62998139  0.12854527
   0.98000110  0.79031464  0.13344539
   0.81946729  0.79306102  0.13348733
   0.56573010  0.96068451  0.13196431
   0.23401854  0.95551920  0.13330304
   0.15153766  0.79030233  0.13352417
   0.39553660  0.95895283  0.13420740
   0.39520794  0.63000767  0.13119921
   0.23135928  0.62725673  0.13333867
   0.47658441  0.79294539  0.12539193
   0.31269390  0.79260181  0.13278845
   0.06557601  0.95784143  0.13334863
   0.56769266  0.73470889  0.25077005
   0.64986984  0.56561460  0.22395109
   0.48803845  0.56711900  0.21824537
slab_Cel1-OPT                           
           1
    14.282527    0.000000    0.000000
     0.000000   12.347398    0.000000
     0.000000    0.000000   15.000000
   C    N    Au   Cu
    24    32     1     2
Direct configuration=     9
   0.06545601  0.40335500  0.13340145
   0.98157544  0.23476430  0.13337197
   0.22464268  0.39718244  0.13327929
   0.81988962  0.57617541  0.13114695
   0.14940517  0.23477328  0.13336169
   0.90638440  0.39709560  0.13322857
   0.56581107  0.39809726  0.13125498
   0.47977695  0.23347502  0.13297913
   0.72939179  0.39479880  0.13181554
   0.31174465  0.57587986  0.13198363
   0.65121499  0.23336037  0.13298704
   0.40165754  0.39490826  0.13204285
   0.81747590  0.90629615  0.13354516
   0.73553405  0.73894271  0.12585522
   0.97663732  0.89827146  0.13319925
   0.06550884  0.07700477  0.13334396
   0.90295018  0.73453064  0.13367352
   0.65761800  0.90333809  0.12837242
   0.31417343  0.90574902  0.13330426
   0.22895116  0.73456295  0.13337980
   0.47429936  0.90283349  0.12971789
   0.56536643  0.07823367  0.13311919
   0.39619869  0.73862528  0.12826416
   0.15477779  0.89827650  0.13326052
   0.98450977  0.45571958  0.13333504
   0.90171571  0.28962915  0.13331389
   0.14655875  0.45582464  0.13333846
   0.14820963  0.12727053  0.13328224
   0.98276854  0.12728822  0.13329289
   0.22939577  0.28979059  0.13331161
   0.06547835  0.29112853  0.13340261
   0.81758301  0.45676468  0.13223632
   0.48429652  0.45150159  0.13309737
   0.39995930  0.28865776  0.13309444
   0.64712682  0.45205907  0.13343913
   0.64859834  0.12722940  0.13373422
   0.48219712  0.12737083  0.13378505
   0.73113611  0.28861557  0.13304783
   0.56557726  0.28923367  0.13060274
   0.31389118  0.45686771  0.13242111
   0.73635209  0.96062710  0.13553239
   0.65471769  0.79315190  0.11964245
   0.89867741  0.95700385  0.13310758
   0.90154737  0.62684009  0.13354491
   0.73621447  0.63000748  0.12818373
   0.98153883  0.79074170  0.13349716
   0.81843150  0.79326717  0.13338454
   0.56583374  0.96090969  0.13148654
   0.23310150  0.95671367  0.13329850
   0.15033807  0.79057248  0.13359917
   0.39536834  0.95959267  0.13448037
   0.39527019  0.62980020  0.13107908
   0.23041700  0.62695224  0.13325858
   0.47694584  0.79281554  0.12450518
   0.31324343  0.79284473  0.13249372
   0.06557291  0.95787361  0.13331896
   0.56764641  0.73585023  0.25748113
   0.64992089  0.56483469  0.22559154
   0.48732228  0.56631217  0.21977108
slab_Cel1-OPT                           
           1
    14.280148    0.000000    0.000000
     0.000000   12.342678    0.000000
     0.000000    0.000000   15.000000
   C    N    Au   Cu
    24    32     1     2
Direct configuration=    10
   0.06541864  0.40318672  0.13341294
   0.98169103  0.23491827  0.13337627
   0.22456961  0.39715393  0.13325587
   0.82006242  0.57641050  0.13095555
   0.14927958  0.23488713  0.13336557
   0.90648739  0.39705489  0.13320071
   0.56588452  0.39768135  0.13108732
   0.47958617  0.23363190  0.13290700
   0.72970222  0.39439556  0.13169945
   0.31153933  0.57606110  0.13186953
   0.65147163  0.23353453  0.13291168
   0.40141961  0.39446990  0.13192622
   0.81745053  0.90655245  0.13362705
   0.73528539  0.73908648  0.12507702
   0.97707086  0.89836937  0.13319795
   0.06553000  0.07688272  0.13333994
   0.90315442  0.73435721  0.13373568
   0.65777711  0.90328973  0.12782374
   0.31412783  0.90592843  0.13331567
   0.22879754  0.73446964  0.13339100
   0.47419390  0.90289117  0.12931643
   0.56539133  0.07807576  0.13310041
   0.39627488  0.73891937  0.12774982
   0.15447419  0.89835311  0.13326677
   0.98455236  0.45586673  0.13333652
   0.90168454  0.28940442  0.13331315
   0.14656789  0.45601062  0.13334217
   0.14831117  0.12703850  0.13327882
   0.98267657  0.12705316  0.13329261
   0.22946616  0.28962028  0.13331078
   0.06549549  0.29105376  0.13341222
   0.81761783  0.45685555  0.13209996
   0.48434190  0.45154661  0.13319825
   0.39971998  0.28838369  0.13305349
   0.64704008  0.45212712  0.13361199
   0.64878139  0.12686714  0.13378878
   0.48197769  0.12702219  0.13384740
   0.73135389  0.28829502  0.13298676
   0.56558136  0.28931288  0.13021482
   0.31385300  0.45690559  0.13230400
   0.73641184  0.96072672  0.13574889
   0.65456115  0.79308799  0.11919742
   0.89921977  0.95766744  0.13307836
   0.90198526  0.62670911  0.13352983
   0.73618624  0.63001934  0.12801961
   0.98223716  0.79093573  0.13352066
   0.81796112  0.79336083  0.13333789
   0.56588081  0.96101200  0.13126965
   0.23268505  0.95725637  0.13329644
   0.14979330  0.79069522  0.13363322
   0.39529192  0.95988338  0.13460429
   0.39529846  0.62970595  0.13102455
   0.22998909  0.62681390  0.13322222
   0.47710997  0.79275655  0.12410263
   0.31349298  0.79295510  0.13235992
   0.06557150  0.95788823  0.13330549
   0.56762541  0.73636879  0.26052768
   0.64994407  0.56448034  0.22633624
   0.48699705  0.56594560  0.22046370
slab_Cel1-OPT                           
           1
    14.253795    0.000000    0.000000
     0.000000   12.325510    0.000000
     0.000000    0.000000   15.000000
   C    N    Au   Cu
    24    32     1     2
Direct configuration=    11
   0.06554998  0.40347443  0.13344801
   0.98165245  0.23415738  0.13339135
   0.22467181  0.39727761  0.13316676
   0.81967628  0.57708076  0.13061741
   0.14945207  0.23420897  0.13338036
   0.90642978  0.39712712  0.13309972
   0.56582162  0.39814460  0.13091857
   0.47927415  0.23287539  0.13263848
   0.72984174  0.39492783  0.13153904
   0.31182539  0.57661747  0.13165937
   0.65185790  0.23271124  0.13263066
   0.40146993  0.39482707  0.13172411
   0.81796664  0.90737400  0.13386905
   0.73439261  0.73881721  0.12382605
   0.97827247  0.89912478  0.13321740
   0.06550436  0.07660069  0.13332088
   0.90369405  0.73494840  0.13384646
   0.65749078  0.90244422  0.12687634
   0.31371610  0.90678920  0.13334627
   0.22822069  0.73483495  0.13337825
   0.47450940  0.90233018  0.12850900
   0.56546393  0.07737829  0.13304846
   0.39696298  0.73867039  0.12687582
   0.15353468  0.89895278  0.13330401
   0.98456754  0.45599955  0.13333725
   0.90151155  0.28936481  0.13330528
   0.14652824  0.45615528  0.13335224
   0.14846731  0.12696432  0.13327128
   0.98263452  0.12695005  0.13329630
   0.22954782  0.28945642  0.13330321
   0.06555172  0.29101118  0.13343527
   0.81749083  0.45704275  0.13173737
   0.48372340  0.45148389  0.13360377
   0.39910152  0.28750406  0.13291154
   0.64778364  0.45214966  0.13428645
   0.64915999  0.12683639  0.13393518
   0.48163100  0.12681274  0.13402972
   0.73195674  0.28737094  0.13277236
   0.56566602  0.28901159  0.12898965
   0.31387102  0.45698756  0.13199633
   0.73635809  0.95995137  0.13600820
   0.65424393  0.79415213  0.11831606
   0.89947525  0.95854518  0.13307864
   0.90258417  0.62674117  0.13337983
   0.73648318  0.62912379  0.12776594
   0.98273568  0.79049714  0.13365286
   0.81752363  0.79333377  0.13294244
   0.56585314  0.96033388  0.13057683
   0.23233173  0.95811706  0.13333470
   0.14925514  0.79044766  0.13375949
   0.39522199  0.95972707  0.13477220
   0.39506042  0.62902133  0.13097384
   0.22923918  0.62675921  0.13305680
   0.47756386  0.79354761  0.12334918
   0.31373242  0.79310597  0.13187287
   0.06575667  0.95808758  0.13323562
   0.56762259  0.73643752  0.26725095
   0.64982447  0.56490134  0.22751150
   0.48659343  0.56656616  0.22184698
slab_Cel1-OPT                           
           1
    14.246464    0.000000    0.000000
     0.000000   12.320734    0.000000
     0.000000    0.000000   15.000000
   C    N    Au   Cu
    24    32     1     2
Direct configuration=    12
   0.06558659  0.40355458  0.13345777
   0.98164170  0.23394541  0.13339554
   0.22470029  0.39731207  0.13314197
   0.81956866  0.57726748  0.13052335
   0.14950015  0.23402004  0.13338448
   0.90641372  0.39714724  0.13307162
   0.56580409  0.39827366  0.13087162
   0.47918718  0.23266464  0.13256378
   0.72988062  0.39507612  0.13149441
   0.31190512  0.57677247  0.13160091
   0.65196555  0.23248188  0.13255248
   0.40148396  0.39492657  0.13166789
   0.81811049  0.90760288  0.13393637
   0.73414378  0.73874220  0.12347803
   0.97860737  0.89933522  0.13322281
   0.06549721  0.07652213  0.13331558
   0.90384446  0.73511310  0.13387728
   0.65741098  0.90220867  0.12661278
   0.31360135  0.90702900  0.13335478
   0.22805992  0.73493671  0.13337470
   0.47459733  0.90217390  0.12828437
   0.56548416  0.07718398  0.13303401
   0.39715476  0.73860102  0.12663268
   0.15327282  0.89911983  0.13331437
   0.98457177  0.45603655  0.13333745
   0.90146333  0.28935378  0.13330309
   0.14651719  0.45619558  0.13335505
   0.14851083  0.12694365  0.13326919
   0.98262280  0.12692133  0.13329733
   0.22957057  0.28941076  0.13330111
   0.06556739  0.29099932  0.13344168
   0.81745543  0.45709490  0.13163649
   0.48355102  0.45146641  0.13371659
   0.39892914  0.28725901  0.13287206
   0.64799088  0.45215594  0.13447408
   0.64926551  0.12682782  0.13397590
   0.48153438  0.12675438  0.13408044
   0.73212476  0.28711350  0.13271272
   0.56568962  0.28892766  0.12864881
   0.31387604  0.45701039  0.13191074
   0.73634311  0.95973537  0.13608033
   0.65415552  0.79444858  0.11807087
   0.89954646  0.95878971  0.13307871
   0.90275110  0.62675010  0.13333811
   0.73656594  0.62887430  0.12769537
   0.98287463  0.79037496  0.13368963
   0.81740170  0.79332623  0.13283243
   0.56584543  0.96014497  0.13038409
   0.23223326  0.95835683  0.13334534
   0.14910516  0.79037869  0.13379462
   0.39520250  0.95968352  0.13481891
   0.39499407  0.62883061  0.13095974
   0.22903018  0.62674397  0.13301079
   0.47769036  0.79376799  0.12313958
   0.31379915  0.79314800  0.13173738
   0.06580828  0.95814312  0.13321619
   0.56762181  0.73645667  0.26912135
   0.64979113  0.56501863  0.22783845
   0.48648094  0.56673904  0.22223181
slab_Cel1-OPT                           
           1
    14.213355    0.000000    0.000000
     0.000000   12.303950    0.000000
     0.000000    0.000000   15.000000
   C    N    Au   Cu