  58  58   0   0
  0.4559061E+02  0.1426590E-08  0.1235700E-08  0.1500000E-08  0.1000000E-15
  1.000000000000000E-004
  CAR 
 slab_Cel1-OPT                           
      4.35286744    -27.99886826  301     -2.45224437      1.00000000
    -27.999  0.0000E+00  0.0000E+00
    -27.891  0.0000E+00  0.0000E+00
    -27.783  0.0000E+00  0.0000E+00
    -27.675  0.0000E+00  0.0000E+00
    -27.568  0.0000E+00  0.0000E+00
    -27.460  0.0000E+00  0.0000E+00
    -27.352  0.0000E+00  0.0000E+00
    -27.244  0.0000E+00  0.0000E+00
    -27.136  0.0000E+00  0.0000E+00
    -27.028  0.4791E-14  0.5167E-15
    -26.920  0.1030E-09  0.1111E-10
    -26.813  0.2407E-06  0.2597E-07
    -26.705  0.6399E-04  0.6926E-05
    -26.597  0.2091E-02  0.2324E-03
    -26.489  0.9633E-02  0.1271E-02
    -26.381  0.1119E-01  0.2477E-02
    -26.273  0.1987E-01  0.4620E-02
    -26.166  0.2225E-01  0.7019E-02
    -26.058  0.8380E-02  0.7922E-02
    -25.950  0.7098E-03  0.7999E-02
    -25.842  0.9139E-05  0.8000E-02
    -25.734  0.1435E-07  0.8000E-02
    -25.626  0.1068E-07  0.8000E-02
    -25.519  0.6872E-05  0.8001E-02
    -25.411  0.5508E-03  0.8060E-02
    -25.303  0.6464E-02  0.8757E-02
    -25.195  0.1564E-01  0.1044E-01
    -25.087  0.1471E-01  0.1203E-01
    -24.979  0.1081E-01  0.1320E-01
    -24.872  0.8963E-02  0.1416E-01
    -24.764  0.8974E-02  0.1513E-01
    -24.656  0.3213E-02  0.1548E-01
    -24.548  0.2087E-03  0.1550E-01
    -24.440  0.1156E-03  0.1551E-01
    -24.332  0.1471E-02  0.1567E-01
    -24.224  0.4972E-02  0.1621E-01
    -24.117  0.1836E-01  0.1819E-01
    -24.009  0.3014E-01  0.2144E-01
    -23.901  0.2264E-01  0.2388E-01
    -23.793  0.5514E-02  0.2447E-01
    -23.685  0.2507E-03  0.2450E-01
    -23.577  0.3326E-03  0.2454E-01
    -23.470  0.3966E-02  0.2496E-01
    -23.362  0.8505E-02  0.2588E-01
    -23.254  0.6734E-02  0.2661E-01
    -23.146  0.9646E-02  0.2765E-01
    -23.038  0.1292E-01  0.2904E-01
    -22.930  0.1333E-01  0.3048E-01
    -22.823  0.9417E-02  0.3149E-01
    -22.715  0.4092E-02  0.3194E-01
    -22.607  0.5876E-03  0.3200E-01
    -22.499  0.1472E-04  0.3200E-01
    -22.391  0.3387E-04  0.3200E-01
    -22.283  0.1872E-02  0.3221E-01
    -22.176  0.1644E-01  0.3398E-01
    -22.068  0.3501E-01  0.3775E-01
    -21.960  0.3412E-01  0.4143E-01
    -21.852  0.3238E-01  0.4493E-01
    -21.744  0.2297E-01  0.4740E-01
    -21.636  0.5301E-02  0.4797E-01
    -21.529  0.2408E-03  0.4800E-01
    -21.421  0.2098E-03  0.4802E-01
    -21.313  0.4128E-02  0.4847E-01
    -21.205  0.1791E-01  0.5040E-01
    -21.097  0.2542E-01  0.5314E-01
    -20.989  0.1863E-01  0.5515E-01
    -20.881  0.7109E-02  0.5592E-01
    -20.774  0.3094E-02  0.5625E-01
    -20.666  0.1055E-01  0.5739E-01
    -20.558  0.1664E-01  0.5918E-01
    -20.450  0.2361E-01  0.6173E-01
    -20.342  0.1635E-01  0.6349E-01
    -20.234  0.4408E-02  0.6397E-01
    -20.127  0.2956E-03  0.6400E-01
    -20.019  0.3270E-05  0.6400E-01
    -19.911  0.4664E-08  0.6400E-01
    -19.803  0.7503E-12  0.6400E-01
    -19.695  0.1235E-16  0.6400E-01
    -19.587  0.0000E+00  0.6400E-01
    -19.480  0.0000E+00  0.6400E-01
    -19.372  0.0000E+00  0.6400E-01
    -19.264  0.0000E+00  0.6400E-01
    -19.156  0.0000E+00  0.6400E-01
    -19.048  0.0000E+00  0.6400E-01
    -18.940  0.0000E+00  0.6400E-01
    -18.833  0.0000E+00  0.6400E-01
    -18.725  0.0000E+00  0.6400E-01
    -18.617  0.0000E+00  0.6400E-01
    -18.509  0.0000E+00  0.6400E-01
    -18.401  0.0000E+00  0.6400E-01
    -18.293  0.0000E+00  0.6400E-01
    -18.186  0.2988E-15  0.6400E-01
    -18.078  0.9946E-11  0.6400E-01
    -17.970  0.3601E-07  0.6400E-01
    -17.862  0.1531E-04  0.6400E-01
    -17.754  0.8581E-03  0.6409E-01
    -17.646  0.7519E-02  0.6491E-01
    -17.538  0.1471E-01  0.6649E-01
    -17.431  0.1616E-01  0.6823E-01
    -17.323  0.1933E-01  0.7032E-01
    -17.215  0.2045E-01  0.7252E-01
    -17.107  0.2028E-01  0.7471E-01
    -16.999  0.1810E-01  0.7666E-01
    -16.891  0.1420E-01  0.7819E-01
    -16.784  0.6623E-02  0.7891E-01
    -16.676  0.2364E-02  0.7916E-01
    -16.568  0.4937E-02  0.7970E-01
    -16.460  0.2606E-02  0.7998E-01
    -16.352  0.2094E-03  0.8000E-01
    -16.244  0.2243E-05  0.8000E-01
    -16.137  0.1432E-06  0.8000E-01
    -16.029  0.4751E-04  0.8001E-01
    -15.921  0.2154E-02  0.8024E-01
    -15.813  0.1639E-01  0.8200E-01
    -15.705  0.2931E-01  0.8517E-01
    -15.597  0.1781E-01  0.8709E-01
    -15.490  0.4173E-02  0.8754E-01
    -15.382  0.2542E-02  0.8781E-01
    -15.274  0.2373E-02  0.8807E-01
    -15.166  0.3959E-02  0.8849E-01
    -15.058  0.3874E-02  0.8891E-01
    -14.950  0.9063E-03  0.8901E-01
    -14.842  0.1699E-02  0.8919E-01
    -14.735  0.5306E-02  0.8976E-01
    -14.627  0.6452E-02  0.9046E-01
    -14.519  0.6388E-02  0.9115E-01
    -14.411  0.1306E-01  0.9256E-01
    -14.303  0.2028E-01  0.9475E-01
    -14.195  0.2102E-01  0.9701E-01
    -14.088  0.2599E-01  0.9981E-01
    -13.980  0.2300E-01  0.1023E+00
    -13.872  0.2420E-01  0.1049E+00
    -13.764  0.3192E-01  0.1083E+00
    -13.656  0.2729E-01  0.1113E+00
    -13.548  0.1600E-01  0.1130E+00
    -13.441  0.1065E-01  0.1142E+00
    -13.333  0.4110E-02  0.1146E+00
    -13.225  0.6705E-02  0.1153E+00
    -13.117  0.8885E-02  0.1163E+00
    -13.009  0.5944E-02  0.1169E+00
    -12.901  0.8536E-02  0.1178E+00
    -12.794  0.5412E-02  0.1184E+00
    -12.686  0.6267E-03  0.1185E+00
    -12.578  0.2449E-03  0.1185E+00
    -12.470  0.2431E-02  0.1188E+00
    -12.362  0.7782E-02  0.1196E+00
    -12.254  0.2062E-01  0.1219E+00
    -12.147  0.3275E-01  0.1254E+00
    -12.039  0.2379E-01  0.1279E+00
    -11.931  0.1164E-01  0.1292E+00
    -11.823  0.1066E-01  0.1304E+00
    -11.715  0.1371E-01  0.1318E+00
    -11.607  0.1901E-01  0.1339E+00
    -11.499  0.2223E-01  0.1363E+00
    -11.392  0.1514E-01  0.1379E+00
    -11.284  0.1284E-01  0.1393E+00
    -11.176  0.6528E-02  0.1400E+00
    -11.068  0.7181E-02  0.1408E+00
    -10.960  0.9977E-02  0.1418E+00
    -10.852  0.1102E-01  0.1430E+00
    -10.745  0.1070E-01  0.1442E+00
    -10.637  0.1647E-01  0.1460E+00
    -10.529  0.1876E-01  0.1480E+00
    -10.421  0.1379E-01  0.1495E+00
    -10.313  0.1118E-01  0.1507E+00
    -10.205  0.6816E-02  0.1514E+00
    -10.098  0.4285E-02  0.1519E+00
     -9.990  0.1060E-01  0.1530E+00
     -9.882  0.1823E-01  0.1550E+00
     -9.774  0.2394E-01  0.1576E+00
     -9.666  0.1538E-01  0.1592E+00
     -9.558  0.6437E-02  0.1599E+00
     -9.451  0.1402E-01  0.1614E+00
     -9.343  0.2421E-01  0.1640E+00
     -9.235  0.2487E-01  0.1667E+00
     -9.127  0.1069E-01  0.1679E+00
     -9.019  0.1089E-02  0.1680E+00
     -8.911  0.2296E-04  0.1680E+00
     -8.804  0.2503E-03  0.1680E+00
     -8.696  0.2277E-02  0.1683E+00
     -8.588  0.7780E-02  0.1691E+00
     -8.480  0.1708E-01  0.1710E+00
     -8.372  0.1479E-01  0.1725E+00
     -8.264  0.1358E-01  0.1740E+00
     -8.156  0.1858E-01  0.1760E+00
     -8.049  0.1455E-01  0.1776E+00
     -7.941  0.3761E-02  0.1780E+00
     -7.833  0.3607E-02  0.1784E+00
     -7.725  0.1931E-01  0.1805E+00
     -7.617  0.3571E-01  0.1843E+00
     -7.509  0.4327E-01  0.1890E+00
     -7.402  0.3319E-01  0.1926E+00
     -7.294  0.3108E-01  0.1959E+00
     -7.186  0.2947E-01  0.1991E+00
     -7.078  0.1933E-01  0.2012E+00
     -6.970  0.1091E-01  0.2024E+00
     -6.862  0.1840E-01  0.2043E+00
     -6.755  0.2809E-01  0.2074E+00
     -6.647  0.2321E-01  0.2099E+00
     -6.539  0.1975E-01  0.2120E+00
     -6.431  0.1737E-01  0.2139E+00
     -6.323  0.1232E-01  0.2152E+00
     -6.215  0.1171E-01  0.2165E+00
     -6.108  0.1159E-01  0.2177E+00
     -6.000  0.2581E-02  0.2180E+00
     -5.892  0.7801E-03  0.2181E+00
     -5.784  0.8055E-02  0.2189E+00
     -5.676  0.2630E-01  0.2218E+00
     -5.568  0.4246E-01  0.2264E+00
     -5.460  0.4444E-01  0.2312E+00
     -5.353  0.4369E-01  0.2359E+00
     -5.245  0.4455E-01  0.2407E+00
     -5.137  0.3709E-01  0.2447E+00
     -5.029  0.3575E-01  0.2485E+00
     -4.921  0.3780E-01  0.2526E+00
     -4.813  0.3092E-01  0.2559E+00
     -4.706  0.2082E-01  0.2582E+00
     -4.598  0.2721E-01  0.2611E+00
     -4.490  0.3850E-01  0.2653E+00
     -4.382  0.3720E-01  0.2693E+00
     -4.274  0.3237E-01  0.2728E+00
     -4.166  0.1080E-01  0.2739E+00
     -4.059  0.3321E-02  0.2743E+00
     -3.951  0.9913E-02  0.2754E+00
     -3.843  0.5527E-02  0.2760E+00
     -3.735  0.4302E-03  0.2760E+00
     -3.627  0.4120E-05  0.2760E+00
     -3.519  0.4403E-08  0.2760E+00
     -3.412  0.4976E-12  0.2760E+00
     -3.304  0.6177E-17  0.2760E+00
     -3.196  0.0000E+00  0.2760E+00
     -3.088  0.2520E-13  0.2760E+00
     -2.980  0.4237E-09  0.2760E+00
     -2.872  0.7459E-06  0.2760E+00
     -2.765  0.1437E-03  0.2760E+00
     -2.657  0.3297E-02  0.2764E+00
     -2.549  0.1021E-01  0.2775E+00
     -2.441  0.5194E-02  0.2780E+00
     -2.333  0.4886E-02  0.2786E+00
     -2.225  0.9150E-02  0.2795E+00
     -2.117  0.1146E-01  0.2808E+00
     -2.010  0.1227E-01  0.2821E+00
     -1.902  0.1208E-01  0.2834E+00
     -1.794  0.8275E-02  0.2843E+00
     -1.686  0.5197E-02  0.2849E+00
     -1.578  0.1136E-01  0.2861E+00
     -1.470  0.1567E-01  0.2878E+00
     -1.363  0.1679E-01  0.2896E+00
     -1.255  0.1896E-01  0.2916E+00
     -1.147  0.1369E-01  0.2931E+00
     -1.039  0.6905E-02  0.2939E+00
     -0.931  0.6342E-02  0.2945E+00
     -0.823  0.1246E-01  0.2959E+00
     -0.716  0.1833E-01  0.2979E+00
     -0.608  0.2243E-01  0.3003E+00
     -0.500  0.1307E-01  0.3017E+00
     -0.392  0.2786E-02  0.3020E+00
     -0.284  0.1485E-03  0.3020E+00
     -0.176  0.5615E-05  0.3020E+00
     -0.069  0.3963E-03  0.3020E+00
      0.039  0.4936E-02  0.3026E+00
      0.147  0.9781E-02  0.3036E+00
      0.255  0.3259E-02  0.3040E+00
      0.363  0.1676E-03  0.3040E+00
      0.471  0.1139E-05  0.3040E+00
      0.578  0.3185E-06  0.3040E+00
      0.686  0.6900E-04  0.3040E+00
      0.794  0.2029E-02  0.3042E+00
      0.902  0.1075E-01  0.3054E+00
      1.010  0.1815E-01  0.3073E+00
      1.118  0.2175E-01  0.3097E+00
      1.226  0.2183E-01  0.3120E+00
      1.333  0.2225E-01  0.3144E+00
      1.441  0.2137E-01  0.3167E+00
      1.549  0.2045E-01  0.3190E+00
      1.657  0.2140E-01  0.3213E+00
      1.765  0.1796E-01  0.3232E+00
      1.873  0.1963E-01  0.3253E+00
      1.980  0.2007E-01  0.3275E+00
      2.088  0.2057E-01  0.3297E+00
      2.196  0.1415E-01  0.3312E+00
      2.304  0.1196E-01  0.3325E+00
      2.412  0.1594E-01  0.3342E+00
      2.520  0.1844E-01  0.3362E+00
      2.627  0.2067E-01  0.3384E+00
      2.735  0.2285E-01  0.3409E+00
      2.843  0.1848E-01  0.3429E+00
      2.951  0.8728E-02  0.3438E+00
      3.059  0.1369E-02  0.3440E+00
      3.167  0.4015E-04  0.3440E+00
      3.274  0.1607E-06  0.3440E+00
      3.382  0.7497E-10  0.3440E+00
      3.490  0.3776E-14  0.3440E+00
      3.598  0.0000E+00  0.3440E+00
      3.706  0.0000E+00  0.3440E+00
      3.814  0.0000E+00  0.3440E+00
      3.922  0.0000E+00  0.3440E+00
      4.029  0.0000E+00  0.3440E+00
      4.137  0.0000E+00  0.3440E+00
      4.245  0.0000E+00  0.3440E+00
      4.353  0.0000E+00  0.3440E+00
