 running on   48 total cores
 distrk:  each k-point on   48 cores,    1 groups
 distr:  one band on   12 cores,    4 groups
 vasp.6.3.2 27Jun22 (build May 04 2024 18:40:40) complex                        
  
 POSCAR found type information on POSCAR C N Ag
 POSCAR found :  3 types and      58 ions
 Reading from existing POTCAR
 scaLAPACK will be used
 Reading from existing POTCAR
 LDA part: xc-table for Pade appr. of Perdew
 POSCAR found type information on POSCAR C N Ag
 POSCAR found :  3 types and      58 ions
 POSCAR, INCAR and KPOINTS ok, starting setup
 FFT: planning ... GRIDC
 FFT: planning ... GRID_SOFT
 FFT: planning ... GRID
 WAVECAR not read
 entering main loop
       N       E                     dE             d eps       ncg     rms          rms(c)
DAV:   1     0.253892276326E+04    0.25389E+04   -0.98258E+04  1592   0.101E+03
DAV:   2     0.299537798609E+02   -0.25090E+04   -0.23873E+04  1984   0.281E+02
DAV:   3    -0.474769886974E+03   -0.50472E+03   -0.50005E+03  1688   0.136E+02
DAV:   4    -0.492417671559E+03   -0.17648E+02   -0.17163E+02  1592   0.294E+01
DAV:   5    -0.493109374381E+03   -0.69170E+00   -0.68568E+00  1920   0.469E+00    0.733E+01
DAV:   6    -0.456144332491E+03    0.36965E+02   -0.11285E+02  1616   0.436E+01    0.773E+01
DAV:   7    -0.453560272016E+03    0.25841E+01   -0.34123E+01  1568   0.197E+01    0.527E+01
DAV:   8    -0.450825761309E+03    0.27345E+01   -0.12280E+01  1648   0.864E+00    0.102E+01
DAV:   9    -0.449913979324E+03    0.91178E+00   -0.78255E+00  1632   0.717E+00    0.194E+01
DAV:  10    -0.449801200568E+03    0.11278E+00   -0.46613E+00  1584   0.504E+00    0.157E+01
DAV:  11    -0.449697853880E+03    0.10335E+00   -0.50413E-01  1600   0.189E+00    0.450E+00
DAV:  12    -0.449697134578E+03    0.71930E-03   -0.29601E-01  1728   0.102E+00    0.793E+00
DAV:  13    -0.449664488891E+03    0.32646E-01   -0.20448E-01  1600   0.857E-01    0.261E+00
DAV:  14    -0.449661591642E+03    0.28972E-02   -0.31305E-02  1496   0.542E-01    0.383E-01
DAV:  15    -0.449662637618E+03   -0.10460E-02   -0.11484E-02  1648   0.234E-01    0.449E-01
DAV:  16    -0.449663998356E+03   -0.13607E-02   -0.10405E-02  1628   0.236E-01    0.186E-01
DAV:  17    -0.449668336178E+03   -0.43378E-02   -0.75258E-03  1520   0.200E-01    0.585E-01
DAV:  18    -0.449670946945E+03   -0.26108E-02   -0.33577E-03  1552   0.137E-01    0.287E-01
DAV:  19    -0.449673079592E+03   -0.21326E-02   -0.10762E-03  1496   0.768E-02    0.599E-01
DAV:  20    -0.449674346852E+03   -0.12673E-02   -0.23078E-03  1528   0.112E-01    0.150E-01
DAV:  21    -0.449675680946E+03   -0.13341E-02   -0.41721E-04  1632   0.423E-02    0.538E-02
DAV:  22    -0.449677513567E+03   -0.18326E-02   -0.17650E-04  1576   0.334E-02    0.544E-02
DAV:  23    -0.449679938742E+03   -0.24252E-02   -0.25744E-04  1544   0.343E-02    0.326E-02
DAV:  24    -0.449680925846E+03   -0.98710E-03   -0.18154E-04  1552   0.274E-02    0.609E-02
DAV:  25    -0.449681970831E+03   -0.10450E-02   -0.74901E-05  1328   0.145E-02    0.349E-02
DAV:  26    -0.449682518778E+03   -0.54795E-03   -0.33005E-05  1176   0.111E-02    0.231E-02
DAV:  27    -0.449682681796E+03   -0.16302E-03   -0.94065E-06  1008   0.644E-03    0.115E-02
DAV:  28    -0.449682777010E+03   -0.95214E-04   -0.95052E-06   932   0.545E-03    0.234E-03
DAV:  29    -0.449682792893E+03   -0.15883E-04   -0.29786E-06  1016   0.379E-03    0.107E-02
DAV:  30    -0.449682801082E+03   -0.81884E-05   -0.16340E-06   968   0.252E-03
   1 F= -.44968280E+03 E0= -.44960116E+03  d E =-.449683E+03
 curvature:   0.00 expect dE= 0.000E+00 dE for cont linesearch  0.000E+00
 trial: gam= 0.00000 g(F)=  0.213E+02 g(S)=  0.285E+01 ort = 0.000E+00 (trialstep = 0.100E+01)
 search vector abs. value=  0.242E+02
 bond charge predicted
       N       E                     dE             d eps       ncg     rms          rms(c)
DAV:   1    -0.454686616318E+03   -0.50038E+01   -0.10368E+03  1376   0.786E+01    0.206E+01
DAV:   2    -0.456284889434E+03   -0.15983E+01   -0.37459E+01  1564   0.224E+01    0.372E+01
DAV:   3    -0.456104306399E+03    0.18058E+00   -0.30975E+00  1632   0.503E+00    0.249E+01
DAV:   4    -0.457418691349E+03   -0.13144E+01   -0.86389E+00  1600   0.879E+00    0.339E+01
DAV:   5    -0.456559925870E+03    0.85877E+00   -0.21438E+00  1600   0.519E+00    0.264E+01
DAV:   6    -0.456065681965E+03    0.49424E+00   -0.39685E+00  1736   0.314E+00    0.233E+01
DAV:   7    -0.455822954099E+03    0.24273E+00   -0.45978E-01  1580   0.175E+00    0.175E+01
DAV:   8    -0.455738135061E+03    0.84819E-01   -0.95709E-02  1592   0.800E-01    0.141E+01
DAV:   9    -0.455677359693E+03    0.60775E-01   -0.50780E-02  1568   0.599E-01    0.108E+01
DAV:  10    -0.455639993617E+03    0.37366E-01   -0.36263E-02  1600   0.477E-01    0.826E+00
DAV:  11    -0.455608620725E+03    0.31373E-01   -0.37837E-02  1536   0.535E-01    0.532E+00
DAV:  12    -0.455589801086E+03    0.18820E-01   -0.30316E-02  1568   0.518E-01    0.295E+00
DAV:  13    -0.455583531751E+03    0.62693E-02   -0.27433E-02  1568   0.432E-01    0.517E-01
DAV:  14    -0.455584275421E+03   -0.74367E-03   -0.25027E-03  1680   0.146E-01    0.277E-01
DAV:  15    -0.455584517115E+03   -0.24169E-03   -0.27712E-04  1552   0.501E-02    0.395E-01
DAV:  16    -0.455584421609E+03    0.95506E-04   -0.51931E-04  1536   0.686E-02    0.574E-02
DAV:  17    -0.455584474988E+03   -0.53379E-04   -0.39811E-05  1312   0.194E-02    0.266E-02
DAV:  18    -0.455584517363E+03   -0.42375E-04   -0.87277E-06   968   0.920E-03    0.124E-02
DAV:  19    -0.455584533065E+03   -0.15702E-04   -0.68810E-06  1000   0.832E-03    0.870E-03
DAV:  20    -0.455584548988E+03   -0.15922E-04   -0.30417E-06   960   0.534E-03    0.307E-03
DAV:  21    -0.455584567218E+03   -0.18230E-04   -0.12261E-06   976   0.218E-03    0.245E-03
DAV:  22    -0.455584584991E+03   -0.17774E-04   -0.11884E-06   976   0.203E-03    0.458E-03
DAV:  23    -0.455584595877E+03   -0.10886E-04   -0.68277E-07   984   0.156E-03    0.200E-03
DAV:  24    -0.455584603702E+03   -0.78248E-05   -0.55031E-07   968   0.136E-03
   2 F= -.45558460E+03 E0= -.45552030E+03  d E =-.590180E+01
 trial-energy change:   -5.901803  1 .order   -8.877407  -24.156382    6.401568
 step:   0.6593(harm=  0.7905)  dis= 0.18975  next Energy=  -456.792927 (dE=-0.711E+01)
 bond charge predicted
       N       E                     dE             d eps       ncg     rms          rms(c)
DAV:   1    -0.456936241648E+03   -0.13516E+01   -0.12360E+02  1432   0.267E+01    0.160E+01
DAV:   2    -0.458696846537E+03   -0.17606E+01   -0.37836E+01  1576   0.182E+01    0.261E+01
DAV:   3    -0.457049485687E+03    0.16474E+01   -0.92464E+00  1568   0.112E+01    0.146E+01
DAV:   4    -0.456938260798E+03    0.11122E+00   -0.52334E-01  1604   0.193E+00    0.125E+01
DAV:   5    -0.456861337773E+03    0.76923E-01   -0.34753E-01  1644   0.163E+00    0.100E+01
DAV:   6    -0.456707160632E+03    0.15418E+00   -0.52593E-01  1616   0.286E+00    0.235E+00
DAV:   7    -0.456706990153E+03    0.17048E-03   -0.15288E-01  1552   0.970E-01    0.502E+00
DAV:   8    -0.456692786547E+03    0.14204E-01   -0.18508E-01  1592   0.876E-01    0.168E+00
DAV:   9    -0.456691121735E+03    0.16648E-02   -0.75203E-02  1556   0.602E-01    0.283E+00
DAV:  10    -0.456686907437E+03    0.42143E-02   -0.37803E-02  1560   0.351E-01    0.608E-01
DAV:  11    -0.456688082724E+03   -0.11753E-02   -0.19581E-02  1592   0.302E-01    0.191E+00
DAV:  12    -0.456686216570E+03    0.18662E-02   -0.12536E-02  1540   0.221E-01    0.252E-01
DAV:  13    -0.456686437688E+03   -0.22112E-03   -0.19866E-03  1600   0.908E-02    0.493E-01
DAV:  14    -0.456686312310E+03    0.12538E-03   -0.36308E-04  1440   0.452E-02    0.180E-01
DAV:  15    -0.456686415066E+03   -0.10276E-03   -0.17692E-04  1400   0.264E-02    0.420E-01
DAV:  16    -0.456686346139E+03    0.68927E-04   -0.13681E-04  1192   0.244E-02    0.191E-01
DAV:  17    -0.456686353933E+03   -0.77942E-05   -0.46526E-05  1088   0.187E-02
   3 F= -.45668635E+03 E0= -.45661619E+03  d E =-.700355E+01
 curvature:  -0.24 expect dE=-0.156E+01 dE for cont linesearch -0.841E-03
 trial: gam= 0.25673 g(F)=  0.603E+01 g(S)=  0.466E+00 ort = 0.291E+00 (trialstep = 0.932E+00)
 search vector abs. value=  0.823E+01
 bond charge predicted
       N       E                     dE             d eps       ncg     rms          rms(c)
DAV:   1    -0.460714868640E+03   -0.40285E+01   -0.29159E+02  1384   0.400E+01    0.992E+00
DAV:   2    -0.460649924561E+03    0.64944E-01   -0.51025E+00  1540   0.853E+00    0.137E+01
DAV:   3    -0.460740097159E+03   -0.90173E-01   -0.60707E-01  1640   0.201E+00    0.154E+01
DAV:   4    -0.461039700370E+03   -0.29960E+00   -0.11107E+00  1760   0.237E+00    0.196E+01
DAV:   5    -0.461062452453E+03   -0.22752E-01   -0.83952E+00  1576   0.655E+00    0.716E+00
DAV:   6    -0.460793750208E+03    0.26870E+00   -0.60112E-01  1512   0.317E+00    0.605E+00
DAV:   7    -0.460726637414E+03    0.67113E-01   -0.18756E-01  1560   0.136E+00    0.514E+00
DAV:   8    -0.460651455477E+03    0.75182E-01   -0.10162E-01  1584   0.113E+00    0.408E+00
DAV:   9    -0.460609107851E+03    0.42348E-01   -0.45520E-02  1592   0.538E-01    0.304E+00
DAV:  10    -0.460595156145E+03    0.13952E-01   -0.95039E-03  1672   0.301E-01    0.256E+00
DAV:  11    -0.460580719593E+03    0.14437E-01   -0.85506E-03  1600   0.286E-01    0.207E+00
DAV:  12    -0.460561540275E+03    0.19179E-01   -0.41808E-02  1544   0.598E-01    0.808E-01
DAV:  13    -0.460561655570E+03   -0.11530E-03   -0.10348E-02  1704   0.269E-01    0.345E-01
DAV:  14    -0.460561637327E+03    0.18242E-04   -0.39602E-03  1488   0.213E-01    0.110E-01
DAV:  15    -0.460561860697E+03   -0.22337E-03   -0.63738E-04  1584   0.697E-02    0.830E-02
DAV:  16    -0.460562172348E+03   -0.31165E-03   -0.32356E-04  1544   0.503E-02    0.118E-01
DAV:  17    -0.460562205565E+03   -0.33218E-04   -0.68532E-05  1496   0.275E-02    0.724E-02
DAV:  18    -0.460562293720E+03   -0.88155E-04   -0.33314E-05  1320   0.171E-02    0.631E-02
DAV:  19    -0.460562315013E+03   -0.21293E-04   -0.76434E-06  1040   0.111E-02    0.432E-02
DAV:  20    -0.460562394699E+03   -0.79686E-04   -0.55003E-05  1408   0.226E-02    0.254E-02
DAV:  21    -0.460562417725E+03   -0.23026E-04   -0.14903E-05  1120   0.153E-02    0.112E-02
DAV:  22    -0.460562437366E+03   -0.19641E-04   -0.34209E-06  1008   0.540E-03    0.445E-03
DAV:  23    -0.460562447432E+03   -0.10066E-04   -0.12981E-06   976   0.343E-03    0.542E-03
DAV:  24    -0.460562464768E+03   -0.17336E-04   -0.18503E-06  1000   0.431E-03    0.493E-03
DAV:  25    -0.460562471409E+03   -0.66410E-05   -0.13161E-06  1016   0.219E-03
   4 F= -.46056247E+03 E0= -.46050832E+03  d E =-.387612E+01
 trial-energy change:   -3.876117  1 .order   -3.943439   -6.119714   -1.767164
 step:   1.3700(harm=  1.3102)  dis= 0.13738  next Energy=  -460.970892 (dE=-0.428E+01)
 bond charge predicted
       N       E                     dE             d eps       ncg     rms          rms(c)
DAV:   1    -0.461017474687E+03   -0.45501E+00   -0.63404E+01  1384   0.187E+01    0.420E+00
DAV:   2    -0.461020062024E+03   -0.25873E-02   -0.94843E-01  1576   0.323E+00    0.415E+00
DAV:   3    -0.461015009364E+03    0.50527E-02   -0.99141E-02  1568   0.102E+00    0.260E+00
DAV:   4    -0.461011708648E+03    0.33007E-02   -0.89009E-02  1536   0.108E+00    0.132E+00
DAV:   5    -0.461005718696E+03    0.59900E-02   -0.81763E-02  1656   0.653E-01    0.522E-01
DAV:   6    -0.461004224508E+03    0.14942E-02   -0.17266E-02  1600   0.304E-01    0.198E-01
DAV:   7    -0.461004493341E+03   -0.26883E-03   -0.18145E-03  1672   0.115E-01    0.128E-01
DAV:   8    -0.461004581447E+03   -0.88105E-04   -0.43682E-04  1544   0.513E-02    0.747E-02
DAV:   9    -0.461004685897E+03   -0.10445E-03   -0.24314E-04  1560   0.396E-02    0.273E-02
DAV:  10    -0.461004781856E+03   -0.95959E-04   -0.85454E-05  1312   0.217E-02    0.865E-03
DAV:  11    -0.461004855510E+03   -0.73654E-04   -0.11872E-05  1048   0.973E-03    0.643E-03
DAV:  12    -0.461004949663E+03   -0.94153E-04   -0.10074E-05  1096   0.600E-03    0.406E-03
DAV:  13    -0.461005035663E+03   -0.86000E-04   -0.83715E-06  1096   0.480E-03    0.238E-03
DAV:  14    -0.461005069662E+03   -0.33999E-04   -0.28484E-06  1048   0.287E-03    0.278E-03
DAV:  15    -0.461005099680E+03   -0.30018E-04   -0.26922E-06  1016   0.247E-03    0.126E-03
DAV:  16    -0.461005117351E+03   -0.17670E-04   -0.19424E-06  1048   0.193E-03    0.781E-04
DAV:  17    -0.461005125105E+03   -0.77548E-05   -0.83616E-07   984   0.134E-03
   5 F= -.46100513E+03 E0= -.46095641E+03  d E =-.431877E+01
 curvature:  -0.80 expect dE=-0.130E+01 dE for cont linesearch -0.278E-02
 trial: gam= 0.22728 g(F)=  0.148E+01 g(S)=  0.142E+00 ort = 0.169E+00 (trialstep = 0.102E+01)
 search vector abs. value=  0.212E+01
 bond charge predicted
       N       E                     dE             d eps       ncg     rms          rms(c)
DAV:   1    -0.462232443927E+03   -0.12273E+01   -0.88744E+01  1376   0.237E+01    0.506E+00
DAV:   2    -0.462369323824E+03   -0.13688E+00   -0.16891E+00  1664   0.338E+00    0.370E+00
DAV:   3    -0.462366784933E+03    0.25389E-02   -0.24601E-01  1588   0.128E+00    0.152E+00
DAV:   4    -0.462368908196E+03   -0.21233E-02   -0.38084E-01  1744   0.131E+00    0.964E-01
DAV:   5    -0.462353876497E+03    0.15032E-01   -0.71747E-02  1712   0.687E-01    0.239E-01
DAV:   6    -0.462355718958E+03   -0.18425E-02   -0.10988E-02  1648   0.236E-01    0.176E-01
DAV:   7    -0.462355733193E+03   -0.14234E-04   -0.34754E-03  1600   0.124E-01    0.999E-02
DAV:   8    -0.462355830956E+03   -0.97763E-04   -0.51815E-04  1592   0.572E-02    0.535E-02
DAV:   9    -0.462355919670E+03   -0.88714E-04   -0.14692E-04  1568   0.308E-02    0.183E-02
DAV:  10    -0.462355958864E+03   -0.39194E-04   -0.17635E-05  1024   0.126E-02    0.804E-03
DAV:  11    -0.462355988926E+03   -0.30062E-04   -0.49564E-06   944   0.656E-03    0.445E-03
DAV:  12    -0.462356021924E+03   -0.32998E-04   -0.23252E-06   976   0.376E-03    0.226E-03
DAV:  13    -0.462356053494E+03   -0.31570E-04   -0.17857E-06  1000   0.274E-03    0.163E-03
DAV:  14    -0.462356075726E+03   -0.22232E-04   -0.11459E-06   968   0.209E-03    0.144E-03
DAV:  15    -0.462356095267E+03   -0.19541E-04   -0.12342E-06   968   0.180E-03    0.115E-03
DAV:  16    -0.462356105069E+03   -0.98017E-05   -0.69779E-07   968   0.136E-03
   6 F= -.46235611E+03 E0= -.46230860E+03  d E =-.135098E+01
 trial-energy change:   -1.350980  1 .order   -1.353284   -1.689359   -1.017210
 step:   2.5623(harm=  2.5623)  dis= 0.10697  next Energy=  -463.128117 (dE=-0.212E+01)
 bond charge predicted
       N       E                     dE             d eps       ncg     rms          rms(c)
DAV:   1    -0.462866495234E+03   -0.51040E+00   -0.20453E+02  1376   0.360E+01    0.644E+00
DAV:   2    -0.463176231149E+03   -0.30974E+00   -0.37954E+00  1640   0.510E+00    0.450E+00
DAV:   3    -0.463162658937E+03    0.13572E-01   -0.41332E-01  1616   0.169E+00    0.206E+00
DAV:   4    -0.463173704777E+03   -0.11046E-01   -0.65764E-01  1752   0.172E+00    0.136E+00
DAV:   5    -0.463145068846E+03    0.28636E-01   -0.12662E-01  1704   0.934E-01    0.342E-01
DAV:   6    -0.463147657056E+03   -0.25882E-02   -0.18547E-02  1632   0.323E-01    0.220E-01
DAV:   7    -0.463147980177E+03   -0.32312E-03   -0.50075E-03  1576   0.161E-01    0.148E-01
DAV:   8    -0.463148000049E+03   -0.19872E-04   -0.11268E-03  1632   0.833E-02    0.891E-02
DAV:   9    -0.463148171520E+03   -0.17147E-03   -0.34966E-04  1560   0.481E-02    0.294E-02
DAV:  10    -0.463148256728E+03   -0.85209E-04   -0.53209E-05  1376   0.202E-02    0.134E-02
DAV:  11    -0.463148312071E+03   -0.55343E-04   -0.11404E-05   984   0.993E-03    0.796E-03
DAV:  12    -0.463148378509E+03   -0.66438E-04   -0.60906E-06   984   0.596E-03    0.398E-03
DAV:  13    -0.463148441960E+03   -0.63451E-04   -0.35170E-06  1032   0.417E-03    0.262E-03
DAV:  14    -0.463148489289E+03   -0.47328E-04   -0.24702E-06   992   0.328E-03    0.215E-03
DAV:  15    -0.463148528969E+03   -0.39680E-04   -0.24844E-06  1016   0.259E-03    0.211E-03
DAV:  16    -0.463148550405E+03   -0.21436E-04   -0.16361E-06   992   0.218E-03    0.113E-03
DAV:  17    -0.463148560653E+03   -0.10248E-04   -0.83060E-07   984   0.149E-03    0.633E-04
DAV:  18    -0.463148566033E+03   -0.53799E-05   -0.38865E-07   960   0.983E-04
   7 F= -.46314857E+03 E0= -.46310089E+03  d E =-.214344E+01
 curvature:  -1.64 expect dE=-0.163E+01 dE for cont linesearch -0.114E-02
 trial: gam= 0.60495 g(F)=  0.991E+00 g(S)=  0.383E-02 ort = 0.383E-01 (trialstep = 0.133E+01)
 search vector abs. value=  0.182E+01
 bond charge predicted
       N       E                     dE             d eps       ncg     rms          rms(c)
DAV:   1    -0.463970423073E+03   -0.82186E+00   -0.13241E+02  1380   0.292E+01    0.345E+00
DAV:   2    -0.464147927056E+03   -0.17750E+00   -0.25738E+00  1664   0.430E+00    0.210E+00
DAV:   3    -0.464132803135E+03    0.15124E-01   -0.24468E-01  1648   0.132E+00    0.139E+00
DAV:   4    -0.464128857752E+03    0.39454E-02   -0.16739E-01  1640   0.944E-01    0.101E+00
DAV:   5    -0.464122035434E+03    0.68223E-02   -0.65926E-02  1656   0.565E-01    0.360E-01
DAV:   6    -0.464123370778E+03   -0.13353E-02   -0.81351E-03  1544   0.259E-01    0.140E-01
DAV:   7    -0.464123440467E+03   -0.69689E-04   -0.11978E-03  1600   0.958E-02    0.896E-02
DAV:   8    -0.464123506043E+03   -0.65576E-04   -0.41694E-04  1584   0.533E-02    0.496E-02
DAV:   9    -0.464123558080E+03   -0.52036E-04   -0.27036E-04  1584   0.371E-02    0.240E-02
DAV:  10    -0.464123604102E+03   -0.46022E-04   -0.59425E-05  1104   0.167E-02    0.946E-03
DAV:  11    -0.464123646630E+03   -0.42528E-04   -0.83860E-06  1016   0.717E-03    0.448E-03
DAV:  12    -0.464123683438E+03   -0.36807E-04   -0.28077E-06  1008   0.423E-03    0.199E-03
DAV:  13    -0.464123715299E+03   -0.31862E-04   -0.18701E-06  1008   0.269E-03    0.153E-03
DAV:  14    -0.464123742814E+03   -0.27514E-04   -0.14427E-06  1000   0.206E-03    0.119E-03
DAV:  15    -0.464123766128E+03   -0.23314E-04   -0.17623E-06  1016   0.195E-03    0.784E-04
DAV:  16    -0.464123777071E+03   -0.10943E-04   -0.98799E-07   976   0.142E-03    0.506E-04
DAV:  17    -0.464123781973E+03   -0.49022E-05   -0.48706E-07   968   0.986E-04
   8 F= -.46412378E+03 E0= -.46407892E+03  d E =-.975216E+00
 trial-energy change:   -0.975216  1 .order   -0.976007   -1.351428   -0.600586
 step:   2.3903(harm=  2.3903)  dis= 0.11260  next Energy=  -464.364773 (dE=-0.122E+01)
 bond charge predicted
       N       E                     dE             d eps       ncg     rms          rms(c)
DAV:   1    -0.464270951743E+03   -0.14717E+00   -0.84498E+01  1384   0.233E+01    0.270E+00
DAV:   2    -0.464378119542E+03   -0.10717E+00   -0.15819E+00  1656   0.341E+00    0.165E+00
DAV:   3    -0.464369576335E+03    0.85432E-02   -0.15658E-01  1656   0.107E+00    0.109E+00
DAV:   4    -0.464366736072E+03    0.28403E-02   -0.10412E-01  1640   0.757E-01    0.778E-01
DAV:   5    -0.464362425246E+03    0.43108E-02   -0.41174E-02  1640   0.445E-01    0.280E-01
DAV:   6    -0.464363378798E+03   -0.95355E-03   -0.48811E-03  1512   0.202E-01    0.111E-01
DAV:   7    -0.464363432183E+03   -0.53385E-04   -0.74825E-04  1600   0.743E-02    0.722E-02
DAV:   8    -0.464363470026E+03   -0.37843E-04   -0.27864E-04  1568   0.422E-02    0.419E-02
DAV:   9    -0.464363509985E+03   -0.39959E-04   -0.16647E-04  1560   0.288E-02    0.186E-02
DAV:  10    -0.464363542084E+03   -0.32099E-04   -0.33627E-05  1056   0.131E-02    0.743E-03
DAV:  11    -0.464363572644E+03   -0.30560E-04   -0.48955E-06  1008   0.542E-03    0.369E-03
DAV:  12    -0.464363601614E+03   -0.28970E-04   -0.18818E-06  1016   0.334E-03    0.157E-03
DAV:  13    -0.464363624065E+03   -0.22451E-04   -0.12986E-06  1016   0.220E-03    0.130E-03
DAV:  14    -0.464363642826E+03   -0.18762E-04   -0.92956E-07  1008   0.166E-03    0.980E-04
DAV:  15    -0.464363658684E+03   -0.15858E-04   -0.11578E-06  1008   0.158E-03    0.652E-04
DAV:  16    -0.464363665921E+03   -0.72364E-05   -0.61695E-07   976   0.115E-03
   9 F= -.46436367E+03 E0= -.46432084E+03  d E =-.121510E+01
 curvature:  -2.13 expect dE=-0.130E+01 dE for cont linesearch -0.850E-06
 trial: gam= 0.58186 g(F)=  0.601E+00 g(S)=  0.817E-02 ort =-0.851E-03 (trialstep = 0.154E+01)
 search vector abs. value=  0.122E+01
 bond charge predicted
       N       E                     dE             d eps       ncg     rms          rms(c)
DAV:   1    -0.464957081874E+03   -0.59342E+00   -0.11839E+02  1376   0.265E+01    0.307E+00
DAV:   2    -0.465084007341E+03   -0.12693E+00   -0.18479E+00  1648   0.358E+00    0.206E+00
DAV:   3    -0.465076979530E+03    0.70278E-02   -0.93679E-02  1648   0.956E-01    0.118E+00
DAV:   4    -0.465077145174E+03   -0.16564E-03   -0.36792E-02  1608   0.534E-01    0.693E-01
DAV:   5    -0.465076621750E+03    0.52342E-03   -0.36204E-02  1696   0.421E-01    0.343E-01
DAV:   6    -0.465075487457E+03    0.11343E-02   -0.10474E-02  1648   0.254E-01    0.120E-01
DAV:   7    -0.465075798486E+03   -0.31103E-03   -0.27667E-03  1600   0.111E-01    0.837E-02
DAV:   8    -0.465075767016E+03    0.31470E-04   -0.69511E-04  1616   0.559E-02    0.449E-02
DAV:   9    -0.465075849286E+03   -0.82270E-04   -0.81686E-05  1552   0.248E-02    0.160E-02
DAV:  10    -0.465075887387E+03   -0.38101E-04   -0.12326E-05  1016   0.114E-02    0.667E-03
DAV:  11    -0.465075914921E+03   -0.27534E-04   -0.38415E-06   992   0.566E-03    0.327E-03
DAV:  12    -0.465075938453E+03   -0.23532E-04   -0.18294E-06  1016   0.313E-03    0.181E-03
DAV:  13    -0.465075966783E+03   -0.28330E-04   -0.21781E-06  1008   0.265E-03    0.142E-03
DAV:  14    -0.465075986503E+03   -0.19720E-04   -0.14991E-06  1016   0.189E-03    0.109E-03
DAV:  15    -0.465076000398E+03   -0.13895E-04   -0.13459E-06  1016   0.171E-03    0.635E-04
DAV:  16    -0.465076006116E+03   -0.57182E-05   -0.69171E-07   960   0.117E-03
  10 F= -.46507601E+03 E0= -.46503104E+03  d E =-.712340E+00
 trial-energy change:   -0.712340  1 .order   -0.712162   -0.937362   -0.486962
 step:   3.2061(harm=  3.2061)  dis= 0.16472  next Energy=  -465.339075 (dE=-0.975E+00)
 bond charge predicted
       N       E                     dE             d eps       ncg     rms          rms(c)
DAV:   1    -0.465201541352E+03   -0.12554E+00   -0.13827E+02  1376   0.286E+01    0.322E+00
DAV:   2    -0.465349461394E+03   -0.14792E+00   -0.21952E+00  1672   0.392E+00    0.223E+00
DAV:   3    -0.465341989814E+03    0.74716E-02   -0.11700E-01  1624   0.113E+00    0.128E+00
DAV:   4    -0.465343952497E+03   -0.19627E-02   -0.51959E-02  1688   0.672E-01    0.894E-01
DAV:   5    -0.465340287952E+03    0.36645E-02   -0.38208E-02  1676   0.510E-01    0.449E-01
DAV:   6    -0.465339768416E+03    0.51954E-03   -0.10371E-02  1608   0.287E-01    0.132E-01
DAV:   7    -0.465340034858E+03   -0.26644E-03   -0.35203E-03  1608   0.124E-01    0.925E-02
DAV:   8    -0.465339994474E+03    0.40384E-04   -0.99535E-04  1600   0.647E-02    0.529E-02
DAV:   9    -0.465340087264E+03   -0.92790E-04   -0.10832E-04  1568   0.290E-02    0.208E-02
DAV:  10    -0.465340138046E+03   -0.50781E-04   -0.17247E-05  1056   0.144E-02    0.883E-03
DAV:  11    -0.465340172376E+03   -0.34331E-04   -0.55472E-06  1024   0.692E-03    0.400E-03
DAV:  12    -0.465340202241E+03   -0.29865E-04   -0.25639E-06  1024   0.353E-03    0.221E-03
DAV:  13    -0.465340234215E+03   -0.31974E-04   -0.24761E-06  1024   0.289E-03    0.170E-03
DAV:  14    -0.465340261234E+03   -0.27019E-04   -0.25142E-06  1032   0.234E-03    0.133E-03
DAV:  15    -0.465340277927E+03   -0.16694E-04   -0.17258E-06  1032   0.188E-03    0.820E-04
DAV:  16    -0.465340285372E+03   -0.74448E-05   -0.94512E-07  1008   0.135E-03
  11 F= -.46534029E+03 E0= -.46529297E+03  d E =-.976619E+00
 curvature:  -3.22 expect dE=-0.212E+01 dE for cont linesearch -0.558E-05
 trial: gam= 1.02616 g(F)=  0.618E+00 g(S)=  0.408E-01 ort = 0.146E-02 (trialstep = 0.118E+01)
 search vector abs. value=  0.195E+01
 bond charge predicted
       N       E                     dE             d eps       ncg     rms          rms(c)
DAV:   1    -0.465854609231E+03   -0.51433E+00   -0.10747E+02  1384   0.246E+01    0.279E+00
DAV:   2    -0.465972241891E+03   -0.11763E+00   -0.17480E+00  1648   0.346E+00    0.170E+00
DAV:   3    -0.465961530034E+03    0.10712E-01   -0.20392E-01  1672   0.111E+00    0.113E+00
DAV:   4    -0.465955401965E+03    0.61281E-02   -0.10120E-01  1644   0.758E-01    0.653E-01
DAV:   5    -0.465953854763E+03    0.15472E-02   -0.21160E-02  1656   0.401E-01    0.249E-01
DAV:   6    -0.465954063705E+03   -0.20894E-03   -0.10504E-02  1684   0.236E-01    0.179E-01
DAV:   7    -0.465953735927E+03    0.32778E-03   -0.31325E-03  1648   0.127E-01    0.757E-02
DAV:   8    -0.465953914198E+03   -0.17827E-03   -0.36316E-04  1536   0.484E-02    0.430E-02
DAV:   9    -0.465953975131E+03   -0.60934E-04   -0.63200E-05  1504   0.227E-02    0.198E-02
DAV:  10    -0.465954028108E+03   -0.52977E-04   -0.16192E-05  1096   0.130E-02    0.594E-03
DAV:  11    -0.465954055502E+03   -0.27394E-04   -0.32374E-06   992   0.532E-03    0.346E-03
DAV:  12    -0.465954092629E+03   -0.37126E-04   -0.23654E-06   968   0.326E-03    0.222E-03
DAV:  13    -0.465954131163E+03   -0.38534E-04   -0.25383E-06  1024   0.310E-03    0.142E-03
DAV:  14    -0.465954148663E+03   -0.17500E-04   -0.11639E-06   976   0.190E-03    0.134E-03
DAV:  15    -0.465954163887E+03   -0.15224E-04   -0.12360E-06   992   0.172E-03    0.569E-04
DAV:  16    -0.465954169738E+03   -0.58513E-05   -0.49731E-07  1008   0.109E-03
  12 F= -.46595417E+03 E0= -.46590703E+03  d E =-.613884E+00
 trial-energy change:   -0.613884  1 .order   -0.613654   -0.776158   -0.451149
 step:   2.8068(harm=  2.8068)  dis= 0.20431  next Energy=  -466.267062 (dE=-0.927E+00)
 bond charge predicted
       N       E                     dE             d eps       ncg     rms          rms(c)
DAV:   1    -0.466064689514E+03   -0.11053E+00   -0.20934E+02  1384   0.343E+01    0.385E+00
DAV:   2    -0.466295127356E+03   -0.23044E+00   -0.34720E+00  1640   0.481E+00    0.240E+00
DAV:   3    -0.466274852705E+03    0.20275E-01   -0.38382E-01  1712   0.156E+00    0.146E+00
DAV:   4    -0.466266867687E+03    0.79850E-02   -0.20736E-01  1644   0.996E-01    0.915E-01
DAV:   5    -0.466261895052E+03    0.49726E-02   -0.55562E-02  1656   0.559E-01    0.337E-01
DAV:   6    -0.466262898619E+03   -0.10036E-02   -0.11861E-02  1636   0.303E-01    0.210E-01
DAV:   7    -0.466262370746E+03    0.52787E-03   -0.43009E-03  1664   0.162E-01    0.104E-01
DAV:   8    -0.466262619002E+03   -0.24826E-03   -0.59682E-04  1520   0.687E-02    0.597E-02
DAV:   9    -0.466262753791E+03   -0.13479E-03   -0.11954E-04  1568   0.357E-02    0.209E-02
DAV:  10    -0.466262833503E+03   -0.79712E-04   -0.23432E-05  1152   0.178E-02    0.972E-03
DAV:  11    -0.466262902713E+03   -0.69210E-04   -0.81028E-06  1056   0.786E-03    0.494E-03
DAV:  12    -0.466262969001E+03   -0.66288E-04   -0.43176E-06  1048   0.480E-03    0.266E-03
DAV:  13    -0.466263035726E+03   -0.66725E-04   -0.45958E-06  1032   0.372E-03    0.256E-03
DAV:  14    -0.466263076102E+03   -0.40376E-04   -0.29940E-06  1056   0.280E-03    0.144E-03
DAV:  15    -0.466263098444E+03   -0.22342E-04   -0.17746E-06  1036   0.205E-03    0.100E-03
DAV:  16    -0.466263111025E+03   -0.12581E-04   -0.94625E-07  1000   0.148E-03    0.552E-04
DAV:  17    -0.466263119961E+03   -0.89358E-05   -0.62200E-07  1016   0.107E-03
  13 F= -.46626312E+03 E0= -.46621724E+03  d E =-.922835E+00
 curvature:  -4.14 expect dE=-0.181E+01 dE for cont linesearch -0.509E-04
 trial: gam= 0.59966 g(F)=  0.431E+00 g(S)=  0.579E-02 ort =-0.489E-02 (trialstep = 0.150E+01)
 search vector abs. value=  0.113E+01
 bond charge predicted
       N       E                     dE             d eps       ncg     rms          rms(c)
DAV:   1    -0.466669512166E+03   -0.40640E+00   -0.11203E+02  1376   0.245E+01    0.246E+00
DAV:   2    -0.466762723721E+03   -0.93212E-01   -0.17727E+00  1616   0.339E+00    0.162E+00
DAV:   3    -0.466748022423E+03    0.14701E-01   -0.15950E-01  1552   0.150E+00    0.827E-01
DAV:   4    -0.466744223162E+03    0.37993E-02   -0.46110E-02  1600   0.705E-01    0.520E-01
DAV:   5    -0.466743977929E+03    0.24523E-03   -0.16666E-02  1604   0.351E-01    0.224E-01
DAV:   6    -0.466743778642E+03    0.19929E-03   -0.64999E-03  1672   0.186E-01    0.125E-01
DAV:   7    -0.466743832207E+03   -0.53565E-04   -0.12318E-03  1596   0.916E-02    0.591E-02
DAV:   8    -0.466743958261E+03   -0.12605E-03   -0.28555E-04  1624   0.402E-02    0.342E-02
DAV:   9    -0.466744030464E+03   -0.72203E-04   -0.13331E-04  1248   0.245E-02    0.172E-02
DAV:  10    -0.466744099129E+03   -0.68664E-04   -0.28870E-05  1048   0.147E-02    0.770E-03
DAV:  11    -0.466744160159E+03   -0.61030E-04   -0.74950E-06  1056   0.702E-03    0.382E-03
DAV:  12    -0.466744215684E+03   -0.55525E-04   -0.37218E-06  1056   0.390E-03    0.242E-03
DAV:  13    -0.466744267932E+03   -0.52248E-04   -0.36515E-06  1056   0.299E-03    0.172E-03
DAV:  14    -0.466744307875E+03   -0.39943E-04   -0.32256E-06  1056   0.250E-03    0.139E-03
DAV:  15    -0.466744330659E+03   -0.22784E-04   -0.18315E-06  1056   0.181E-03    0.871E-04
DAV:  16    -0.466744344571E+03   -0.13912E-04   -0.12482E-06  1056   0.140E-03    0.567E-04
DAV:  17    -0.466744351267E+03   -0.66966E-05   -0.52558E-07  1024   0.101E-03
  14 F= -.46674435E+03 E0= -.46669594E+03  d E =-.481231E+00
 trial-energy change:   -0.481231  1 .order   -0.480752   -0.651806   -0.309698
 step:   2.8609(harm=  2.8609)  dis= 0.17169  next Energy=  -466.884052 (dE=-0.621E+00)
 bond charge predicted
       N       E                     dE             d eps       ncg     rms          rms(c)
DAV:   1    -0.466824448525E+03   -0.80104E-01   -0.91655E+01  1376   0.222E+01    0.225E+00
DAV:   2    -0.466902929400E+03   -0.78481E-01   -0.15960E+00  1608   0.314E+00    0.157E+00
DAV:   3    -0.466885786679E+03    0.17143E-01   -0.20763E-01  1532   0.157E+00    0.809E-01
DAV:   4    -0.466881380017E+03    0.44067E-02   -0.50833E-02  1616   0.686E-01    0.494E-01
DAV:   5    -0.466881169619E+03    0.21040E-03   -0.18037E-02  1608   0.343E-01    0.239E-01
DAV:   6    -0.466880761859E+03    0.40776E-03   -0.65851E-03  1672   0.193E-01    0.114E-01
DAV:   7    -0.466880921960E+03   -0.16010E-03   -0.10055E-03  1584   0.870E-02    0.578E-02
DAV:   8    -0.466881021869E+03   -0.99909E-04   -0.18727E-04  1600   0.357E-02    0.302E-02
DAV:   9    -0.466881102335E+03   -0.80466E-04   -0.98168E-05  1136   0.210E-02    0.160E-02
DAV:  10    -0.466881152458E+03   -0.50123E-04   -0.39748E-05  1056   0.151E-02    0.758E-03
DAV:  11    -0.466881203700E+03   -0.51242E-04   -0.71509E-06  1048   0.699E-03    0.347E-03
DAV:  12    -0.466881254160E+03   -0.50460E-04   -0.35618E-06  1048   0.359E-03    0.219E-03
DAV:  13    -0.466881304833E+03   -0.50673E-04   -0.35675E-06  1048   0.279E-03    0.162E-03
DAV:  14    -0.466881339382E+03   -0.34548E-04   -0.26216E-06  1056   0.219E-03    0.118E-03
DAV:  15    -0.466881359313E+03   -0.19931E-04   -0.15202E-06  1064   0.167E-03    0.849E-04
DAV:  16    -0.466881370956E+03   -0.11643E-04   -0.10740E-06  1032   0.130E-03    0.518E-04
DAV:  17    -0.466881377841E+03   -0.68853E-05   -0.43800E-07  1008   0.947E-04
  15 F= -.46688138E+03 E0= -.46683125E+03  d E =-.618258E+00
 curvature:  -3.73 expect dE=-0.159E+01 dE for cont linesearch -0.931E-04
 trial: gam= 0.89745 g(F)=  0.411E+00 g(S)=  0.161E-01 ort =-0.532E-02 (trialstep = 0.151E+01)
 search vector abs. value=  0.133E+01
 bond charge predicted
       N       E                     dE             d eps       ncg     rms          rms(c)
DAV:   1    -0.467283513218E+03   -0.40214E+00   -0.15006E+02  1376   0.264E+01    0.239E+00
DAV:   2    -0.467439467259E+03   -0.15595E+00   -0.28548E+00  1592   0.420E+00    0.240E+00
DAV:   3    -0.467391672988E+03    0.47794E-01   -0.31555E-01  1524   0.195E+00    0.119E+00
DAV:   4    -0.467388511606E+03    0.31614E-02   -0.54908E-02  1608   0.640E-01    0.825E-01
DAV:   5    -0.467388163157E+03    0.34845E-03   -0.35511E-02  1664   0.425E-01    0.378E-01
DAV:   6    -0.467387366275E+03    0.79688E-03   -0.15201E-02  1652   0.287E-01    0.155E-01
DAV:   7    -0.467387448299E+03   -0.82024E-04   -0.16583E-03  1528   0.105E-01    0.847E-02
DAV:   8    -0.467387554433E+03   -0.10613E-03   -0.34289E-04  1632   0.429E-02    0.423E-02
DAV:   9    -0.467387674007E+03   -0.11957E-03   -0.78023E-05  1544   0.279E-02    0.135E-02
DAV:  10    -0.467387751520E+03   -0.77512E-04   -0.24930E-05  1088   0.134E-02    0.752E-03
DAV:  11    -0.467387793917E+03   -0.42397E-04   -0.73389E-06  1064   0.659E-03    0.495E-03
DAV:  12    -0.467387847025E+03   -0.53108E-04   -0.46966E-06  1056   0.409E-03    0.258E-03
DAV:  13    -0.467387914752E+03   -0.67727E-04   -0.68003E-06  1056   0.369E-03    0.201E-03
DAV:  14    -0.467387951050E+03   -0.36298E-04   -0.34219E-06  1064   0.272E-03    0.199E-03
DAV:  15    -0.467387964970E+03   -0.13920E-04   -0.10720E-06  1040   0.174E-03    0.127E-03
DAV:  16    -0.467387985674E+03   -0.20704E-04   -0.23092E-06  1056   0.182E-03    0.665E-04
DAV:  17    -0.467387991713E+03   -0.60389E-05   -0.47066E-07  1016   0.110E-03
  16 F= -.46738799E+03 E0= -.46733671E+03  d E =-.506614E+00
 trial-energy change:   -0.506614  1 .order   -0.506359   -0.637663   -0.375055
 step:   3.6681(harm=  3.6681)  dis= 0.25194  next Energy=  -467.655563 (dE=-0.774E+00)
 bond charge predicted
       N       E                     dE             d eps       ncg     rms          rms(c)
DAV:   1    -0.467412314607E+03   -0.24329E-01   -0.31289E+02  1376   0.380E+01    0.342E+00
DAV:   2    -0.467773575228E+03   -0.36126E+00   -0.63699E+00  1580   0.612E+00    0.351E+00
DAV:   3    -0.467660904654E+03    0.11267E+00   -0.79104E-01  1520   0.279E+00    0.174E+00
DAV:   4    -0.467655225082E+03    0.56796E-02   -0.12495E-01  1600   0.914E-01    0.123E+00
DAV:   5    -0.467652417359E+03    0.28077E-02   -0.84091E-02  1680   0.621E-01    0.552E-01
DAV:   6    -0.467651676517E+03    0.74084E-03   -0.25579E-02  1656   0.394E-01    0.190E-01
DAV:   7    -0.467651773769E+03   -0.97253E-04   -0.33460E-03  1520   0.137E-01    0.119E-01
DAV:   8    -0.467651834140E+03   -0.60370E-04   -0.86582E-04  1688   0.700E-02    0.733E-02
DAV:   9    -0.467652031184E+03   -0.19704E-03   -0.26659E-04  1592   0.405E-02    0.232E-02
DAV:  10    -0.467652157167E+03   -0.12598E-03   -0.53621E-05  1336   0.181E-02    0.114E-02
DAV:  11    -0.467652254106E+03   -0.96939E-04   -0.13378E-05  1064   0.960E-03    0.698E-03
DAV:  12    -0.467652346621E+03   -0.92514E-04   -0.88317E-06  1048   0.566E-03    0.310E-03
DAV:  13    -0.467652445577E+03   -0.98956E-04   -0.93034E-06  1040   0.431E-03    0.242E-03
DAV:  14    -0.467652520838E+03   -0.75261E-04   -0.86430E-06  1064   0.427E-03    0.279E-03
DAV:  15    -0.467652539092E+03   -0.18255E-04   -0.17261E-06  1024   0.232E-03    0.147E-03
DAV:  16    -0.467652564933E+03   -0.25841E-04   -0.36836E-06  1024   0.211E-03    0.995E-04
DAV:  17    -0.467652574147E+03   -0.92132E-05   -0.78633E-07  1000   0.139E-03
  17 F= -.46765257E+03 E0= -.46760410E+03  d E =-.771196E+00
 curvature:  -5.78 expect dE=-0.346E+01 dE for cont linesearch -0.557E-04
 trial: gam= 1.32464 g(F)=  0.597E+00 g(S)=  0.168E-02 ort =-0.358E-02 (trialstep = 0.884E+00)
 search vector abs. value=  0.292E+01
 bond charge predicted
       N       E                     dE             d eps       ncg     rms          rms(c)
DAV:   1    -0.468036045709E+03   -0.38348E+00   -0.12090E+02  1376   0.224E+01    0.205E+00
DAV:   2    -0.468172596774E+03   -0.13655E+00   -0.25740E+00  1616   0.355E+00    0.228E+00
DAV:   3    -0.468109298374E+03    0.63298E-01   -0.58748E-01  1532   0.187E+00    0.967E-01
DAV:   4    -0.468108682641E+03    0.61573E-03   -0.44321E-02  1544   0.560E-01    0.657E-01
DAV:   5    -0.468108367236E+03    0.31541E-03   -0.20275E-02  1656   0.326E-01    0.234E-01
DAV:   6    -0.468108286047E+03    0.81190E-04   -0.67685E-03  1636   0.205E-01    0.866E-02
DAV:   7    -0.468108318096E+03   -0.32049E-04   -0.10859E-03  1544   0.837E-02    0.564E-02
DAV:   8    -0.468108373602E+03   -0.55507E-04   -0.18014E-04  1584   0.359E-02    0.316E-02
DAV:   9    -0.468108463762E+03   -0.90159E-04   -0.49804E-05  1504   0.193E-02    0.119E-02
DAV:  10    -0.468108521936E+03   -0.58174E-04   -0.12904E-05  1048   0.961E-03    0.521E-03
DAV:  11    -0.468108565589E+03   -0.43652E-04   -0.39228E-06  1040   0.481E-03    0.313E-03
DAV:  12    -0.468108617605E+03   -0.52016E-04   -0.40088E-06  1032   0.327E-03    0.201E-03
DAV:  13    -0.468108665736E+03   -0.48131E-04   -0.47135E-06  1032   0.253E-03    0.153E-03
DAV:  14    -0.468108697796E+03   -0.32061E-04   -0.38881E-06  1040   0.228E-03    0.144E-03
DAV:  15    -0.468108713633E+03   -0.15836E-04   -0.19086E-06  1048   0.166E-03    0.608E-04
DAV:  16    -0.468108719501E+03   -0.58687E-05   -0.51321E-07   936   0.102E-03
  18 F= -.46810872E+03 E0= -.46806113E+03  d E =-.456145E+00
 trial-energy change:   -0.456145  1 .order   -0.455780   -0.524799   -0.386761
 step:   3.3594(harm=  3.3594)  dis= 0.35077  next Energy=  -468.650173 (dE=-0.998E+00)
 bond charge predicted
       N       E                     dE             d eps       ncg     rms          rms(c)
DAV:   1    -0.467527271905E+03    0.58144E+00   -0.10726E+03  1376   0.659E+01    0.582E+00
DAV:   2    -0.468855000686E+03   -0.13277E+01   -0.18787E+01  1584   0.106E+01    0.599E+00
DAV:   3    -0.468661992716E+03    0.19301E+00   -0.31448E+00  1536   0.424E+00    0.314E+00
DAV:   4    -0.468652672250E+03    0.93205E-02   -0.64352E-01  1532   0.174E+00    0.287E+00
DAV:   5    -0.468617662956E+03    0.35009E-01   -0.38865E-01  1548   0.131E+00    0.959E-01
DAV:   6    -0.468618473003E+03   -0.81005E-03   -0.39624E-02  1536   0.459E-01    0.309E-01
DAV:   7    -0.468618026771E+03    0.44623E-03   -0.57846E-03  1608   0.247E-01    0.136E-01
DAV:   8    -0.468618390894E+03   -0.36412E-03   -0.12455E-03  1568   0.903E-02    0.541E-02
DAV:   9    -0.468618709978E+03   -0.31908E-03   -0.20556E-04  1664   0.360E-02    0.259E-02
DAV:  10    -0.468618944589E+03   -0.23461E-03   -0.59608E-05  1168   0.184E-02    0.136E-02
DAV:  11    -0.468619169002E+03   -0.22441E-03   -0.25347E-05  1040   0.105E-02    0.793E-03
DAV:  12    -0.468619429333E+03   -0.26033E-03   -0.32855E-05  1104   0.848E-03    0.544E-03
DAV:  13    -0.468619596128E+03   -0.16680E-03   -0.21191E-05  1024   0.626E-03    0.397E-03
DAV:  14    -0.468619687600E+03   -0.91472E-04   -0.12342E-05  1016   0.406E-03    0.315E-03
DAV:  15    -0.468619745819E+03   -0.58219E-04   -0.83873E-06  1016   0.354E-03    0.165E-03
DAV:  16    -0.468619765371E+03   -0.19552E-04   -0.23946E-06  1024   0.214E-03    0.101E-03
DAV:  17    -0.468619777765E+03   -0.12395E-04   -0.10820E-06   952   0.141E-03    0.617E-04
DAV:  18    -0.468619787099E+03   -0.93338E-05   -0.89449E-07   976   0.109E-03
  19 F= -.46861979E+03 E0= -.46857755E+03  d E =-.967213E+00
 curvature:  -8.26 expect dE=-0.639E+01 dE for cont linesearch -0.290E-02
 trial: gam= 1.14784 g(F)=  0.768E+00 g(S)=  0.535E-02 ort =-0.320E-01 (trialstep = 0.886E+00)
 search vector abs. value=  0.455E+01
 bond charge predicted
       N       E                     dE             d eps       ncg     rms          rms(c)
DAV:   1    -0.469043350055E+03   -0.42357E+00   -0.19750E+02  1376   0.275E+01    0.218E+00
DAV:   2    -0.469232393382E+03   -0.18904E+00   -0.27358E+00  1592   0.391E+00    0.231E+00
DAV:   3    -0.469183682071E+03    0.48711E-01   -0.79041E-01  1556   0.188E+00    0.109E+00
DAV:   4    -0.469176045967E+03    0.76361E-02   -0.55461E-02  1536   0.711E-01    0.729E-01
DAV:   5    -0.469176067615E+03   -0.21648E-04   -0.19325E-02  1528   0.394E-01    0.213E-01
DAV:   6    -0.469175703401E+03    0.36421E-03   -0.40440E-03  1584   0.228E-01    0.126E-01
DAV:   7    -0.469175880870E+03   -0.17747E-03   -0.98738E-04  1552   0.909E-02    0.462E-02
DAV:   8    -0.469175912916E+03   -0.32046E-04   -0.10682E-04  1632   0.320E-02    0.286E-02
DAV:   9    -0.469175983217E+03   -0.70301E-04   -0.41341E-05  1304   0.199E-02    0.101E-02
DAV:  10    -0.469176024065E+03   -0.40848E-04   -0.95170E-06   984   0.928E-03    0.500E-03
DAV:  11    -0.469176056561E+03   -0.32496E-04   -0.28815E-06   976   0.432E-03    0.302E-03
DAV:  12    -0.469176105637E+03   -0.49077E-04   -0.35083E-06   956   0.313E-03    0.157E-03
DAV:  13    -0.469176139689E+03   -0.34051E-04   -0.24803E-06   992   0.229E-03    0.127E-03
DAV:  14    -0.469176158962E+03   -0.19274E-04   -0.13644E-06   984   0.170E-03    0.870E-04
DAV:  15    -0.469176173018E+03   -0.14056E-04   -0.11781E-06   968   0.132E-03    0.456E-04
DAV:  16    -0.469176179146E+03   -0.61283E-05   -0.43052E-07   912   0.925E-04
  20 F= -.46917618E+03 E0= -.46913893E+03  d E =-.556392E+00
 trial-energy change:   -0.556392  1 .order   -0.555258   -0.652196   -0.458320
 step:   2.7717(harm=  2.9789)  dis= 0.36776  next Energy=  -469.675259 (dE=-0.106E+01)
 bond charge predicted
       N       E                     dE             d eps       ncg     rms          rms(c)
DAV:   1    -0.468670061539E+03    0.50611E+00   -0.99768E+02  1376   0.613E+01    0.492E+00
DAV:   2    -0.469803486335E+03   -0.11334E+01   -0.13993E+01  1552   0.908E+00    0.471E+00
DAV:   3    -0.469726810390E+03    0.76676E-01   -0.18595E+00  1568   0.337E+00    0.256E+00
DAV:   4    -0.469693963738E+03    0.32847E-01   -0.25351E-01  1560   0.151E+00    0.224E+00
DAV:   5    -0.469677012867E+03    0.16951E-01   -0.10505E-01  1592   0.101E+00    0.760E-01
DAV:   6    -0.469676836604E+03    0.17626E-03   -0.19111E-02  1648   0.407E-01    0.240E-01
DAV:   7    -0.469677440744E+03   -0.60414E-03   -0.28320E-03  1584   0.156E-01    0.132E-01
DAV:   8    -0.469677460565E+03   -0.19822E-04   -0.59465E-04  1544   0.871E-02    0.671E-02
DAV:   9    -0.469677671254E+03   -0.21069E-03   -0.25123E-04  1552   0.433E-02    0.215E-02
DAV:  10    -0.469677770812E+03   -0.99558E-04   -0.29476E-05  1216   0.184E-02    0.112E-02
DAV:  11    -0.469677893675E+03   -0.12286E-03   -0.12097E-05  1000   0.114E-02    0.522E-03
DAV:  12    -0.469678002806E+03   -0.10913E-03   -0.75795E-06  1016   0.598E-03    0.320E-03
DAV:  13    -0.469678090215E+03   -0.87409E-04   -0.59233E-06  1008   0.438E-03    0.262E-03
DAV:  14    -0.469678160257E+03   -0.70042E-04   -0.61157E-06  1016   0.376E-03    0.167E-03
DAV:  15    -0.469678192136E+03   -0.31879E-04   -0.29663E-06  1000   0.262E-03    0.104E-03
DAV:  16    -0.469678209394E+03   -0.17259E-04   -0.15076E-06   952   0.190E-03    0.683E-04
DAV:  17    -0.469678217889E+03   -0.84941E-05   -0.71294E-07   920   0.121E-03
  21 F= -.46967822E+03 E0= -.46964806E+03  d E =-.105843E+01
 curvature:  -9.11 expect dE=-0.539E+01 dE for cont linesearch -0.126E-03
 trial: gam= 0.58150 g(F)=  0.575E+00 g(S)=  0.175E-01 ort = 0.792E-02 (trialstep = 0.126E+01)
 search vector abs. value=  0.214E+01
 bond charge predicted
       N       E                     dE             d eps       ncg     rms          rms(c)
DAV:   1    -0.470133899840E+03   -0.45569E+00   -0.17989E+02  1392   0.272E+01    0.199E+00
DAV:   2    -0.470294577405E+03   -0.16068E+00   -0.20628E+00  1608   0.378E+00    0.176E+00
DAV:   3    -0.470278852358E+03    0.15725E-01   -0.27669E-01  1592   0.145E+00    0.984E-01
DAV:   4    -0.470271489182E+03    0.73632E-02   -0.45409E-02  1556   0.683E-01    0.755E-01
DAV:   5    -0.470269910222E+03    0.15790E-02   -0.18251E-02  1552   0.365E-01    0.248E-01
DAV:   6    -0.470269820298E+03    0.89924E-04   -0.24545E-03  1632   0.169E-01    0.105E-01
DAV:   7    -0.470269941390E+03   -0.12109E-03   -0.54694E-04  1568   0.728E-02    0.545E-02
DAV:   8    -0.470269956218E+03   -0.14829E-04   -0.94936E-05  1440   0.330E-02    0.292E-02
DAV:   9    -0.470270010692E+03   -0.54474E-04   -0.49416E-05  1328   0.207E-02    0.838E-03
DAV:  10    -0.470270038850E+03   -0.28158E-04   -0.10400E-05   960   0.104E-02    0.434E-03
DAV:  11    -0.470270067310E+03   -0.28460E-04   -0.25614E-06   952   0.398E-03    0.239E-03
DAV:  12    -0.470270098477E+03   -0.31167E-04   -0.21321E-06   984   0.258E-03    0.133E-03
DAV:  13    -0.470270120667E+03   -0.22191E-04   -0.16532E-06   968   0.214E-03    0.107E-03
DAV:  14    -0.470270136588E+03   -0.15921E-04   -0.13060E-06   984   0.180E-03    0.745E-04
DAV:  15    -0.470270142796E+03   -0.62080E-05   -0.53777E-07   904   0.121E-03
  22 F= -.47027014E+03 E0= -.47024296E+03  d E =-.591925E+00
 trial-energy change:   -0.591925  1 .order   -0.592789   -0.753373   -0.432204
 step:   2.9621(harm=  2.9621)  dis= 0.25668  next Energy=  -470.561819 (dE=-0.884E+00)
 bond charge predicted
       N       E                     dE             d eps       ncg     rms          rms(c)
DAV:   1    -0.470291386532E+03   -0.21250E-01   -0.33322E+02  1392   0.369E+01    0.274E+00
DAV:   2    -0.470598866362E+03   -0.30748E+00   -0.39101E+00  1600   0.512E+00    0.226E+00
DAV:   3    -0.470580240602E+03    0.18626E-01   -0.43506E-01  1592   0.184E+00    0.129E+00
DAV:   4    -0.470568856426E+03    0.11384E-01   -0.82598E-02  1560   0.886E-01    0.105E+00
DAV:   5    -0.470564692781E+03    0.41636E-02   -0.31632E-02  1544   0.488E-01    0.367E-01
DAV:   6    -0.470564939977E+03   -0.24720E-03   -0.40831E-03  1608   0.196E-01    0.156E-01
DAV:   7    -0.470565037838E+03   -0.97861E-04   -0.76226E-04  1608   0.886E-02    0.793E-02
DAV:   8    -0.470565064167E+03   -0.26328E-04   -0.19381E-04  1552   0.496E-02    0.360E-02
DAV:   9    -0.470565156646E+03   -0.92479E-04   -0.10035E-04  1544   0.279E-02    0.138E-02
DAV:  10    -0.470565194332E+03   -0.37686E-04   -0.11301E-05   960   0.119E-02    0.706E-03
DAV:  11    -0.470565247131E+03   -0.52799E-04   -0.54080E-06   960   0.583E-03    0.286E-03
DAV:  12    -0.470565287334E+03   -0.40203E-04   -0.24037E-06   976   0.351E-03    0.177E-03
DAV:  13    -0.470565326272E+03   -0.38938E-04   -0.25909E-06   960   0.282E-03    0.118E-03
DAV:  14    -0.470565353794E+03   -0.27522E-04   -0.25650E-06   992   0.241E-03    0.922E-04
DAV:  15    -0.470565360458E+03   -0.66640E-05   -0.82705E-07   912   0.154E-03
  23 F= -.47056536E+03 E0= -.47054141E+03  d E =-.887143E+00
 curvature:  -5.31 expect dE=-0.284E+01 dE for cont linesearch -0.909E-04
 trial: gam= 0.92074 g(F)=  0.519E+00 g(S)=  0.161E-01 ort = 0.605E-02 (trialstep = 0.145E+01)
 search vector abs. value=  0.236E+01
 bond charge predicted
       N       E                     dE             d eps       ncg     rms          rms(c)
DAV:   1    -0.471006083456E+03   -0.44073E+00   -0.24876E+02  1376   0.328E+01    0.234E+00
DAV:   2    -0.471226821298E+03   -0.22074E+00   -0.27320E+00  1592   0.426E+00    0.162E+00
DAV:   3    -0.471217724456E+03    0.90968E-02   -0.19495E-01  1584   0.136E+00    0.101E+00
DAV:   4    -0.471212602964E+03    0.51215E-02   -0.55447E-02  1536   0.750E-01    0.773E-01
DAV:   5    -0.471210039946E+03    0.25630E-02   -0.22035E-02  1520   0.431E-01    0.286E-01
DAV:   6    -0.471210442920E+03   -0.40297E-03   -0.45910E-03  1552   0.190E-01    0.117E-01
DAV:   7    -0.471210421034E+03    0.21886E-04   -0.63738E-04  1624   0.831E-02    0.630E-02
DAV:   8    -0.471210451162E+03   -0.30128E-04   -0.16413E-04  1560   0.412E-02    0.285E-02
DAV:   9    -0.471210499619E+03   -0.48457E-04   -0.40404E-05  1280   0.203E-02    0.113E-02
DAV:  10    -0.471210529176E+03   -0.29556E-04   -0.58900E-06   952   0.885E-03    0.621E-03
DAV:  11    -0.471210565206E+03   -0.36030E-04   -0.37144E-06   960   0.611E-03    0.281E-03
DAV:  12    -0.471210599621E+03   -0.34416E-04   -0.32814E-06   992   0.469E-03    0.187E-03
DAV:  13    -0.471210619302E+03   -0.19680E-04   -0.16310E-06   952   0.278E-03    0.164E-03
DAV:  14    -0.471210636595E+03   -0.17293E-04   -0.16858E-06   972   0.218E-03    0.868E-04
DAV:  15    -0.471210644375E+03   -0.77798E-05   -0.70990E-07   920   0.146E-03
  24 F= -.47121064E+03 E0= -.47118831E+03  d E =-.645284E+00
 trial-energy change:   -0.645284  1 .order   -0.644607   -0.785721   -0.503493
 step:   4.0445(harm=  4.0445)  dis= 0.34704  next Energy=  -471.659081 (dE=-0.109E+01)
 bond charge predicted
       N       E                     dE             d eps       ncg     rms          rms(c)
DAV:   1    -0.470785104385E+03    0.42553E+00   -0.84838E+02  1376   0.602E+01    0.479E+00
DAV:   2    -0.471711899432E+03   -0.92680E+00   -0.11067E+01  1600   0.830E+00    0.334E+00
DAV:   3    -0.471671658757E+03    0.40241E-01   -0.61707E-01  1552   0.239E+00    0.199E+00
DAV:   4    -0.471659031836E+03    0.12627E-01   -0.14976E-01  1528   0.119E+00    0.157E+00
DAV:   5    -0.471649610404E+03    0.94214E-02   -0.86559E-02  1504   0.860E-01    0.627E-01
DAV:   6    -0.471649734033E+03   -0.12363E-03   -0.21172E-02  1504   0.349E-01    0.237E-01
DAV:   7    -0.471649721592E+03    0.12441E-04   -0.26790E-03  1568   0.162E-01    0.140E-01
DAV:   8    -0.471649813896E+03   -0.92303E-04   -0.68640E-04  1560   0.782E-02    0.466E-02
DAV:   9    -0.471649906725E+03   -0.92830E-04   -0.10766E-04  1568   0.335E-02    0.202E-02
DAV:  10    -0.471649991379E+03   -0.84654E-04   -0.21953E-05  1008   0.156E-02    0.929E-03
DAV:  11    -0.471650058141E+03   -0.66762E-04   -0.72199E-06   984   0.855E-03    0.544E-03
DAV:  12    -0.471650119588E+03   -0.61446E-04   -0.49652E-06   944   0.663E-03    0.267E-03
DAV:  13    -0.471650179010E+03   -0.59422E-04   -0.58548E-06   984   0.562E-03    0.290E-03
DAV:  14    -0.471650207867E+03   -0.28858E-04   -0.27264E-06   984   0.345E-03    0.178E-03
DAV:  15    -0.471650231254E+03   -0.23387E-04   -0.25133E-06   960   0.300E-03    0.121E-03
DAV:  16    -0.471650239164E+03   -0.79091E-05   -0.85560E-07   960   0.185E-03
  25 F= -.47165024E+03 E0= -.47163171E+03  d E =-.108488E+01
 curvature:  -8.82 expect dE=-0.618E+01 dE for cont linesearch -0.291E-03
 trial: gam= 1.31230 g(F)=  0.681E+00 g(S)=  0.201E-01 ort =-0.882E-02 (trialstep = 0.981E+00)
 search vector abs. value=  0.474E+01
 bond charge predicted
       N       E                     dE             d eps       ncg     rms          rms(c)
DAV:   1    -0.472015381871E+03   -0.36515E+00   -0.21921E+02  1384   0.318E+01    0.243E+00
DAV:   2    -0.472205836323E+03   -0.19045E+00   -0.25353E+00  1608   0.414E+00    0.132E+00
DAV:   3    -0.472196915067E+03    0.89213E-02   -0.11125E-01  1608   0.109E+00    0.889E-01
DAV:   4    -0.472194212302E+03    0.27028E-02   -0.28769E-02  1584   0.553E-01    0.517E-01
DAV:   5    -0.472193922242E+03    0.29006E-03   -0.10421E-02  1524   0.323E-01    0.201E-01
DAV:   6    -0.472193754582E+03    0.16766E-03   -0.45881E-03  1512   0.188E-01    0.878E-02
DAV:   7    -0.472193768606E+03   -0.14024E-04   -0.63026E-04  1520   0.732E-02    0.554E-02
DAV:   8    -0.472193819262E+03   -0.50656E-04   -0.11454E-04  1432   0.338E-02    0.223E-02
DAV:   9    -0.472193868940E+03   -0.49678E-04   -0.32903E-05  1192   0.158E-02    0.966E-03
DAV:  10    -0.472193897591E+03   -0.28651E-04   -0.53250E-06   944   0.800E-03    0.624E-03
DAV:  11    -0.472193942925E+03   -0.45334E-04   -0.37534E-06   912   0.713E-03    0.222E-03
DAV:  12    -0.472193979406E+03   -0.36481E-04   -0.34727E-06   960   0.527E-03    0.219E-03
DAV:  13    -0.472193996831E+03   -0.17426E-04   -0.12811E-06   944   0.299E-03    0.121E-03
DAV:  14    -0.472194017028E+03   -0.20196E-04   -0.16821E-06   928   0.236E-03    0.729E-04
DAV:  15    -0.472194024048E+03   -0.70203E-05   -0.59552E-07   960   0.164E-03
  26 F= -.47219402E+03 E0= -.47217989E+03  d E =-.543785E+00
 trial-energy change:   -0.543785  1 .order   -0.543106   -0.676078   -0.410134
 step:   2.4940(harm=  2.4940)  dis= 0.28542  next Energy=  -472.509597 (dE=-0.859E+00)
 bond charge predicted
       N       E                     dE             d eps       ncg     rms          rms(c)
DAV:   1    -0.472003397185E+03    0.19062E+00   -0.53921E+02  1376   0.496E+01    0.400E+00
DAV:   2    -0.472528865315E+03   -0.52547E+00   -0.67722E+00  1616   0.666E+00    0.220E+00
DAV:   3    -0.472505175457E+03    0.23690E-01   -0.28749E-01  1616   0.172E+00    0.146E+00
DAV:   4    -0.472496860460E+03    0.83150E-02   -0.66317E-02  1600   0.819E-01    0.890E-01
DAV:   5    -0.472495422939E+03    0.14375E-02   -0.22072E-02  1520   0.490E-01    0.296E-01
DAV:   6    -0.472495313269E+03    0.10967E-03   -0.81118E-03  1536   0.247E-01    0.133E-01
DAV:   7    -0.472495415357E+03   -0.10209E-03   -0.11699E-03  1584   0.947E-02    0.916E-02
DAV:   8    -0.472495520455E+03   -0.10510E-03   -0.25646E-04  1488   0.564E-02    0.280E-02
DAV:   9    -0.472495612156E+03   -0.91702E-04   -0.76459E-05  1520   0.257E-02    0.155E-02
DAV:  10    -0.472495663818E+03   -0.51661E-04   -0.84669E-06   976   0.111E-02    0.876E-03
DAV:  11    -0.472495753941E+03   -0.90123E-04   -0.70829E-06   920   0.960E-03    0.305E-03
DAV:  12    -0.472495821001E+03   -0.67060E-04   -0.56894E-06   968   0.663E-03    0.295E-03
DAV:  13    -0.472495869450E+03   -0.48449E-04   -0.33556E-06   944   0.445E-03    0.190E-03
DAV:  14    -0.472495904108E+03   -0.34658E-04   -0.31236E-06   952   0.344E-03    0.118E-03
DAV:  15    -0.472495915063E+03   -0.10954E-04   -0.11164E-06   968   0.232E-03    0.774E-04
DAV:  16    -0.472495924248E+03   -0.91854E-05   -0.72677E-07   920   0.153E-03
  27 F= -.47249592E+03 E0= -.47248658E+03  d E =-.845685E+00
 curvature:  -8.58 expect dE=-0.430E+01 dE for cont linesearch -0.923E-03
 trial: gam= 0.63067 g(F)=  0.485E+00 g(S)=  0.156E-01 ort =-0.226E-01 (trialstep = 0.128E+01)
 search vector abs. value=  0.236E+01
 bond charge predicted
       N       E                     dE             d eps       ncg     rms          rms(c)
DAV:   1    -0.472810285626E+03   -0.31437E+00   -0.17488E+02  1376   0.299E+01    0.245E+00
DAV:   2    -0.472979256877E+03   -0.16897E+00   -0.22663E+00  1600   0.392E+00    0.132E+00
DAV:   3    -0.472967865774E+03    0.11391E-01   -0.92611E-02  1620   0.984E-01    0.909E-01
DAV:   4    -0.472964323966E+03    0.35418E-02   -0.28327E-02  1584   0.550E-01    0.490E-01
DAV:   5    -0.472963989441E+03    0.33453E-03   -0.61360E-03  1520   0.271E-01    0.181E-01
DAV:   6    -0.472964069790E+03   -0.80349E-04   -0.16250E-03  1560   0.126E-01    0.733E-02
DAV:   7    -0.472964104820E+03   -0.35030E-04   -0.35645E-04  1488   0.552E-02    0.439E-02
DAV:   8    -0.472964141009E+03   -0.36189E-04   -0.86962E-05  1432   0.286E-02    0.166E-02
DAV:   9    -0.472964179950E+03   -0.38941E-04   -0.21522E-05  1008   0.143E-02    0.879E-03
DAV:  10    -0.472964204488E+03   -0.24538E-04   -0.50659E-06   944   0.772E-03    0.450E-03
DAV:  11    -0.472964235775E+03   -0.31287E-04   -0.31867E-06   920   0.500E-03    0.195E-03
DAV:  12    -0.472964253283E+03   -0.17508E-04   -0.15525E-06   968   0.284E-03    0.135E-03
DAV:  13    -0.472964270987E+03   -0.17704E-04   -0.12390E-06   920   0.209E-03    0.770E-04
DAV:  14    -0.472964289420E+03   -0.18433E-04   -0.18606E-06   960   0.212E-03    0.660E-04
DAV:  15    -0.472964293355E+03   -0.39345E-05   -0.38920E-07   976   0.122E-03
  28 F= -.47296429E+03 E0= -.47295665E+03  d E =-.468369E+00
 trial-energy change:   -0.468369  1 .order   -0.468115   -0.624249   -0.311981
 step:   2.5660(harm=  2.5660)  dis= 0.18125  next Energy=  -473.119886 (dE=-0.624E+00)
 bond charge predicted
       N       E                     dE             d eps       ncg     rms          rms(c)
DAV:   1    -0.472963186268E+03    0.11032E-02   -0.17460E+02  1376   0.299E+01    0.245E+00
DAV:   2    -0.473132231060E+03   -0.16904E+00   -0.22722E+00  1600   0.393E+00    0.132E+00
DAV:   3    -0.473120819305E+03    0.11412E-01   -0.95500E-02  1616   0.990E-01    0.909E-01
DAV:   4    -0.473117324768E+03    0.34945E-02   -0.29042E-02  1576   0.554E-01    0.494E-01
DAV:   5    -0.473116979254E+03    0.34551E-03   -0.70097E-03  1520   0.275E-01    0.184E-01
DAV:   6    -0.473117039634E+03   -0.60380E-04   -0.19028E-03  1544   0.133E-01    0.739E-02
DAV:   7    -0.473117074768E+03   -0.35134E-04   -0.40810E-04  1496   0.577E-02    0.439E-02
DAV:   8    -0.473117111668E+03   -0.36900E-04   -0.84893E-05  1456   0.285E-02    0.170E-02
DAV:   9    -0.473117150908E+03   -0.39240E-04   -0.20989E-05  1016   0.145E-02    0.885E-03
DAV:  10    -0.473117173968E+03   -0.23060E-04   -0.51040E-06   944   0.765E-03    0.472E-03
DAV:  11    -0.473117202510E+03   -0.28542E-04   -0.28727E-06   936   0.469E-03    0.195E-03
DAV:  12    -0.473117221957E+03   -0.19447E-04   -0.15909E-06   960   0.285E-03    0.130E-03
DAV:  13    -0.473117246717E+03   -0.24760E-04   -0.13926E-06   960   0.225E-03    0.793E-04
DAV:  14    -0.473117263549E+03   -0.16832E-04   -0.16388E-06   960   0.208E-03    0.703E-04
DAV:  15    -0.473117268017E+03   -0.44679E-05   -0.42250E-07   968   0.127E-03
  29 F= -.47311727E+03 E0= -.47311040E+03  d E =-.621344E+00
 curvature:  -6.22 expect dE=-0.252E+01 dE for cont linesearch -0.844E-04
 trial: gam= 0.73281 g(F)=  0.401E+00 g(S)=  0.455E-02 ort =-0.565E-02 (trialstep = 0.154E+01)
 search vector abs. value=  0.166E+01
 bond charge predicted
       N       E                     dE             d eps       ncg     rms          rms(c)
DAV:   1    -0.473365673332E+03   -0.24841E+00   -0.16662E+02  1376   0.308E+01    0.243E+00
DAV:   2    -0.473536794728E+03   -0.17112E+00   -0.23341E+00  1608   0.404E+00    0.140E+00
DAV:   3    -0.473526856462E+03    0.99383E-02   -0.12018E-01  1616   0.112E+00    0.942E-01
DAV:   4    -0.473523567500E+03    0.32890E-02   -0.27137E-02  1592   0.515E-01    0.539E-01
DAV:   5    -0.473523247951E+03    0.31955E-03   -0.67015E-03  1544   0.272E-01    0.165E-01
DAV:   6    -0.473523397442E+03   -0.14949E-03   -0.21961E-03  1544   0.138E-01    0.797E-02
DAV:   7    -0.473523446170E+03   -0.48729E-04   -0.37640E-04  1576   0.557E-02    0.532E-02
DAV:   8    -0.473523531455E+03   -0.85285E-04   -0.92786E-05  1480   0.310E-02    0.181E-02
DAV:   9    -0.473523586321E+03   -0.54866E-04   -0.22279E-05  1104   0.152E-02    0.967E-03
DAV:  10    -0.473523622442E+03   -0.36121E-04   -0.55397E-06   936   0.755E-03    0.530E-03
DAV:  11    -0.473523672385E+03   -0.49943E-04   -0.41740E-06   960   0.553E-03    0.231E-03
DAV:  12    -0.473523711713E+03   -0.39328E-04   -0.36923E-06   960   0.412E-03    0.209E-03
DAV:  13    -0.473523739911E+03   -0.28197E-04   -0.23228E-06   968   0.310E-03    0.142E-03
DAV:  14    -0.473523761104E+03   -0.21193E-04   -0.24330E-06   952   0.256E-03    0.735E-04
DAV:  15    -0.473523767561E+03   -0.64568E-05   -0.78614E-07   968   0.167E-03
  30 F= -.47352377E+03 E0= -.47351801E+03  d E =-.406500E+00
 trial-energy change:   -0.406500  1 .order   -0.407593   -0.618276   -0.196910
 step:   2.2768(harm=  2.2598)  dis= 0.11064  next Energy=  -473.570742 (dE=-0.453E+00)
 bond charge predicted
       N       E                     dE             d eps       ncg     rms          rms(c)
DAV:   1    -0.473535231447E+03   -0.11470E-01   -0.37874E+01  1376   0.147E+01    0.111E+00
DAV:   2    -0.473572852768E+03   -0.37621E-01   -0.51261E-01  1592   0.190E+00    0.648E-01
DAV:   3    -0.473570665184E+03    0.21876E-02   -0.25880E-02  1616   0.521E-01    0.430E-01
DAV:   4    -0.473570053885E+03    0.61130E-03   -0.61187E-03  1576   0.246E-01    0.234E-01
DAV:   5    -0.473570034849E+03    0.19036E-04   -0.12035E-03  1560   0.120E-01    0.722E-02
DAV:   6    -0.473570073604E+03   -0.38755E-04   -0.31962E-04  1568   0.547E-02    0.337E-02
DAV:   7    -0.473570085872E+03   -0.12269E-04   -0.51842E-05  1160   0.217E-02    0.215E-02
DAV:   8    -0.473570110824E+03   -0.24952E-04   -0.18960E-05   960   0.141E-02    0.706E-03
DAV:   9    -0.473570124715E+03   -0.13891E-04   -0.48641E-06   952   0.717E-03    0.425E-03
DAV:  10    -0.473570136954E+03   -0.12238E-04   -0.17459E-06   920   0.408E-03    0.236E-03
DAV:  11    -0.473570152022E+03   -0.15068E-04   -0.14081E-06   928   0.310E-03    0.120E-03
DAV:  12    -0.473570160492E+03   -0.84700E-05   -0.70796E-07   952   0.189E-03
  31 F= -.47357016E+03 E0= -.47356468E+03  d E =-.452892E+00
 curvature:  -4.68 expect dE=-0.120E+01 dE for cont linesearch -0.605E-05
 trial: gam= 0.61239 g(F)=  0.253E+00 g(S)=  0.197E-02 ort =-0.147E-02 (trialstep = 0.169E+01)
 search vector abs. value=  0.877E+00
 bond charge predicted
       N       E                     dE             d eps       ncg     rms          rms(c)
DAV:   1    -0.473777954762E+03   -0.20780E+00   -0.97695E+01  1376   0.244E+01    0.188E+00
DAV:   2    -0.473883398711E+03   -0.10544E+00   -0.14052E+00  1624   0.312E+00    0.108E+00
DAV:   3    -0.473875869671E+03    0.75290E-02   -0.60517E-02  1664   0.791E-01    0.689E-01
DAV:   4    -0.473874036809E+03    0.18329E-02   -0.15557E-02  1544   0.384E-01    0.316E-01
DAV:   5    -0.473874048724E+03   -0.11915E-04   -0.27012E-03  1584   0.183E-01    0.101E-01
DAV:   6    -0.473874141612E+03   -0.92888E-04   -0.59824E-04  1568   0.752E-02    0.498E-02
DAV:   7    -0.473874173742E+03   -0.32130E-04   -0.72674E-05  1400   0.271E-02    0.276E-02
DAV:   8    -0.473874234786E+03   -0.61044E-04   -0.31079E-05  1120   0.176E-02    0.735E-03
DAV:   9    -0.473874272181E+03   -0.37395E-04   -0.68576E-06   960   0.877E-03    0.446E-03
DAV:  10    -0.473874325396E+03   -0.53215E-04   -0.39214E-06   936   0.558E-03    0.228E-03
DAV:  11    -0.473874366919E+03   -0.41524E-04   -0.35967E-06   944   0.409E-03    0.175E-03
DAV:  12    -0.473874384301E+03   -0.17382E-04   -0.14196E-06   952   0.257E-03    0.144E-03
DAV:  13    -0.473874398385E+03   -0.14084E-04   -0.10694E-06   888   0.187E-03    0.762E-04
DAV:  14    -0.473874408978E+03   -0.10593E-04   -0.90709E-07   928   0.144E-03    0.478E-04
DAV:  15    -0.473874412318E+03   -0.33397E-05   -0.28855E-07   936   0.918E-04
  32 F= -.47387441E+03 E0= -.47386909E+03  d E =-.304252E+00
 trial-energy change:   -0.304252  1 .order   -0.303784   -0.429354   -0.178213
 step:   2.8848(harm=  2.8848)  dis= 0.07486  next Energy=  -473.937175 (dE=-0.367E+00)
 bond charge predicted
       N       E                     dE             d eps       ncg     rms          rms(c)
DAV:   1    -0.473888590547E+03   -0.14182E-01   -0.49101E+01  1376   0.173E+01    0.132E+00
DAV:   2    -0.473941044160E+03   -0.52454E-01   -0.69970E-01  1592   0.220E+00    0.764E-01
DAV:   3    -0.473937306057E+03    0.37381E-02   -0.30430E-02  1680   0.560E-01    0.485E-01
DAV:   4    -0.473936490136E+03    0.81592E-03   -0.78235E-03  1528   0.277E-01    0.222E-01
DAV:   5    -0.473936502253E+03   -0.12117E-04   -0.13300E-03  1568   0.132E-01    0.729E-02
DAV:   6    -0.473936550086E+03   -0.47833E-04   -0.28244E-04  1536   0.536E-02    0.356E-02
DAV:   7    -0.473936568606E+03   -0.18520E-04   -0.33043E-05  1072   0.200E-02    0.198E-02
DAV:   8    -0.473936604291E+03   -0.35685E-04   -0.18971E-05   960   0.141E-02    0.540E-03
DAV:   9    -0.473936624796E+03   -0.20504E-04   -0.44194E-06   936   0.677E-03    0.347E-03
DAV:  10    -0.473936649594E+03   -0.24799E-04   -0.22943E-06   904   0.417E-03    0.181E-03
DAV:  11    -0.473936679596E+03   -0.30002E-04   -0.20152E-06   924   0.295E-03    0.131E-03
DAV:  12    -0.473936690205E+03   -0.10609E-04   -0.80263E-07   952   0.187E-03    0.103E-03
DAV:  13    -0.473936700896E+03   -0.10691E-04   -0.81623E-07   888   0.154E-03    0.531E-04
DAV:  14    -0.473936706746E+03   -0.58506E-05   -0.47562E-07   936   0.110E-03
  33 F= -.47393671E+03 E0= -.47393128E+03  d E =-.366546E+00
 curvature:  -4.97 expect dE=-0.132E+01 dE for cont linesearch -0.241E-04
 trial: gam= 1.03016 g(F)=  0.263E+00 g(S)=  0.171E-02 ort =-0.206E-02 (trialstep = 0.142E+01)
 search vector abs. value=  0.119E+01
 bond charge predicted
       N       E                     dE             d eps       ncg     rms          rms(c)
DAV:   1    -0.474118532417E+03   -0.18183E+00   -0.94089E+01  1376   0.242E+01    0.175E+00
DAV:   2    -0.474223213780E+03   -0.10468E+00   -0.13694E+00  1640   0.304E+00    0.106E+00
DAV:   3    -0.474216880865E+03    0.63329E-02   -0.56351E-02  1672   0.732E-01    0.683E-01
DAV:   4    -0.474215461411E+03    0.14195E-02   -0.13103E-02  1560   0.358E-01    0.321E-01
DAV:   5    -0.474215701094E+03   -0.23968E-03   -0.25033E-03  1632   0.179E-01    0.927E-02
DAV:   6    -0.474215795333E+03   -0.94239E-04   -0.52403E-04  1528   0.722E-02    0.494E-02
DAV:   7    -0.474215811982E+03   -0.16649E-04   -0.57438E-05  1384   0.262E-02    0.264E-02
DAV:   8    -0.474215846110E+03   -0.34128E-04   -0.25634E-05   984   0.160E-02    0.648E-03
DAV:   9    -0.474215862245E+03   -0.16135E-04   -0.50936E-06   960   0.752E-03    0.388E-03
DAV:  10    -0.474215881321E+03   -0.19075E-04   -0.21961E-06   864   0.463E-03    0.194E-03
DAV:  11    -0.474215901115E+03   -0.19795E-04   -0.18547E-06   916   0.339E-03    0.131E-03
DAV:  12    -0.474215912626E+03   -0.11511E-04   -0.94060E-07   928   0.210E-03    0.984E-04
DAV:  13    -0.474215924283E+03   -0.11657E-04   -0.98240E-07   900   0.165E-03    0.557E-04
DAV:  14    -0.474215930768E+03   -0.64850E-05   -0.63447E-07   932   0.125E-03
  34 F= -.47421593E+03 E0= -.47421189E+03  d E =-.279224E+00
 trial-energy change:   -0.279224  1 .order   -0.278999   -0.372396   -0.185603
 step:   2.8291(harm=  2.8291)  dis= 0.06944  next Energy=  -474.307917 (dE=-0.371E+00)
 bond charge predicted
       N       E                     dE             d eps       ncg     rms          rms(c)
DAV:   1    -0.474212174816E+03    0.37495E-02   -0.92877E+01  1376   0.241E+01    0.174E+00
DAV:   2    -0.474314974678E+03   -0.10280E+00   -0.13490E+00  1632   0.303E+00    0.105E+00
DAV:   3    -0.474308800331E+03    0.61743E-02   -0.56116E-02  1664   0.732E-01    0.678E-01
DAV:   4    -0.474307470564E+03    0.13298E-02   -0.12921E-02  1568   0.357E-01    0.321E-01
DAV:   5    -0.474307681730E+03   -0.21117E-03   -0.24760E-03  1632   0.180E-01    0.927E-02
DAV:   6    -0.474307776077E+03   -0.94347E-04   -0.51606E-04  1496   0.729E-02    0.479E-02
DAV:   7    -0.474307794150E+03   -0.18074E-04   -0.57584E-05  1376   0.262E-02    0.260E-02
DAV:   8    -0.474307830455E+03   -0.36305E-04   -0.26310E-05   984   0.164E-02    0.647E-03
DAV:   9    -0.474307848127E+03   -0.17672E-04   -0.52037E-06   968   0.764E-03    0.398E-03
DAV:  10    -0.474307870134E+03   -0.22007E-04   -0.23594E-06   872   0.482E-03    0.193E-03
DAV:  11    -0.474307893551E+03   -0.23417E-04   -0.21883E-06   932   0.355E-03    0.139E-03
DAV:  12    -0.474307906314E+03   -0.12763E-04   -0.10126E-06   960   0.222E-03    0.105E-03
DAV:  13    -0.474307919262E+03   -0.12948E-04   -0.11139E-06   904   0.173E-03    0.543E-04
DAV:  14    -0.474307926376E+03   -0.71143E-05   -0.67781E-07   932   0.130E-03
  35 F= -.47430793E+03 E0= -.47430434E+03  d E =-.371220E+00
 curvature:  -6.42 expect dE=-0.145E+01 dE for cont linesearch -0.206E-05
 trial: gam= 0.82751 g(F)=  0.223E+00 g(S)=  0.271E-02 ort =-0.619E-03 (trialstep = 0.170E+01)
 search vector abs. value=  0.104E+01
 bond charge predicted
       N       E                     dE             d eps       ncg     rms          rms(c)
DAV:   1    -0.474435971365E+03   -0.12805E+00   -0.11771E+02  1376   0.274E+01    0.205E+00
DAV:   2    -0.474575239309E+03   -0.13927E+00   -0.18584E+00  1612   0.356E+00    0.126E+00
DAV:   3    -0.474567135402E+03    0.81039E-02   -0.79484E-02  1640   0.850E-01    0.816E-01
DAV:   4    -0.474564281430E+03    0.28540E-02   -0.17623E-02  1584   0.424E-01    0.395E-01
DAV:   5    -0.474564428615E+03   -0.14719E-03   -0.37984E-03  1560   0.205E-01    0.113E-01
DAV:   6    -0.474564580259E+03   -0.15164E-03   -0.79364E-04  1616   0.801E-02    0.645E-02
DAV:   7    -0.474564634173E+03   -0.53914E-04   -0.91428E-05  1488   0.307E-02    0.307E-02
DAV:   8    -0.474564715332E+03   -0.81159E-04   -0.40261E-05  1336   0.188E-02    0.932E-03
DAV:   9    -0.474564753821E+03   -0.38489E-04   -0.60493E-06   936   0.897E-03    0.585E-03
DAV:  10    -0.474564804807E+03   -0.50986E-04   -0.46518E-06   936   0.656E-03    0.273E-03
DAV:  11    -0.474564850988E+03   -0.46181E-04   -0.39152E-06   948   0.442E-03    0.207E-03
DAV:  12    -0.474564882237E+03   -0.31249E-04   -0.27322E-06   968   0.322E-03    0.158E-03
DAV:  13    -0.474564915937E+03   -0.33700E-04   -0.27660E-06   940   0.263E-03    0.880E-04
DAV:  14    -0.474564926334E+03   -0.10397E-04   -0.12348E-06   952   0.173E-03    0.574E-04
DAV:  15    -0.474564933031E+03   -0.66964E-05   -0.74365E-07   912   0.126E-03
  36 F= -.47456493E+03 E0= -.47456250E+03  d E =-.257007E+00
 trial-energy change:   -0.257007  1 .order   -0.256736   -0.382451   -0.131021
 step:   2.5875(harm=  2.5875)  dis= 0.05971  next Energy=  -474.598800 (dE=-0.291E+00)
 bond charge predicted
       N       E                     dE             d eps       ncg     rms          rms(c)
DAV:   1    -0.474564696419E+03    0.22992E-03   -0.31868E+01  1376   0.143E+01    0.104E+00
DAV:   2    -0.474601562232E+03   -0.36866E-01   -0.49487E-01  1612   0.183E+00    0.643E-01
DAV:   3    -0.474599227688E+03    0.23345E-02   -0.19855E-02  1620   0.426E-01    0.407E-01
DAV:   4    -0.474598620840E+03    0.60685E-03   -0.47656E-03  1576   0.217E-01    0.186E-01
DAV:   5    -0.474598683511E+03   -0.62671E-04   -0.89906E-04  1600   0.103E-01    0.541E-02
DAV:   6    -0.474598719596E+03   -0.36086E-04   -0.18553E-04  1512   0.401E-02    0.326E-02
DAV:   7    -0.474598737539E+03   -0.17942E-04   -0.19353E-05   952   0.163E-02    0.153E-02
DAV:   8    -0.474598765095E+03   -0.27557E-04   -0.12658E-05   912   0.108E-02    0.468E-03
DAV:   9    -0.474598777482E+03   -0.12387E-04   -0.28554E-06   944   0.532E-03    0.313E-03
DAV:  10    -0.474598796961E+03   -0.19479E-04   -0.19846E-06   896   0.418E-03    0.157E-03
DAV:  11    -0.474598815420E+03   -0.18459E-04   -0.19870E-06   928   0.297E-03    0.115E-03
DAV:  12    -0.474598823706E+03   -0.82864E-05   -0.77414E-07   944   0.186E-03
  37 F= -.47459882E+03 E0= -.47459668E+03  d E =-.290897E+00
 curvature:  -5.99 expect dE=-0.826E+00 dE for cont linesearch -0.459E-06
 trial: gam= 0.59211 g(F)=  0.137E+00 g(S)=  0.107E-02 ort =-0.282E-03 (trialstep = 0.188E+01)
 search vector abs. value=  0.502E+00
 bond charge predicted
       N       E                     dE             d eps       ncg     rms          rms(c)
DAV:   1    -0.474695683512E+03   -0.96868E-01   -0.66959E+01  1376   0.212E+01    0.158E+00
DAV:   2    -0.474777768402E+03   -0.82085E-01   -0.11003E+00  1664   0.271E+00    0.958E-01
DAV:   3    -0.474771638846E+03    0.61296E-02   -0.44301E-02  1640   0.647E-01    0.605E-01
DAV:   4    -0.474770538036E+03    0.11008E-02   -0.10303E-02  1648   0.316E-01    0.278E-01
DAV:   5    -0.474770833114E+03   -0.29508E-03   -0.19635E-03  1592   0.150E-01    0.803E-02
DAV:   6    -0.474770901415E+03   -0.68301E-04   -0.36658E-04  1544   0.606E-02    0.440E-02
DAV:   7    -0.474770922860E+03   -0.21445E-04   -0.43090E-05  1208   0.251E-02    0.201E-02
DAV:   8    -0.474770950489E+03   -0.27629E-04   -0.17263E-05   928   0.143E-02    0.586E-03
DAV:   9    -0.474770964481E+03   -0.13992E-04   -0.37739E-06   912   0.609E-03    0.379E-03
DAV:  10    -0.474770983079E+03   -0.18598E-04   -0.20033E-06   872   0.410E-03    0.173E-03
DAV:  11    -0.474770998963E+03   -0.15884E-04   -0.15074E-06   912   0.281E-03    0.113E-03
DAV:  12    -0.474771008487E+03   -0.95236E-05   -0.77312E-07   928   0.215E-03
  38 F= -.47477101E+03 E0= -.47476952E+03  d E =-.172185E+00
 trial-energy change:   -0.172185  1 .order   -0.172186   -0.258803   -0.085570
 step:   2.8062(harm=  2.8062)  dis= 0.04504  next Energy=  -474.792144 (dE=-0.193E+00)
 bond charge predicted
       N       E                     dE             d eps       ncg     rms          rms(c)
DAV:   1    -0.474774159661E+03   -0.31607E-02   -0.16317E+01  1376   0.105E+01    0.764E-01
DAV:   2    -0.474793820811E+03   -0.19661E-01   -0.26529E-01  1672   0.133E+00    0.471E-01
DAV:   3    -0.474792306527E+03    0.15143E-02   -0.10492E-02  1648   0.317E-01    0.293E-01
DAV:   4    -0.474792112286E+03    0.19424E-03   -0.25558E-03  1608   0.159E-01    0.133E-01
DAV:   5    -0.474792196864E+03   -0.84578E-04   -0.47304E-04  1632   0.754E-02    0.395E-02
DAV:   6    -0.474792214492E+03   -0.17628E-04   -0.85987E-05  1488   0.307E-02    0.222E-02
DAV:   7    -0.474792221399E+03   -0.69068E-05   -0.99919E-06   896   0.127E-02
  39 F= -.47479222E+03 E0= -.47479098E+03  d E =-.193398E+00
 curvature:  -5.12 expect dE=-0.649E+00 dE for cont linesearch -0.185E-06
 trial: gam= 0.90798 g(F)=  0.126E+00 g(S)=  0.428E-03 ort = 0.135E-03 (trialstep = 0.192E+01)
 search vector abs. value=  0.541E+00
 bond charge predicted
       N       E                     dE             d eps       ncg     rms          rms(c)
DAV:   1    -0.474867092539E+03   -0.74878E-01   -0.72913E+01  1376   0.227E+01    0.168E+00
DAV:   2    -0.474960717012E+03   -0.93624E-01   -0.12640E+00  1656   0.286E+00    0.103E+00
DAV:   3    -0.474952474008E+03    0.82430E-02   -0.43733E-02  1664   0.654E-01    0.643E-01
DAV:   4    -0.474950996074E+03    0.14779E-02   -0.13511E-02  1552   0.358E-01    0.263E-01
DAV:   5    -0.474951364972E+03   -0.36890E-03   -0.23571E-03  1736   0.169E-01    0.971E-02
DAV:   6    -0.474951461137E+03   -0.96164E-04   -0.39373E-04  1504   0.642E-02    0.536E-02
DAV:   7    -0.474951510251E+03   -0.49114E-04   -0.59520E-05  1360   0.299E-02    0.190E-02
DAV:   8    -0.474951553728E+03   -0.43477E-04   -0.18712E-05   968   0.150E-02    0.626E-03
DAV:   9    -0.474951579782E+03   -0.26054E-04   -0.49093E-06   944   0.733E-03    0.419E-03
DAV:  10    -0.474951620743E+03   -0.40961E-04   -0.42466E-06   928   0.629E-03    0.176E-03
DAV:  11    -0.474951650240E+03   -0.29497E-04   -0.35132E-06   968   0.464E-03    0.169E-03
DAV:  12    -0.474951671171E+03   -0.20930E-04   -0.22963E-06   896   0.388E-03    0.109E-03
DAV:  13    -0.474951679717E+03   -0.85468E-05   -0.12752E-06   960   0.232E-03
  40 F= -.47495168E+03 E0= -.47495022E+03  d E =-.159458E+00
 trial-energy change:   -0.159458  1 .order   -0.159320   -0.243269   -0.075371
 step:   2.7753(harm=  2.7753)  dis= 0.04769  next Energy=  -474.968458 (dE=-0.176E+00)
 bond charge predicted
       N       E                     dE             d eps       ncg     rms          rms(c)
DAV:   1    -0.474951821603E+03   -0.15043E-03   -0.14701E+01  1376   0.102E+01    0.736E-01
DAV:   2    -0.474970264213E+03   -0.18443E-01   -0.25070E-01  1648   0.127E+00    0.461E-01
DAV:   3    -0.474968621171E+03    0.16430E-02   -0.87686E-03  1656   0.295E-01    0.282E-01
DAV:   4    -0.474968423144E+03    0.19803E-03   -0.28294E-03  1552   0.164E-01    0.113E-01
DAV:   5    -0.474968499051E+03   -0.75908E-04   -0.46912E-04  1720   0.778E-02    0.429E-02
DAV:   6    -0.474968520120E+03   -0.21068E-04   -0.80211E-05  1432   0.295E-02    0.246E-02
DAV:   7    -0.474968533290E+03   -0.13171E-04   -0.11854E-05   928   0.141E-02    0.919E-03
DAV:   8    -0.474968546431E+03   -0.13140E-04   -0.63173E-06   928   0.788E-03    0.311E-03
DAV:   9    -0.474968553291E+03   -0.68603E-05   -0.13766E-06   920   0.392E-03
  41 F= -.47496855E+03 E0= -.47496694E+03  d E =-.176332E+00
 curvature:  -5.91 expect dE=-0.521E+00 dE for cont linesearch -0.179E-06
 trial: gam= 0.69781 g(F)=  0.875E-01 g(S)=  0.550E-03 ort =-0.128E-03 (trialstep = 0.209E+01)
 search vector abs. value=  0.351E+00
 bond charge predicted
       N       E                     dE             d eps       ncg     rms          rms(c)
DAV:   1    -0.475018857188E+03   -0.50311E-01   -0.54280E+01  1376   0.198E+01    0.154E+00
DAV:   2    -0.475092816818E+03   -0.73960E-01   -0.10003E+00  1644   0.253E+00    0.918E-01
DAV:   3    -0.475086118941E+03    0.66979E-02   -0.35006E-02  1648   0.579E-01    0.583E-01
DAV:   4    -0.475085128143E+03    0.99080E-03   -0.10296E-02  1592   0.304E-01    0.256E-01
DAV:   5    -0.475085521250E+03   -0.39311E-03   -0.17681E-03  1760   0.145E-01    0.832E-02
DAV:   6    -0.475085614123E+03   -0.92873E-04   -0.30306E-04  1488   0.585E-02    0.424E-02
DAV:   7    -0.475085661524E+03   -0.47402E-04   -0.44408E-05  1264   0.240E-02    0.172E-02
DAV:   8    -0.475085708792E+03   -0.47268E-04   -0.13518E-05   900   0.127E-02    0.578E-03
DAV:   9    -0.475085731490E+03   -0.22697E-04   -0.47076E-06   928   0.611E-03    0.375E-03
DAV:  10    -0.475085760192E+03   -0.28702E-04   -0.29062E-06   904   0.422E-03    0.158E-03
DAV:  11    -0.475085782231E+03   -0.22039E-04   -0.24378E-06   928   0.297E-03    0.129E-03
DAV:  12    -0.475085798635E+03   -0.16404E-04   -0.16589E-06   904   0.249E-03    0.905E-04
DAV:  13    -0.475085812586E+03   -0.13951E-04   -0.18526E-06   928   0.217E-03    0.516E-04
DAV:  14    -0.475085817941E+03   -0.53546E-05   -0.78974E-07   944   0.141E-03
  42 F= -.47508582E+03 E0= -.47508419E+03  d E =-.117265E+00
 trial-energy change:   -0.117265  1 .order   -0.117226   -0.183676   -0.050775
 step:   2.8850(harm=  2.8850)  dis= 0.03789  next Energy=  -475.095478 (dE=-0.127E+00)
 bond charge predicted
       N       E                     dE             d eps       ncg     rms          rms(c)
DAV:   1    -0.475085993288E+03   -0.18070E-03   -0.79276E+00  1376   0.755E+00    0.574E-01
DAV:   2    -0.475096573419E+03   -0.10580E-01   -0.14391E-01  1644   0.960E-01    0.348E-01
DAV:   3    -0.475095599677E+03    0.97374E-03   -0.50673E-03  1648   0.222E-01    0.217E-01
DAV:   4    -0.475095513839E+03    0.85838E-04   -0.15466E-03  1552   0.118E-01    0.929E-02
DAV:   5    -0.475095570420E+03   -0.56581E-04   -0.25376E-04  1776   0.554E-02    0.305E-02
DAV:   6    -0.475095583470E+03   -0.13050E-04   -0.41557E-05  1232   0.221E-02    0.161E-02
DAV:   7    -0.475095591219E+03   -0.77487E-05   -0.66971E-06   872   0.964E-03
  43 F= -.47509559E+03 E0= -.47509393E+03  d E =-.127038E+00
 curvature:  -5.76 expect dE=-0.455E+00 dE for cont linesearch -0.844E-06
 trial: gam= 0.88879 g(F)=  0.782E-01 g(S)=  0.819E-03 ort = 0.227E-03 (trialstep = 0.221E+01)
 search vector abs. value=  0.357E+00
 bond charge predicted
       N       E                     dE             d eps       ncg     rms          rms(c)
DAV:   1    -0.475147354599E+03   -0.51771E-01   -0.62522E+01  1376   0.211E+01    0.165E+00
DAV:   2    -0.475231258631E+03   -0.83904E-01   -0.11324E+00  1600   0.269E+00    0.951E-01
DAV:   3    -0.475224711958E+03    0.65467E-02   -0.40211E-02  1672   0.602E-01    0.605E-01
DAV:   4    -0.475223778832E+03    0.93313E-03   -0.10548E-02  1624   0.319E-01    0.267E-01
DAV:   5    -0.475224270314E+03   -0.49148E-03   -0.18355E-03  1640   0.149E-01    0.854E-02
DAV:   6    -0.475224387366E+03   -0.11705E-03   -0.33252E-04  1496   0.605E-02    0.414E-02
DAV:   7    -0.475224425591E+03   -0.38225E-04   -0.46745E-05  1264   0.243E-02    0.189E-02
DAV:   8    -0.475224461499E+03   -0.35908E-04   -0.13499E-05   936   0.125E-02    0.554E-03
DAV:   9    -0.475224480050E+03   -0.18551E-04   -0.40070E-06   952   0.552E-03    0.363E-03
DAV:  10    -0.475224504098E+03   -0.24048E-04   -0.23518E-06   896   0.364E-03    0.128E-03
DAV:  11    -0.475224519918E+03   -0.15820E-04   -0.15883E-06   936   0.240E-03    0.108E-03
DAV:  12    -0.475224532216E+03   -0.12299E-04   -0.11371E-06   928   0.229E-03    0.563E-04
DAV:  13    -0.475224539855E+03   -0.76386E-05   -0.95890E-07   952   0.160E-03
  44 F= -.47522454E+03 E0= -.47522221E+03  d E =-.128949E+00
 trial-energy change:   -0.128949  1 .order   -0.129013   -0.175198   -0.082828
[...]
DAV:   6    -0.479812996822E+03   -0.87141E-05   -0.34141E-05  1080   0.185E-02
 186 F= -.47981300E+03 E0= -.47980615E+03  d E =-.402770E-02
 trial-energy change:   -0.004028  1 .order   -0.003968   -0.007277   -0.000659
 step:   2.9397(harm=  2.9546)  dis= 0.01454  next Energy=  -479.813028 (dE=-0.406E-02)
 bond charge predicted
       N       E                     dE             d eps       ncg     rms          rms(c)
DAV:   1    -0.479812962335E+03    0.25773E-04   -0.75504E-02  1416   0.735E-01    0.515E-02
DAV:   2    -0.479813058970E+03   -0.96636E-04   -0.12752E-03  1680   0.912E-02    0.321E-02
DAV:   3    -0.479813055363E+03    0.36070E-05   -0.37152E-05  1240   0.200E-02
 187 F= -.47981306E+03 E0= -.47980620E+03  d E =-.408624E-02
 curvature: -17.98 expect dE=-0.359E-01 dE for cont linesearch -0.599E-05
 trial: gam= 0.71826 g(F)=  0.198E-02 g(S)=  0.189E-04 ort = 0.105E-03 (trialstep = 0.274E+01)
 search vector abs. value=  0.192E-01
 bond charge predicted
       N       E                     dE             d eps       ncg     rms          rms(c)
DAV:   1    -0.479810431078E+03    0.26279E-02   -0.50796E+00  1400   0.602E+00    0.414E-01
DAV:   2    -0.479816589746E+03   -0.61587E-02   -0.84114E-02  1616   0.739E-01    0.267E-01
DAV:   3    -0.479816223122E+03    0.36662E-03   -0.27804E-03  1624   0.161E-01    0.163E-01
DAV:   4    -0.479816298161E+03   -0.75039E-04   -0.77486E-04  1540   0.828E-02    0.640E-02
DAV:   5    -0.479816356462E+03   -0.58301E-04   -0.12935E-04  1712   0.387E-02    0.191E-02
DAV:   6    -0.479816362660E+03   -0.61976E-05   -0.20278E-05  1040   0.143E-02
 188 F= -.47981636E+03 E0= -.47980936E+03  d E =-.330730E-02
 trial-energy change:   -0.003307  1 .order   -0.003260   -0.005672   -0.000847
 step:   3.1874(harm=  3.2185)  dis= 0.01139  next Energy=  -479.816432 (dE=-0.338E-02)
 bond charge predicted
       N       E                     dE             d eps       ncg     rms          rms(c)
DAV:   1    -0.479816297016E+03    0.59446E-04   -0.13785E-01  1408   0.992E-01    0.682E-02
DAV:   2    -0.479816468017E+03   -0.17100E-03   -0.22991E-03  1668   0.122E-01    0.435E-02
DAV:   3    -0.479816460283E+03    0.77334E-05   -0.72646E-05  1584   0.263E-02
 189 F= -.47981646E+03 E0= -.47980941E+03  d E =-.340492E-02
 curvature: -14.85 expect dE=-0.283E-01 dE for cont linesearch -0.312E-05
 trial: gam= 0.95115 g(F)=  0.190E-02 g(S)=  0.720E-05 ort = 0.635E-04 (trialstep = 0.280E+01)
 search vector abs. value=  0.194E-01
 bond charge predicted
       N       E                     dE             d eps       ncg     rms          rms(c)
DAV:   1    -0.479813088368E+03    0.33796E-02   -0.54510E+00  1400   0.623E+00    0.420E-01
DAV:   2    -0.479819625826E+03   -0.65375E-02   -0.88529E-02  1604   0.756E-01    0.277E-01
DAV:   3    -0.479819188909E+03    0.43692E-03   -0.28420E-03  1672   0.161E-01    0.164E-01
DAV:   4    -0.479819263888E+03   -0.74979E-04   -0.84277E-04  1576   0.870E-02    0.559E-02
DAV:   5    -0.479819315750E+03   -0.51862E-04   -0.13918E-04  1704   0.377E-02    0.209E-02
DAV:   6    -0.479819321557E+03   -0.58067E-05   -0.17299E-05   928   0.128E-02
 190 F= -.47981932E+03 E0= -.47981244E+03  d E =-.286127E-02
 trial-energy change:   -0.002861  1 .order   -0.002799   -0.005499   -0.000098
 step:   2.8466(harm=  2.8500)  dis= 0.00939  next Energy=  -479.819322 (dE=-0.286E-02)
 bond charge predicted
       N       E                     dE             d eps       ncg     rms          rms(c)
DAV:   1    -0.479819326867E+03   -0.11117E-04   -0.16444E-03  1428   0.109E-01    0.800E-03
DAV:   2    -0.479819331351E+03   -0.44843E-05   -0.29366E-05  1104   0.143E-02
 191 F= -.47981933E+03 E0= -.47981246E+03  d E =-.287107E-02
 curvature: -14.01 expect dE=-0.196E-01 dE for cont linesearch -0.130E-06
 trial: gam= 0.77570 g(F)=  0.140E-02 g(S)=  0.186E-05 ort = 0.134E-04 (trialstep = 0.281E+01)
 search vector abs. value=  0.131E-01
 bond charge predicted
       N       E                     dE             d eps       ncg     rms          rms(c)
DAV:   1    -0.479817379191E+03    0.19477E-02   -0.37631E+00  1408   0.516E+00    0.342E-01
DAV:   2    -0.479821655901E+03   -0.42767E-02   -0.59880E-02  1616   0.633E-01    0.225E-01
DAV:   3    -0.479821399291E+03    0.25661E-03   -0.21784E-03  1656   0.138E-01    0.134E-01
DAV:   4    -0.479821443253E+03   -0.43962E-04   -0.51047E-04  1544   0.684E-02    0.523E-02
DAV:   5    -0.479821484242E+03   -0.40989E-04   -0.94724E-05  1688   0.328E-02    0.163E-02
DAV:   6    -0.479821489326E+03   -0.50845E-05   -0.14872E-05   888   0.123E-02
 192 F= -.47982149E+03 E0= -.47981460E+03  d E =-.215798E-02
 trial-energy change:   -0.002158  1 .order   -0.002073   -0.003966   -0.000181
 step:   2.9265(harm=  2.9430)  dis= 0.00758  next Energy=  -479.821493 (dE=-0.216E-02)
 bond charge predicted
       N       E                     dE             d eps       ncg     rms          rms(c)
DAV:   1    -0.479821492489E+03   -0.82470E-05   -0.67404E-03  1416   0.219E-01    0.149E-02
DAV:   2    -0.479821502493E+03   -0.10004E-04   -0.11658E-04  1632   0.275E-02    0.949E-03
DAV:   3    -0.479821503422E+03   -0.92935E-06   -0.34329E-06   888   0.607E-03
 193 F= -.47982150E+03 E0= -.47981462E+03  d E =-.217207E-02
 curvature: -13.44 expect dE=-0.141E-01 dE for cont linesearch -0.174E-05
 trial: gam= 0.71297 g(F)=  0.104E-02 g(S)=  0.266E-05 ort = 0.412E-04 (trialstep = 0.283E+01)
 search vector abs. value=  0.776E-02
 bond charge predicted
       N       E                     dE             d eps       ncg     rms          rms(c)
DAV:   1    -0.479820581906E+03    0.92059E-03   -0.22895E+00  1400   0.401E+00    0.262E-01
DAV:   2    -0.479823235821E+03   -0.26539E-02   -0.36037E-02  1544   0.490E-01    0.173E-01
DAV:   3    -0.479823087240E+03    0.14858E-03   -0.12837E-03  1688   0.104E-01    0.103E-01
DAV:   4    -0.479823102416E+03   -0.15176E-04   -0.30308E-04  1576   0.532E-02    0.376E-02
DAV:   5    -0.479823123225E+03   -0.20809E-04   -0.58903E-05  1396   0.252E-02    0.124E-02
DAV:   6    -0.479823126041E+03   -0.28158E-05   -0.94026E-06   880   0.988E-03
 194 F= -.47982313E+03 E0= -.47981630E+03  d E =-.162262E-02
 trial-energy change:   -0.001623  1 .order   -0.001595   -0.003047   -0.000143
 step:   2.9722(harm=  2.9722)  dis= 0.00576  next Energy=  -479.823102 (dE=-0.160E-02)
 bond charge predicted
       N       E                     dE             d eps       ncg     rms          rms(c)
DAV:   1    -0.479823126600E+03   -0.33749E-05   -0.56719E-03  1392   0.200E-01    0.134E-02
DAV:   2    -0.479823135003E+03   -0.84029E-05   -0.96216E-05  1544   0.250E-02
 195 F= -.47982314E+03 E0= -.47981631E+03  d E =-.163158E-02
 curvature: -10.72 expect dE=-0.101E-01 dE for cont linesearch -0.781E-06
 trial: gam= 0.92839 g(F)=  0.940E-03 g(S)=  0.685E-05 ort =-0.238E-04 (trialstep = 0.286E+01)
 search vector abs. value=  0.759E-02
 bond charge predicted
       N       E                     dE             d eps       ncg     rms          rms(c)
DAV:   1    -0.479822114869E+03    0.10117E-02   -0.22882E+00  1400   0.399E+00    0.261E-01
DAV:   2    -0.479824780844E+03   -0.26660E-02   -0.36014E-02  1544   0.491E-01    0.172E-01
DAV:   3    -0.479824639694E+03    0.14115E-03   -0.13253E-03  1688   0.108E-01    0.102E-01
DAV:   4    -0.479824662166E+03   -0.22472E-04   -0.30178E-04  1556   0.545E-02    0.378E-02
DAV:   5    -0.479824682009E+03   -0.19843E-04   -0.59399E-05  1416   0.252E-02    0.131E-02
DAV:   6    -0.479824684811E+03   -0.28023E-05   -0.89638E-06   888   0.973E-03
 196 F= -.47982468E+03 E0= -.47981793E+03  d E =-.154981E-02
 trial-energy change:   -0.001550  1 .order   -0.001463   -0.002645   -0.000281
 step:   3.1339(harm=  3.1999)  dis= 0.00601  next Energy=  -479.824698 (dE=-0.156E-02)
 bond charge predicted
       N       E                     dE             d eps       ncg     rms          rms(c)
DAV:   1    -0.479824680420E+03    0.15893E-05   -0.21099E-02  1384   0.383E-01    0.251E-02
DAV:   2    -0.479824707874E+03   -0.27455E-04   -0.34748E-04  1632   0.477E-02    0.163E-02
DAV:   3    -0.479824707098E+03    0.77622E-06   -0.10024E-05   920   0.104E-02
 197 F= -.47982471E+03 E0= -.47981796E+03  d E =-.157210E-02
 curvature: -12.64 expect dE=-0.111E-01 dE for cont linesearch -0.188E-05
 trial: gam= 0.89222 g(F)=  0.870E-03 g(S)=  0.623E-05 ort = 0.336E-04 (trialstep = 0.291E+01)
 search vector abs. value=  0.698E-02
 bond charge predicted
       N       E                     dE             d eps       ncg     rms          rms(c)
DAV:   1    -0.479823766068E+03    0.94181E-03   -0.21542E+00  1400   0.386E+00    0.251E-01
DAV:   2    -0.479826351740E+03   -0.25857E-02   -0.34200E-02  1564   0.480E-01    0.166E-01
DAV:   3    -0.479826220758E+03    0.13098E-03   -0.12174E-03  1652   0.102E-01    0.989E-02
DAV:   4    -0.479826229575E+03   -0.88172E-05   -0.29909E-04  1572   0.545E-02    0.375E-02
DAV:   5    -0.479826246560E+03   -0.16985E-04   -0.54403E-05  1364   0.249E-02    0.130E-02
DAV:   6    -0.479826249404E+03   -0.28444E-05   -0.94761E-06   864   0.972E-03
 198 F= -.47982625E+03 E0= -.47981952E+03  d E =-.154231E-02
 trial-energy change:   -0.001542  1 .order   -0.001503   -0.002642   -0.000365
 step:   3.3826(harm=  3.3826)  dis= 0.00462  next Energy=  -479.826240 (dE=-0.153E-02)
 bond charge predicted
       N       E                     dE             d eps       ncg     rms          rms(c)
DAV:   1    -0.479826219520E+03    0.27039E-04   -0.55793E-02  1392   0.622E-01    0.406E-02
DAV:   2    -0.479826289948E+03   -0.70428E-04   -0.91286E-04  1616   0.780E-02    0.267E-02
DAV:   3    -0.479826287216E+03    0.27328E-05   -0.29688E-05  1120   0.166E-02
 199 F= -.47982629E+03 E0= -.47981955E+03  d E =-.158012E-02
 curvature: -13.03 expect dE=-0.123E-01 dE for cont linesearch -0.131E-05
 trial: gam= 1.11238 g(F)=  0.938E-03 g(S)=  0.769E-05 ort = 0.264E-04 (trialstep = 0.218E+01)
 search vector abs. value=  0.964E-02
 bond charge predicted
       N       E                     dE             d eps       ncg     rms          rms(c)
DAV:   1    -0.479825804372E+03    0.48558E-03   -0.16692E+00  1416   0.339E+00    0.216E-01
DAV:   2    -0.479827745316E+03   -0.19409E-02   -0.25534E-02  1508   0.415E-01    0.145E-01
DAV:   3    -0.479827642939E+03    0.10238E-03   -0.89352E-04  1688   0.895E-02    0.837E-02
DAV:   4    -0.479827658627E+03   -0.15688E-04   -0.24116E-04  1520   0.499E-02    0.284E-02
DAV:   5    -0.479827670611E+03   -0.11985E-04   -0.45048E-05  1280   0.217E-02    0.119E-02
DAV:   6    -0.479827673084E+03   -0.24730E-05   -0.67953E-06   896   0.782E-03
 200 F= -.47982767E+03 E0= -.47982087E+03  d E =-.138587E-02
 trial-energy change:   -0.001386  1 .order   -0.001361   -0.002125   -0.000596
 step:   3.0279(harm=  3.0279)  dis= 0.00564  next Energy=  -479.827764 (dE=-0.148E-02)
 bond charge predicted
       N       E                     dE             d eps       ncg     rms          rms(c)
DAV:   1    -0.479827518871E+03    0.15174E-03   -0.25524E-01  1424   0.133E+00    0.840E-02
DAV:   2    -0.479827821863E+03   -0.30299E-03   -0.39529E-03  1536   0.163E-01    0.560E-02
DAV:   3    -0.479827807127E+03    0.14736E-04   -0.13538E-04  1696   0.351E-02    0.329E-02
DAV:   4    -0.479827810025E+03   -0.28978E-05   -0.36116E-05  1236   0.200E-02
 201 F= -.47982781E+03 E0= -.47982099E+03  d E =-.152281E-02
 curvature: -14.96 expect dE=-0.134E-01 dE for cont linesearch -0.254E-05
 trial: gam= 0.94069 g(F)=  0.887E-03 g(S)=  0.117E-04 ort =-0.405E-04 (trialstep = 0.235E+01)
 search vector abs. value=  0.935E-02
 bond charge predicted
       N       E                     dE             d eps       ncg     rms          rms(c)
DAV:   1    -0.479827079244E+03    0.72788E-03   -0.19133E+00  1440   0.362E+00    0.229E-01
DAV:   2    -0.479829292885E+03   -0.22136E-02   -0.28886E-02  1512   0.443E-01    0.153E-01
DAV:   3    -0.479829185764E+03    0.10712E-03   -0.98840E-04  1688   0.921E-02    0.893E-02
DAV:   4    -0.479829205167E+03   -0.19403E-04   -0.26309E-04  1556   0.514E-02    0.322E-02
DAV:   5    -0.479829220475E+03   -0.15307E-04   -0.48449E-05  1320   0.233E-02    0.122E-02
DAV:   6    -0.479829222931E+03   -0.24566E-05   -0.81906E-06   848   0.866E-03
 202 F= -.47982922E+03 E0= -.47982234E+03  d E =-.141291E-02
 trial-energy change:   -0.001413  1 .order   -0.001305   -0.002020   -0.000590
 step:   2.9650(harm=  3.3169)  dis= 0.00543  next Energy=  -479.829302 (dE=-0.149E-02)
 bond charge predicted
       N       E                     dE             d eps       ncg     rms          rms(c)
DAV:   1    -0.479829185523E+03    0.34952E-04   -0.13252E-01  1440   0.952E-01    0.600E-02
DAV:   2    -0.479829341271E+03   -0.15575E-03   -0.20265E-03  1520   0.117E-01    0.400E-02
DAV:   3    -0.479829334650E+03    0.66208E-05   -0.67147E-05  1552   0.242E-02
 203 F= -.47982933E+03 E0= -.47982243E+03  d E =-.152463E-02
 curvature: -15.65 expect dE=-0.957E-02 dE for cont linesearch -0.154E-04
 trial: gam= 0.61216 g(F)=  0.606E-03 g(S)=  0.521E-05 ort = 0.960E-04 (trialstep = 0.247E+01)
 search vector abs. value=  0.423E-02
 bond charge predicted
       N       E                     dE             d eps       ncg     rms          rms(c)
DAV:   1    -0.479829410698E+03   -0.69426E-04   -0.98279E-01  1440   0.258E+00    0.171E-01
DAV:   2    -0.479830457352E+03   -0.10467E-02   -0.14694E-02  1548   0.317E-01    0.112E-01
DAV:   3    -0.479830397458E+03    0.59894E-04   -0.53929E-04  1656   0.695E-02    0.650E-02
DAV:   4    -0.479830417734E+03   -0.20276E-04   -0.13700E-04  1532   0.360E-02    0.243E-02
DAV:   5    -0.479830427881E+03   -0.10147E-04   -0.21605E-05  1036   0.163E-02    0.805E-03
DAV:   6    -0.479830429477E+03   -0.15959E-05   -0.51755E-06   876   0.661E-03
 204 F= -.47983043E+03 E0= -.47982340E+03  d E =-.109483E-02
 trial-energy change:   -0.001095  1 .order   -0.001070   -0.001657   -0.000483
 step:   3.4888(harm=  3.4888)  dis= 0.00449  next Energy=  -479.830504 (dE=-0.117E-02)
 bond charge predicted
       N       E                     dE             d eps       ncg     rms          rms(c)
DAV:   1    -0.479830361715E+03    0.66166E-04   -0.16727E-01  1440   0.106E+00    0.694E-02
DAV:   2    -0.479830547123E+03   -0.18541E-03   -0.25482E-03  1560   0.132E-01    0.451E-02
DAV:   3    -0.479830537461E+03    0.96622E-05   -0.89983E-05  1624   0.286E-02
 205 F= -.47983054E+03 E0= -.47982345E+03  d E =-.120281E-02
 curvature: -11.02 expect dE=-0.941E-02 dE for cont linesearch -0.418E-06
 trial: gam= 1.50086 g(F)=  0.842E-03 g(S)=  0.119E-04 ort = 0.127E-04 (trialstep = 0.109E+01)
 search vector abs. value=  0.104E-01
 bond charge predicted
       N       E                     dE             d eps       ncg     rms          rms(c)
DAV:   1    -0.479830883869E+03   -0.33675E-03   -0.46978E-01  1440   0.177E+00    0.117E-01
DAV:   2    -0.479831348387E+03   -0.46452E-03   -0.67456E-03  1536   0.213E-01    0.779E-02
DAV:   3    -0.479831327006E+03    0.21381E-04   -0.24469E-04  1664   0.464E-02    0.441E-02
DAV:   4    -0.479831342602E+03   -0.15596E-04   -0.66081E-05  1508   0.251E-02    0.163E-02
DAV:   5    -0.479831348325E+03   -0.57233E-05   -0.97745E-06   896   0.114E-02
 206 F= -.47983135E+03 E0= -.47982420E+03  d E =-.810865E-03
 trial-energy change:   -0.000811  1 .order   -0.000785   -0.000948   -0.000622
 step:   3.1603(harm=  3.1603)  dis= 0.00746  next Energy=  -479.831916 (dE=-0.138E-02)
 bond charge predicted
       N       E                     dE             d eps       ncg     rms          rms(c)
DAV:   1    -0.479830208144E+03    0.11345E-02   -0.17209E+00  1440   0.339E+00    0.216E-01
DAV:   2    -0.479832050880E+03   -0.18427E-02   -0.25299E-02  1544   0.411E-01    0.143E-01
DAV:   3    -0.479831956154E+03    0.94726E-04   -0.84005E-04  1664   0.865E-02    0.830E-02
DAV:   4    -0.479831990544E+03   -0.34390E-04   -0.23861E-04  1516   0.477E-02    0.305E-02
DAV:   5    -0.479832007943E+03   -0.17398E-04   -0.41446E-05  1312   0.220E-02    0.107E-02
DAV:   6    -0.479832010681E+03   -0.27384E-05   -0.71930E-06   868   0.823E-03
 207 F= -.47983201E+03 E0= -.47982479E+03  d E =-.147322E-02
 curvature: -18.89 expect dE=-0.130E-01 dE for cont linesearch -0.207E-05
 trial: gam= 0.68608 g(F)=  0.669E-03 g(S)=  0.182E-04 ort = 0.338E-04 (trialstep = 0.150E+01)
 search vector abs. value=  0.564E-02
 bond charge predicted
       N       E                     dE             d eps       ncg     rms          rms(c)
DAV:   1    -0.479832344853E+03   -0.33691E-03   -0.48566E-01  1440   0.179E+00    0.122E-01
DAV:   2    -0.479832855010E+03   -0.51016E-03   -0.73150E-03  1548   0.223E-01    0.783E-02
DAV:   3    -0.479832822268E+03    0.32742E-04   -0.26649E-04  1672   0.489E-02    0.450E-02
DAV:   4    -0.479832830948E+03   -0.86793E-05   -0.72622E-05  1536   0.269E-02
 208 F= -.47983283E+03 E0= -.47982560E+03  d E =-.820267E-03
 trial-energy change:   -0.000820  1 .order   -0.000761   -0.001066   -0.000457
 step:   2.1189(harm=  2.6250)  dis= 0.00348  next Energy=  -479.832929 (dE=-0.918E-03)
 bond charge predicted
       N       E                     dE             d eps       ncg     rms          rms(c)
DAV:   1    -0.479832941122E+03   -0.11885E-03   -0.82492E-02  1440   0.738E-01    0.535E-02
DAV:   2    -0.479833023135E+03   -0.82013E-04   -0.12170E-03  1600   0.915E-02    0.335E-02
DAV:   3    -0.479833019058E+03    0.40769E-05   -0.45536E-05  1372   0.210E-02
 209 F= -.47983302E+03 E0= -.47982574E+03  d E =-.100838E-02
 curvature:  -8.31 expect dE=-0.307E-02 dE for cont linesearch -0.797E-04
 ZBRENT: increasing intervall
 opt :   3.3550  next Energy=  -479.833218 (dE=-0.121E-02)
 bond charge predicted
       N       E                     dE             d eps       ncg     rms          rms(c)
DAV:   1    -0.479832807889E+03    0.21525E-03   -0.32789E-01  1440   0.147E+00    0.103E-01
DAV:   2    -0.479833129558E+03   -0.32167E-03   -0.48154E-03  1592   0.181E-01    0.663E-02
DAV:   3    -0.479833109407E+03    0.20151E-04   -0.18457E-04  1672   0.406E-02    0.373E-02
DAV:   4    -0.479833117132E+03   -0.77250E-05   -0.48494E-05  1456   0.220E-02
 210 F= -.47983312E+03 E0= -.47982585E+03  d E =-.110645E-02
 curvature: -20.76 expect dE=-0.172E-01 dE for cont linesearch -0.543E-04
 ZBRENT: bracketing found
 ZBRENT: interpolating
 opt :   2.9310  next Energy=  -479.833143 (dE=-0.113E-02)
 bond charge predicted
       N       E                     dE             d eps       ncg     rms          rms(c)
DAV:   1    -0.479833088481E+03    0.20926E-04   -0.38617E-02  1440   0.506E-01    0.324E-02
DAV:   2    -0.479833132236E+03   -0.43755E-04   -0.59333E-04  1572   0.632E-02    0.218E-02
DAV:   3    -0.479833129143E+03    0.30923E-05   -0.18359E-05  1040   0.133E-02
 211 F= -.47983313E+03 E0= -.47982584E+03  d E =-.111846E-02
 curvature:  -9.85 expect dE=-0.614E-02 dE for cont linesearch -0.119E-05
 trial: gam= 0.93795 g(F)=  0.622E-03 g(S)=  0.157E-05 ort = 0.261E-04 (trialstep = 0.179E+01)
 search vector abs. value=  0.564E-02
 bond charge predicted
       N       E                     dE             d eps       ncg     rms          rms(c)
DAV:   1    -0.479833368592E+03   -0.23636E-03   -0.69762E-01  1440   0.213E+00    0.139E-01
DAV:   2    -0.479834093644E+03   -0.72505E-03   -0.10122E-02  1556   0.258E-01    0.906E-02
DAV:   3    -0.479834041562E+03    0.52082E-04   -0.32679E-04  1684   0.553E-02    0.515E-02
DAV:   4    -0.479834051977E+03   -0.10414E-04   -0.10814E-04  1512   0.331E-02    0.168E-02
DAV:   5    -0.479834057575E+03   -0.55985E-05   -0.18192E-05  1040   0.148E-02
 212 F= -.47983406E+03 E0= -.47982676E+03  d E =-.928432E-03
 trial-energy change:   -0.000928  1 .order   -0.000910   -0.001158   -0.000661
 step:   4.1620(harm=  4.1620)  dis= 0.00662  next Energy=  -479.834478 (dE=-0.135E-02)
 reached required accuracy - stopping structural energy minimisation
