<?xml version="1.0" encoding="ISO-8859-1"?>
<modeling>
 <generator>
  <i name="program" type="string">vasp </i>
  <i name="version" type="string">6.3.2  </i>
  <i name="subversion" type="string">27Jun22 (build May 04 2024 18:40:40) complex                          parallel </i>
  <i name="platform" type="string">LinuxIFC </i>
  <i name="date" type="string">2024 09 03 </i>
  <i name="time" type="string">07:33:10 </i>
 </generator>
 <incar>
  <i type="string" name="SYSTEM">slab_Cel1-OPT</i>
  <i type="int" name="ISTART">     0</i>
  <i type="string" name="PREC">N</i>
  <i type="string" name="ALGO">N</i>
  <i type="int" name="ICHARG">     2</i>
  <i type="int" name="NELM">   200</i>
  <i type="int" name="IBRION">     2</i>
  <i name="EDIFF">      0.00001000</i>
  <i name="EDIFFG">     -0.05000000</i>
  <i type="int" name="NSW">  1000</i>
  <i type="int" name="ISIF">     3</i>
  <i name="ENCUT">    400.00000000</i>
  <i name="POTIM">      0.10000000</i>
  <i type="string" name="LREAL">AUTO</i>
  <i type="int" name="ISMEAR">     0</i>
  <i name="SIGMA">      0.10000000</i>
  <i type="logical" name="LWAVE"> F  </i>
  <i type="logical" name="LCHARG"> F  </i>
  <i type="logical" name="LELF"> F  </i>
  <i type="logical" name="LAECHG"> F  </i>
  <i type="logical" name="LDIPOL"> T  </i>
  <i type="int" name="IDIPOL">     3</i>
 </incar>
 <primitive_cell>
  <structure name="primitive_cell" >
   <crystal>
    <varray name="basis" >
     <v>      14.26590000       0.00000000       0.00000000 </v>
     <v>       0.00000000      12.35699650       0.00000000 </v>
     <v>       0.00000000       0.00000000      15.00000000 </v>
    </varray>
    <i name="volume">   2644.25514646 </i>
    <varray name="rec_basis" >
     <v>       0.07009722       0.00000000       0.00000000 </v>
     <v>       0.00000000       0.08092581       0.00000000 </v>
     <v>       0.00000000       0.00000000       0.06666667 </v>
    </varray>
   </crystal>
   <varray name="positions" >
    <v>       0.06537593       0.40364000       0.13333000 </v>
    <v>       0.98097748       0.23494000       0.13333000 </v>
    <v>       0.22593437       0.39820000       0.13333000 </v>
    <v>       0.81543575       0.57710000       0.13333000 </v>
    <v>       0.14973747       0.23490000       0.13333000 </v>
    <v>       0.90517930       0.39797000       0.13333000 </v>
    <v>       0.56537593       0.40364000       0.13333000 </v>
    <v>       0.48097748       0.23494000       0.13333000 </v>
    <v>       0.72593437       0.39820000       0.13333000 </v>
    <v>       0.31543575       0.57710000       0.13333000 </v>
    <v>       0.64973747       0.23490000       0.13333000 </v>
    <v>       0.40517930       0.39797000       0.13333000 </v>
    <v>       0.81551954       0.90364000       0.13333000 </v>
    <v>       0.73112108       0.73494000       0.13333000 </v>
    <v>       0.97607797       0.89820000       0.13333000 </v>
    <v>       0.06529214       0.07710000       0.13333000 </v>
    <v>       0.89988107       0.73490000       0.13333000 </v>
    <v>       0.65532291       0.89797000       0.13333000 </v>
    <v>       0.31551954       0.90364000       0.13333000 </v>
    <v>       0.23112108       0.73494000       0.13333000 </v>
    <v>       0.47607797       0.89820000       0.13333000 </v>
    <v>       0.56529214       0.07710000       0.13333000 </v>
    <v>       0.39988107       0.73490000       0.13333000 </v>
    <v>       0.15532291       0.89797000       0.13333000 </v>
    <v>       0.98400093       0.45588000       0.13333000 </v>
    <v>       0.90111835       0.29021000       0.13333000 </v>
    <v>       0.14710595       0.45595000       0.13333000 </v>
    <v>       0.14840652       0.12714000       0.13333000 </v>
    <v>       0.98256150       0.12707000       0.13333000 </v>
    <v>       0.22992331       0.29008000       0.13333000 </v>
    <v>       0.06536362       0.29116000       0.13333000 </v>
    <v>       0.81553147       0.45774000       0.13333000 </v>
    <v>       0.48400093       0.45588000       0.13333000 </v>
    <v>       0.40111835       0.29021000       0.13333000 </v>
    <v>       0.64710595       0.45595000       0.13333000 </v>
    <v>       0.64840652       0.12714000       0.13333000 </v>
    <v>       0.48256150       0.12707000       0.13333000 </v>
    <v>       0.72992331       0.29008000       0.13333000 </v>
    <v>       0.56536362       0.29116000       0.13333000 </v>
    <v>       0.31553147       0.45774000       0.13333000 </v>
    <v>       0.73414454       0.95588000       0.13333000 </v>
    <v>       0.65126196       0.79021000       0.13333000 </v>
    <v>       0.89724956       0.95595000       0.13333000 </v>
    <v>       0.89855012       0.62714000       0.13333000 </v>
    <v>       0.73270510       0.62707000       0.13333000 </v>
    <v>       0.98006692       0.79008000       0.13333000 </v>
    <v>       0.81550723       0.79116000       0.13333000 </v>
    <v>       0.56567507       0.95774000       0.13333000 </v>
    <v>       0.23414454       0.95588000       0.13333000 </v>
    <v>       0.15126196       0.79021000       0.13333000 </v>
    <v>       0.39724956       0.95595000       0.13333000 </v>
    <v>       0.39855012       0.62714000       0.13333000 </v>
    <v>       0.23270510       0.62707000       0.13333000 </v>
    <v>       0.48006692       0.79008000       0.13333000 </v>
    <v>       0.31550723       0.79116000       0.13333000 </v>
    <v>       0.06567507       0.95774000       0.13333000 </v>
    <v>       0.51318019       0.65760505       0.14333042 </v>
    <v>       0.63498818       0.58816656       0.13951958 </v>
   </varray>
  </structure>
  <varray name="primitive_index" >
   <v type="int" >        1 </v>
   <v type="int" >        2 </v>
   <v type="int" >        3 </v>
   <v type="int" >        4 </v>
   <v type="int" >        5 </v>
   <v type="int" >        6 </v>
   <v type="int" >        7 </v>
   <v type="int" >        8 </v>
   <v type="int" >        9 </v>
   <v type="int" >       10 </v>
   <v type="int" >       11 </v>
   <v type="int" >       12 </v>
   <v type="int" >       13 </v>
   <v type="int" >       14 </v>
   <v type="int" >       15 </v>
   <v type="int" >       16 </v>
   <v type="int" >       17 </v>
   <v type="int" >       18 </v>
   <v type="int" >       19 </v>
   <v type="int" >       20 </v>
   <v type="int" >       21 </v>
   <v type="int" >       22 </v>
   <v type="int" >       23 </v>
   <v type="int" >       24 </v>
   <v type="int" >       25 </v>
   <v type="int" >       26 </v>
   <v type="int" >       27 </v>
   <v type="int" >       28 </v>
   <v type="int" >       29 </v>
   <v type="int" >       30 </v>
   <v type="int" >       31 </v>
   <v type="int" >       32 </v>
   <v type="int" >       33 </v>
   <v type="int" >       34 </v>
   <v type="int" >       35 </v>
   <v type="int" >       36 </v>
   <v type="int" >       37 </v>
   <v type="int" >       38 </v>
   <v type="int" >       39 </v>
   <v type="int" >       40 </v>
   <v type="int" >       41 </v>
   <v type="int" >       42 </v>
   <v type="int" >       43 </v>
   <v type="int" >       44 </v>
   <v type="int" >       45 </v>
   <v type="int" >       46 </v>
   <v type="int" >       47 </v>
   <v type="int" >       48 </v>
   <v type="int" >       49 </v>
   <v type="int" >       50 </v>
   <v type="int" >       51 </v>
   <v type="int" >       52 </v>
   <v type="int" >       53 </v>
   <v type="int" >       54 </v>
   <v type="int" >       55 </v>
   <v type="int" >       56 </v>
   <v type="int" >       57 </v>
   <v type="int" >       58 </v>
  </varray>
 </primitive_cell>
 <kpoints>
  <generation param="Gamma">
   <v type="int" name="divisions">       2        2        1 </v>
   <v name="usershift">      0.00000000       0.00000000       0.00000000 </v>
   <v name="genvec1">      0.50000000       0.00000000       0.00000000 </v>
   <v name="genvec2">      0.00000000       0.50000000       0.00000000 </v>
   <v name="genvec3">      0.00000000       0.00000000       1.00000000 </v>
   <v name="shift">      0.00000000       0.00000000       0.00000000 </v>
  </generation>
  <varray name="kpointlist" >
   <v>       0.00000000       0.00000000       0.00000000 </v>
   <v>       0.50000000       0.00000000       0.00000000 </v>
   <v>       0.00000000       0.50000000       0.00000000 </v>
   <v>       0.50000000       0.50000000       0.00000000 </v>
  </varray>
  <varray name="weights" >
   <v>       0.25000000 </v>
   <v>       0.25000000 </v>
   <v>       0.25000000 </v>
   <v>       0.25000000 </v>
  </varray>
 </kpoints>
 <parameters>
  <separator name="general" >
   <i type="string" name="SYSTEM">slab_Cel1-OPT</i>
   <i type="logical" name="LCOMPAT"> F  </i>
  </separator>
  <separator name="electronic" >
   <i type="string" name="PREC">n</i>
   <i name="ENMAX">    400.00000000</i>
   <i name="ENAUG">    644.87300000</i>
   <i name="EDIFF">      0.00001000</i>
   <i type="int" name="IALGO">    38</i>
   <i type="int" name="IWAVPR">    11</i>
   <i type="int" name="NBANDS">   172</i>
   <i type="int" name="NBANDSLOW">    -1</i>
   <i type="int" name="NBANDSHIGH">    -1</i>
   <i name="NELECT">    278.00000000</i>
   <i type="int" name="TURBO">     0</i>
   <i type="int" name="IRESTART">     0</i>
   <i type="int" name="NREBOOT">     0</i>
   <i type="int" name="NMIN">     0</i>
   <i name="EREF">      0.00000000</i>
   <separator name="electronic smearing" >
    <i type="int" name="ISMEAR">     0</i>
    <i name="SIGMA">      0.10000000</i>
    <i name="KSPACING">      0.50000000</i>
    <i type="logical" name="KGAMMA"> T  </i>
    <i type="logical" name="KBLOWUP"> T  </i>
   </separator>
   <separator name="electronic projectors" >
    <i type="logical" name="LREAL"> T  </i>
    <v name="ROPT">     -0.00050000     -0.00050000     -0.00050000</v>
    <i type="int" name="LMAXPAW">  -100</i>
    <i type="int" name="LMAXMIX">     2</i>
    <i type="logical" name="NLSPLINE"> F  </i>
   </separator>
   <separator name="electronic startup" >
    <i type="int" name="ISTART">     0</i>
    <i type="int" name="ICHARG">     2</i>
    <i type="int" name="INIWAV">     1</i>
   </separator>
   <separator name="electronic spin" >
    <i type="int" name="ISPIN">     1</i>
    <i type="logical" name="LNONCOLLINEAR"> F  </i>
    <v name="MAGMOM">      1.00000000      1.00000000      1.00000000      1.00000000      1.00000000      1.00000000      1.00000000      1.00000000      1.00000000      1.00000000      1.00000000      1.00000000      1.00000000      1.00000000      1.00000000      1.00000000      1.00000000      1.00000000      1.00000000      1.00000000
      1.00000000      1.00000000      1.00000000      1.00000000      1.00000000      1.00000000      1.00000000      1.00000000      1.00000000      1.00000000      1.00000000      1.00000000      1.00000000      1.00000000      1.00000000      1.00000000      1.00000000      1.00000000      1.00000000      1.00000000
      1.00000000      1.00000000      1.00000000      1.00000000      1.00000000      1.00000000      1.00000000      1.00000000      1.00000000      1.00000000      1.00000000      1.00000000      1.00000000      1.00000000      1.00000000      1.00000000      1.00000000      1.00000000</v>
    <i name="NUPDOWN">     -1.00000000</i>
    <i type="logical" name="LSORBIT"> F  </i>
    <v name="SAXIS">      0.00000000      0.00000000      1.00000000</v>
    <i type="logical" name="LSPIRAL"> F  </i>
    <v name="QSPIRAL">      0.00000000      0.00000000      0.00000000</v>
    <i type="logical" name="LZEROZ"> F  </i>
   </separator>
   <separator name="electronic exchange-correlation" >
    <i type="logical" name="LASPH"> F  </i>
    <i type="logical" name="LMETAGGA"> F  </i>
   </separator>
   <separator name="electronic convergence" >
    <i type="int" name="NELM">   200</i>
    <i type="int" name="NELMDL">    -5</i>
    <i type="int" name="NELMIN">     2</i>
    <i name="ENINI">    400.00000000</i>
    <separator name="electronic convergence detail" >
     <i type="logical" name="LDIAG"> T  </i>
     <i type="logical" name="LSUBROT"> F  </i>
     <i name="WEIMIN">      0.00100000</i>
     <i name="EBREAK">      0.00000001</i>
     <i name="DEPER">      0.30000000</i>
     <i type="int" name="NRMM">     4</i>
     <i name="TIME">      0.40000000</i>
    </separator>
   </separator>
   <separator name="electronic mixer" >
    <i name="AMIX">      0.40000000</i>
    <i name="BMIX">      1.00000000</i>
    <i name="AMIN">      0.10000000</i>
    <i name="AMIX_MAG">      1.60000000</i>
    <i name="BMIX_MAG">      1.00000000</i>
    <separator name="electronic mixer details" >
     <i type="int" name="IMIX">     4</i>
     <i type="logical" name="MIXFIRST"> F  </i>
     <i type="int" name="MAXMIX">   -45</i>
     <i name="WC">    100.00000000</i>
     <i type="int" name="INIMIX">     1</i>
     <i type="int" name="MIXPRE">     1</i>
     <i type="int" name="MREMOVE">     5</i>
    </separator>
   </separator>
   <separator name="electronic dipolcorrection" >
    <i type="logical" name="LDIPOL"> T  </i>
    <i type="logical" name="LMONO"> F  </i>
    <i type="int" name="IDIPOL">     3</i>
    <i name="EPSILON">      1.00000000</i>
    <v name="DIPOL">   -100.00000000   -100.00000000   -100.00000000</v>
    <i name="EFIELD">      0.00000000</i>
   </separator>
  </separator>
  <separator name="grids" >
   <i type="int" name="NGX">    70</i>
   <i type="int" name="NGY">    60</i>
   <i type="int" name="NGZ">    80</i>
   <i type="int" name="NGXF">   140</i>
   <i type="int" name="NGYF">   120</i>
   <i type="int" name="NGZF">   160</i>
   <i type="logical" name="ADDGRID"> F  </i>
  </separator>
  <separator name="ionic" >
   <i type="int" name="NSW">  1000</i>
   <i type="int" name="IBRION">     2</i>
   <i type="int" name="MDALGO">     0</i>
   <i type="int" name="ISIF">     3</i>
   <i name="PSTRESS">      0.00000000</i>
   <i name="EDIFFG">     -0.05000000</i>
   <i type="int" name="NFREE">     1</i>
   <i name="POTIM">      0.10000000</i>
   <i name="SMASS">     -3.00000000</i>
   <i name="SCALEE">      1.00000000</i>
  </separator>
  <separator name="ionic md" >
   <i name="TEBEG">      0.00010000</i>
   <i name="TEEND">      0.00010000</i>
   <i type="int" name="NBLOCK">     1</i>
   <i type="int" name="KBLOCK">  1000</i>
   <i type="int" name="NPACO">   256</i>
   <i name="APACO">     10.00000000</i>
  </separator>
  <separator name="symmetry" >
   <i type="int" name="ISYM">     2</i>
   <i name="SYMPREC">      0.00001000</i>
  </separator>
  <separator name="dos" >
   <i type="int" name="LORBIT">     0</i>
   <v name="RWIGS">     -1.00000000     -1.00000000     -1.00000000</v>
   <i type="int" name="NEDOS">   301</i>
   <i name="EMIN">     10.00000000</i>
   <i name="EMAX">    -10.00000000</i>
   <i name="EFERMI">      0.00000000</i>
  </separator>
  <separator name="writing" >
   <i type="int" name="NWRITE">     2</i>
   <i type="logical" name="LWAVE"> F  </i>
   <i type="logical" name="LDOWNSAMPLE"> F  </i>
   <i type="logical" name="LCHARG"> F  </i>
   <i type="logical" name="LPARD"> F  </i>
   <i type="logical" name="LVTOT"> F  </i>
   <i type="logical" name="LVHAR"> F  </i>
   <i type="logical" name="LELF"> F  </i>
   <i type="logical" name="LOPTICS"> F  </i>
   <v name="STM">      0.00000000      0.00000000      0.00000000      0.00000000      0.00000000      0.00000000      0.00000000</v>
  </separator>
  <separator name="performance" >
   <i type="int" name="NPAR">     4</i>
   <i type="int" name="NSIM">     4</i>
   <i type="int" name="NBLK">    -1</i>
   <i type="logical" name="LPLANE"> T  </i>
   <i type="logical" name="LSCALAPACK"> T  </i>
   <i type="logical" name="LSCAAWARE"> F  </i>
   <i type="logical" name="LSCALU"> F  </i>
   <i type="logical" name="LASYNC"> F  </i>
   <i type="logical" name="LORBITALREAL"> F  </i>
  </separator>
  <separator name="miscellaneous" >
   <i type="int" name="IDIOT">     3</i>
   <i type="int" name="PHON_NSTRUCT">    -1</i>
   <i type="logical" name="LMUSIC"> F  </i>
   <v name="POMASS">     12.01100000     14.00100000    107.86800000</v>
   <v name="DARWINR">      0.00000000      0.00000000      0.00000000</v>
   <v name="DARWINV">      1.00000000      1.00000000      1.00000000</v>
   <i type="logical" name="LCORR"> T  </i>
  </separator>
  <i type="logical" name="GGA_COMPAT"> T  </i>
  <i type="logical" name="LBERRY"> F  </i>
  <i type="int" name="ICORELEVEL">     0</i>
  <i type="logical" name="LDAU"> F  </i>
  <i type="int" name="I_CONSTRAINED_M">     0</i>
  <separator name="electronic exchange-correlation" >
   <i type="string" name="GGA">--</i>
   <i type="int" name="VOSKOWN">     0</i>
   <i type="logical" name="LHFCALC"> F  </i>
   <i type="string" name="PRECFOCK"></i>
   <i type="logical" name="LSYMGRAD"> F  </i>
   <i type="logical" name="LHFONE"> F  </i>
   <i type="logical" name="LRHFCALC"> F  </i>
   <i type="logical" name="LTHOMAS"> F  </i>
   <i type="logical" name="LMODELHF"> F  </i>
   <i type="logical" name="LFOCKACE"> F  </i>
   <i name="ENCUT4O">     -1.00000000</i>
   <i type="int" name="EXXOEP">     0</i>
   <i type="int" name="FOURORBIT">     0</i>
   <i name="AEXX">      0.00000000</i>
   <i name="HFALPHA">      0.00000000</i>
   <i name="MCALPHA">      0.00000000</i>
   <i name="ALDAX">      1.00000000</i>
   <i name="AGGAX">      1.00000000</i>
   <i name="ALDAC">      1.00000000</i>
   <i name="AGGAC">      1.00000000</i>
   <i type="int" name="NKREDX">     1</i>
   <i type="int" name="NKREDY">     1</i>
   <i type="int" name="NKREDZ">     1</i>
   <i type="logical" name="SHIFTRED"> F  </i>
   <i type="logical" name="ODDONLY"> F  </i>
   <i type="logical" name="EVENONLY"> F  </i>
   <i type="int" name="LMAXFOCK">     0</i>
   <i type="int" name="NMAXFOCKAE">     0</i>
   <i type="logical" name="LFOCKAEDFT"> F  </i>
   <i name="HFSCREEN">      0.00000000</i>
   <i name="HFSCREENC">      0.00000000</i>
   <i type="int" name="NBANDSGWLOW">     0</i>
  </separator>
  <separator name="vdW DFT" >
   <i type="logical" name="LUSE_VDW"> F  </i>
   <i name="Zab_VDW">     -0.84910000</i>
   <i name="PARAM1">      0.12340000</i>
   <i name="PARAM2">      1.00000000</i>
   <i name="PARAM3">      0.00000000</i>
  </separator>
  <separator name="model GW" >
   <i type="int" name="MODEL_GW">     0</i>
   <i name="MODEL_EPS0">     27.35436358</i>
   <i name="MODEL_ALPHA">      1.00000000</i>
  </separator>
  <separator name="linear response parameters" >
   <i type="logical" name="LEPSILON"> F  </i>
   <i type="logical" name="LRPA"> F  </i>
   <i type="logical" name="LNABLA"> F  </i>
   <i type="logical" name="LVEL"> F  </i>
   <i name="CSHIFT">      0.10000000</i>
   <i name="OMEGAMAX">     -1.00000000</i>
   <i name="DEG_THRESHOLD">      0.00200000</i>
   <i name="RTIME">     -0.10000000</i>
   <i name="WPLASMAI">      0.00000000</i>
   <v name="DFIELD">      0.00000000      0.00000000      0.00000000</v>
   <v name="WPLASMA">      0.00000000      0.00000000      0.00000000      0.00000000      0.00000000      0.00000000      0.00000000      0.00000000      0.00000000</v>
  </separator>
  <separator name="orbital magnetization" >
   <i type="logical" name="NUCIND"> F  </i>
   <v name="MAGPOS">      0.00000000      0.00000000      0.00000000</v>
   <i type="logical" name="LNICSALL"> T  </i>
   <i type="logical" name="ORBITALMAG"> F  </i>
   <i type="logical" name="LMAGBLOCH"> F  </i>
   <i type="logical" name="LCHIMAG"> F  </i>
   <i type="logical" name="LGAUGE"> T  </i>
   <i type="int" name="MAGATOM">     0</i>
   <v name="MAGDIPOL">      0.00000000      0.00000000      0.00000000</v>
   <v name="AVECCONST">      0.00000000      0.00000000      0.00000000</v>
  </separator>
  <separator name="response functions" >
   <i type="logical" name="LFINITE_TEMPERATURE"> F  </i>
   <i type="logical" name="LADDER"> F  </i>
   <i type="logical" name="LRPAFORCE"> F  </i>
   <i type="logical" name="LFXC"> F  </i>
   <i type="logical" name="LHARTREE"> T  </i>
   <i type="int" name="IBSE">     0</i>
   <v type="int" name="KPOINT">    -1     0     0     0</v>
   <i type="logical" name="LTCTC"> F  </i>
   <i type="logical" name="LTCTE"> F  </i>
   <i type="logical" name="LTETE"> F  </i>
   <i type="logical" name="LTRIPLET"> F  </i>
   <i type="logical" name="LFXCEPS"> F  </i>
   <i type="logical" name="LFXHEG"> F  </i>
   <i type="int" name="NATURALO">     2</i>
   <i type="logical" name="LHOLEGF"> F  </i>
   <i type="logical" name="L2ORDER"> F  </i>
   <i type="logical" name="LDMP1"> F  </i>
   <i type="logical" name="LMP2LT"> F  </i>
   <i type="logical" name="LSMP2LT"> F  </i>
   <i type="logical" name="LGWLF"> F  </i>
   <i name="ENCUTGW">     -2.00000000</i>
   <i name="ENCUTGWSOFT">     -2.00000000</i>
   <i name="ENCUTLF">     -1.00000000</i>
   <i type="logical" name="LESF_SPLINES"> F  </i>
   <i type="int" name="LMAXMP2">    -1</i>
   <i name="SCISSOR">      0.00000000</i>
   <i type="int" name="NOMEGA">     0</i>
   <i type="int" name="NOMEGAR">     0</i>
   <i type="int" name="NBANDSGW">    -1</i>
   <i type="int" name="NBANDSO">    -1</i>
   <i type="int" name="NBANDSV">    -1</i>
   <i type="int" name="NELMGW">     1</i>
   <i type="int" name="NELMHF">     1</i>
   <i type="int" name="DIM">     3</i>
   <i type="int" name="IESPILON">     4</i>
   <i type="int" name="ANTIRES">     0</i>
   <i name="OMEGAMAX">    -30.00000000</i>
   <i name="OMEGAMIN">    -30.00000000</i>
   <i name="OMEGATL">   -200.00000000</i>
   <i type="int" name="OMEGAGRID">     0</i>
   <i name="CSHIFT">     -0.10000000</i>
   <i type="logical" name="LSELFENERGY"> F  </i>
   <i type="logical" name="LSPECTRAL"> F  </i>
   <i type="logical" name="LSPECTRALGW"> F  </i>
   <i type="logical" name="LSINGLES"> F  </i>
   <i type="logical" name="LFERMIGW"> F  </i>
   <i type="logical" name="ODDONLYGW"> F  </i>
   <i type="logical" name="EVENONLYGW"> F  </i>
   <i type="int" name="NKREDLFX">     1</i>
   <i type="int" name="NKREDLFY">     1</i>
   <i type="int" name="NKREDLFZ">     1</i>
   <i type="int" name="MAXMEM">  2800</i>
   <i type="int" name="TELESCOPE">     0</i>
   <i type="int" name="NTAUPAR">    -1</i>
   <i type="int" name="NOMEGAPAR">    -1</i>
   <i name="DAMP_NEWTON">      0.80000001</i>
   <i name="LAMBDA">      1.00000000</i>
  </separator>
  <separator name="External order field" >
   <i name="OFIELD_KAPPA">      0.00000000</i>
   <v name="OFIELD_K">      0.00000000      0.00000000      0.00000000</v>
   <i name="OFIELD_Q6_NEAR">      0.00000000</i>
   <i name="OFIELD_Q6_FAR">      0.00000000</i>
   <i name="OFIELD_A">      0.00000000</i>
  </separator>
  <separator name="optional k-points parameters" >
   <i type="int" name="KPOINTS_OPT_MODE">     1</i>
   <i type="logical" name="LKPOINTS_OPT"> F  </i>
  </separator>
  <separator name="solvation model" >
   <i type="logical" name="LSOL"> F  </i>
  </separator>
 </parameters>
 <atominfo>
  <atoms>      58 </atoms>
  <types>       3 </types>
  <array name="atoms" >
   <dimension dim="1">ion</dimension>
   <field type="string">element</field>
   <field type="int">atomtype</field>
   <set>
    <rc><c>C </c><c>   1</c></rc>
    <rc><c>C </c><c>   1</c></rc>
    <rc><c>C </c><c>   1</c></rc>
    <rc><c>C </c><c>   1</c></rc>
    <rc><c>C </c><c>   1</c></rc>
    <rc><c>C </c><c>   1</c></rc>
    <rc><c>C </c><c>   1</c></rc>
    <rc><c>C </c><c>   1</c></rc>
    <rc><c>C </c><c>   1</c></rc>
    <rc><c>C </c><c>   1</c></rc>
    <rc><c>C </c><c>   1</c></rc>
    <rc><c>C </c><c>   1</c></rc>
    <rc><c>C </c><c>   1</c></rc>
    <rc><c>C </c><c>   1</c></rc>
    <rc><c>C </c><c>   1</c></rc>
    <rc><c>C </c><c>   1</c></rc>
    <rc><c>C </c><c>   1</c></rc>
    <rc><c>C </c><c>   1</c></rc>
    <rc><c>C </c><c>   1</c></rc>
    <rc><c>C </c><c>   1</c></rc>
    <rc><c>C </c><c>   1</c></rc>
    <rc><c>C </c><c>   1</c></rc>
    <rc><c>C </c><c>   1</c></rc>
    <rc><c>C </c><c>   1</c></rc>
    <rc><c>N </c><c>   2</c></rc>
    <rc><c>N </c><c>   2</c></rc>
    <rc><c>N </c><c>   2</c></rc>
    <rc><c>N </c><c>   2</c></rc>
    <rc><c>N </c><c>   2</c></rc>
    <rc><c>N </c><c>   2</c></rc>
    <rc><c>N </c><c>   2</c></rc>
    <rc><c>N </c><c>   2</c></rc>
    <rc><c>N </c><c>   2</c></rc>
    <rc><c>N </c><c>   2</c></rc>
    <rc><c>N </c><c>   2</c></rc>
    <rc><c>N </c><c>   2</c></rc>
    <rc><c>N </c><c>   2</c></rc>
    <rc><c>N </c><c>   2</c></rc>
    <rc><c>N </c><c>   2</c></rc>
    <rc><c>N </c><c>   2</c></rc>
    <rc><c>N </c><c>   2</c></rc>
    <rc><c>N </c><c>   2</c></rc>
    <rc><c>N </c><c>   2</c></rc>
    <rc><c>N </c><c>   2</c></rc>
    <rc><c>N </c><c>   2</c></rc>
    <rc><c>N </c><c>   2</c></rc>
    <rc><c>N </c><c>   2</c></rc>
    <rc><c>N </c><c>   2</c></rc>
    <rc><c>N </c><c>   2</c></rc>
    <rc><c>N </c><c>   2</c></rc>
    <rc><c>N </c><c>   2</c></rc>
    <rc><c>N </c><c>   2</c></rc>
    <rc><c>N </c><c>   2</c></rc>
    <rc><c>N </c><c>   2</c></rc>
    <rc><c>N </c><c>   2</c></rc>
    <rc><c>N </c><c>   2</c></rc>
    <rc><c>Ag</c><c>   3</c></rc>
    <rc><c>Ag</c><c>   3</c></rc>
   </set>
  </array>
  <array name="atomtypes" >
   <dimension dim="1">type</dimension>
   <field type="int">atomspertype</field>
   <field type="string">element</field>
   <field>mass</field>
   <field>valence</field>
   <field type="string">pseudopotential</field>
   <set>
    <rc><c>  24</c><c>C </c><c>     12.01100000</c><c>      4.00000000</c><c>  PAW_PBE C 08Apr2002                   </c></rc>
    <rc><c>  32</c><c>N </c><c>     14.00100000</c><c>      5.00000000</c><c>  PAW_PBE N 08Apr2002                   </c></rc>
    <rc><c>   2</c><c>Ag</c><c>    107.86800000</c><c>     11.00000000</c><c>  PAW_PBE Ag 02Apr2005                  </c></rc>
   </set>
  </array>
 </atominfo>
 <structure name="initialpos" >
  <crystal>
   <varray name="basis" >
    <v>      14.26590000       0.00000000       0.00000000 </v>
    <v>       0.00000000      12.35699650       0.00000000 </v>
    <v>       0.00000000       0.00000000      15.00000000 </v>
   </varray>
   <i name="volume">   2644.25514646 </i>
   <varray name="rec_basis" >
    <v>       0.07009722       0.00000000       0.00000000 </v>
    <v>       0.00000000       0.08092581       0.00000000 </v>
    <v>       0.00000000       0.00000000       0.06666667 </v>
   </varray>
  </crystal>
  <varray name="positions" >
   <v>       0.06537593       0.40364000       0.13333000 </v>
   <v>       0.98097748       0.23494000       0.13333000 </v>
   <v>       0.22593437       0.39820000       0.13333000 </v>
   <v>       0.81543575       0.57710000       0.13333000 </v>
   <v>       0.14973747       0.23490000       0.13333000 </v>
   <v>       0.90517930       0.39797000       0.13333000 </v>
   <v>       0.56537593       0.40364000       0.13333000 </v>
   <v>       0.48097748       0.23494000       0.13333000 </v>
   <v>       0.72593437       0.39820000       0.13333000 </v>
   <v>       0.31543575       0.57710000       0.13333000 </v>
   <v>       0.64973747       0.23490000       0.13333000 </v>
   <v>       0.40517930       0.39797000       0.13333000 </v>
   <v>       0.81551954       0.90364000       0.13333000 </v>
   <v>       0.73112108       0.73494000       0.13333000 </v>
   <v>       0.97607797       0.89820000       0.13333000 </v>
   <v>       0.06529214       0.07710000       0.13333000 </v>
   <v>       0.89988107       0.73490000       0.13333000 </v>
   <v>       0.65532291       0.89797000       0.13333000 </v>
   <v>       0.31551954       0.90364000       0.13333000 </v>
   <v>       0.23112108       0.73494000       0.13333000 </v>
   <v>       0.47607797       0.89820000       0.13333000 </v>
   <v>       0.56529214       0.07710000       0.13333000 </v>
   <v>       0.39988107       0.73490000       0.13333000 </v>
   <v>       0.15532291       0.89797000       0.13333000 </v>
   <v>       0.98400093       0.45588000       0.13333000 </v>
   <v>       0.90111835       0.29021000       0.13333000 </v>
   <v>       0.14710595       0.45595000       0.13333000 </v>
   <v>       0.14840652       0.12714000       0.13333000 </v>
   <v>       0.98256150       0.12707000       0.13333000 </v>
   <v>       0.22992331       0.29008000       0.13333000 </v>
   <v>       0.06536362       0.29116000       0.13333000 </v>
   <v>       0.81553147       0.45774000       0.13333000 </v>
   <v>       0.48400093       0.45588000       0.13333000 </v>
   <v>       0.40111835       0.29021000       0.13333000 </v>
   <v>       0.64710595       0.45595000       0.13333000 </v>
   <v>       0.64840652       0.12714000       0.13333000 </v>
   <v>       0.48256150       0.12707000       0.13333000 </v>
   <v>       0.72992331       0.29008000       0.13333000 </v>
   <v>       0.56536362       0.29116000       0.13333000 </v>
   <v>       0.31553147       0.45774000       0.13333000 </v>
   <v>       0.73414454       0.95588000       0.13333000 </v>
   <v>       0.65126196       0.79021000       0.13333000 </v>
   <v>       0.89724956       0.95595000       0.13333000 </v>
   <v>       0.89855012       0.62714000       0.13333000 </v>
   <v>       0.73270510       0.62707000       0.13333000 </v>
   <v>       0.98006692       0.79008000       0.13333000 </v>
   <v>       0.81550723       0.79116000       0.13333000 </v>
   <v>       0.56567507       0.95774000       0.13333000 </v>
   <v>       0.23414454       0.95588000       0.13333000 </v>
   <v>       0.15126196       0.79021000       0.13333000 </v>
   <v>       0.39724956       0.95595000       0.13333000 </v>
   <v>       0.39855012       0.62714000       0.13333000 </v>
   <v>       0.23270510       0.62707000       0.13333000 </v>
   <v>       0.48006692       0.79008000       0.13333000 </v>
   <v>       0.31550723       0.79116000       0.13333000 </v>
   <v>       0.06567507       0.95774000       0.13333000 </v>
   <v>       0.51318019       0.65760505       0.14333042 </v>
   <v>       0.63498818       0.58816656       0.13951958 </v>
  </varray>
 </structure>
 <calculation>
  <scstep>
   <time name="dav">    1.80    1.80</time>
   <time name="total">    1.85    1.85</time>
   <dipole>
    <v name="dipole">      0.00000000       0.00000000       0.00014941 </v>
    <i name="Tr[quadrupol]">  -8801.66684192 </i>
    <i name="Echarged">      0.00000000 </i>
    <i name="Edipol_quadrupol">      0.00000000 </i>
    <i name="Eion">      0.00000000 </i>
   </dipole>
   <energy>
    <i name="alphaZ">    140.57536406 </i>
    <i name="ewald">  30552.72364060 </i>
    <i name="hartreedc"> -41927.22747116 </i>
    <i name="XCdc">    940.02767535 </i>
    <i name="pawpsdc">  11169.30082335 </i>
    <i name="pawaedc"> -11128.85230351 </i>
    <i name="eentropy">     -0.11998238 </i>
    <i name="bandstr">  -1276.27528997 </i>
    <i name="atom">  14068.77030692 </i>
    <i name="e_fr_energy">   2538.92276326 </i>
    <i name="e_wo_entrp">   2539.04274565 </i>
    <i name="e_0_energy">   2538.98275445 </i>
   </energy>
  </scstep>
  <scstep>
   <time name="dav">    2.05    2.06</time>
   <time name="total">    2.06    2.06</time>
   <dipole>
    <v name="dipole">      0.00000000       0.00000000       0.00014941 </v>
    <i name="Tr[quadrupol]">  -8801.66684192 </i>
    <i name="Echarged">      0.00000000 </i>
    <i name="Edipol_quadrupol">      0.00000000 </i>
    <i name="Eion">      0.00000000 </i>
   </dipole>
   <energy>
    <i name="e_fr_energy">     29.95377986 </i>
    <i name="e_wo_entrp">     29.99532148 </i>
    <i name="e_0_energy">     29.97455067 </i>
   </energy>
  </scstep>
  <scstep>
   <time name="dav">    1.86    1.86</time>
   <time name="total">    1.86    1.86</time>
   <dipole>
    <v name="dipole">      0.00000000       0.00000000       0.00014941 </v>
    <i name="Tr[quadrupol]">  -8801.66684192 </i>
    <i name="Echarged">      0.00000000 </i>
    <i name="Edipol_quadrupol">      0.00000000 </i>
    <i name="Eion">      0.00000000 </i>
   </dipole>
   <energy>
    <i name="e_fr_energy">   -474.76988697 </i>
    <i name="e_wo_entrp">   -474.70694658 </i>
    <i name="e_0_energy">   -474.73841677 </i>
   </energy>
  </scstep>
  <scstep>
   <time name="dav">    1.73    1.73</time>
   <time name="total">    1.73    1.73</time>
   <dipole>
    <v name="dipole">      0.00000000       0.00000000       0.00014941 </v>
    <i name="Tr[quadrupol]">  -8801.66684192 </i>
    <i name="Echarged">      0.00000000 </i>
    <i name="Edipol_quadrupol">      0.00000000 </i>
    <i name="Eion">      0.00000000 </i>
   </dipole>
   <energy>
    <i name="e_fr_energy">   -492.41767156 </i>
    <i name="e_wo_entrp">   -492.29969798 </i>
    <i name="e_0_energy">   -492.35868477 </i>
   </energy>
  </scstep>
  <scstep>
   <time name="dav">    1.99    1.99</time>
   <time name="total">    2.04    2.04</time>
   <dipole>
    <v name="dipole">      0.00000000       0.00000000       0.00014941 </v>
    <i name="Tr[quadrupol]">  -8801.66684192 </i>
    <i name="Echarged">      0.00000000 </i>
    <i name="Edipol_quadrupol">      0.00000000 </i>
    <i name="Eion">      0.00000000 </i>
   </dipole>
   <energy>
    <i name="e_fr_energy">   -493.10937438 </i>
    <i name="e_wo_entrp">   -492.98768708 </i>
    <i name="e_0_energy">   -493.04853073 </i>
   </energy>
  </scstep>
  <scstep>
   <time name="dav">    1.73    1.73</time>
   <time name="total">    1.82    1.82</time>
   <dipole>
    <v name="dipole">      0.00000000       0.00000000      -0.07776814 </v>
    <i name="Tr[quadrupol]">  -8802.98040035 </i>
    <i name="Echarged">      0.00000000 </i>
    <i name="Edipol_quadrupol">      0.00000000 </i>
    <i name="Eion">      0.00000000 </i>
   </dipole>
   <energy>
    <i name="e_fr_energy">   -456.14433249 </i>
    <i name="e_wo_entrp">   -456.04035705 </i>
    <i name="e_0_energy">   -456.09234477 </i>
   </energy>
  </scstep>
  <scstep>
   <time name="dav">    1.74    1.74</time>
   <time name="total">    1.82    1.82</time>
   <dipole>
    <v name="dipole">      0.00000000       0.00000000      -0.03022635 </v>
    <i name="Tr[quadrupol]">  -8803.40831409 </i>
    <i name="Echarged">      0.00000000 </i>
    <i name="Edipol_quadrupol">      0.00000000 </i>
    <i name="Eion">      0.00000000 </i>
   </dipole>
   <energy>
    <i name="e_fr_energy">   -453.56027202 </i>
    <i name="e_wo_entrp">   -453.46593416 </i>
    <i name="e_0_energy">   -453.51310309 </i>
   </energy>
  </scstep>
  <scstep>
   <time name="dav">    1.78    1.78</time>
   <time name="total">    1.86    1.87</time>
   <dipole>
    <v name="dipole">      0.00000000       0.00000000      -0.02728707 </v>
    <i name="Tr[quadrupol]">  -8805.08552794 </i>
    <i name="Echarged">      0.00000000 </i>
    <i name="Edipol_quadrupol">      0.00000000 </i>
    <i name="Eion">      0.00000000 </i>
   </dipole>
   <energy>
    <i name="e_fr_energy">   -450.82576131 </i>
    <i name="e_wo_entrp">   -450.68770980 </i>
    <i name="e_0_energy">   -450.75673555 </i>
   </energy>
  </scstep>
  <scstep>
   <time name="dav">    1.75    1.75</time>
   <time name="total">    1.83    1.83</time>
   <dipole>
    <v name="dipole">      0.00000000       0.00000000       0.00711484 </v>
    <i name="Tr[quadrupol]">  -8805.83863485 </i>
    <i name="Echarged">      0.00000000 </i>
    <i name="Edipol_quadrupol">      0.00000000 </i>
    <i name="Eion">      0.00000000 </i>
   </dipole>
   <energy>
    <i name="e_fr_energy">   -449.91397932 </i>
    <i name="e_wo_entrp">   -449.80298063 </i>
    <i name="e_0_energy">   -449.85847998 </i>
   </energy>
  </scstep>
  <scstep>
   <time name="dav">    1.71    1.71</time>
   <time name="total">    1.79    1.79</time>
   <dipole>
    <v name="dipole">      0.00000000       0.00000000      -0.00095259 </v>
    <i name="Tr[quadrupol]">  -8806.58212516 </i>
    <i name="Echarged">      0.00000000 </i>
    <i name="Edipol_quadrupol">      0.00000000 </i>
    <i name="Eion">      0.00000000 </i>
   </dipole>
   <energy>
    <i name="e_fr_energy">   -449.80120057 </i>
    <i name="e_wo_entrp">   -449.68400473 </i>
    <i name="e_0_energy">   -449.74260265 </i>
   </energy>
  </scstep>
  <scstep>
   <time name="dav">    1.72    1.72</time>
   <time name="total">    1.80    1.80</time>
   <dipole>
    <v name="dipole">      0.00000000       0.00000000      -0.03016132 </v>
    <i name="Tr[quadrupol]">  -8806.75375789 </i>
    <i name="Echarged">      0.00000000 </i>
    <i name="Edipol_quadrupol">      0.00000000 </i>
    <i name="Eion">      0.00000000 </i>
   </dipole>
   <energy>
    <i name="e_fr_energy">   -449.69785388 </i>
    <i name="e_wo_entrp">   -449.53835340 </i>
    <i name="e_0_energy">   -449.61810364 </i>
   </energy>
  </scstep>
  <scstep>
   <time name="dav">    1.83    1.83</time>
   <time name="total">    1.92    1.92</time>
   <dipole>
    <v name="dipole">      0.00000000       0.00000000      -0.03490148 </v>
    <i name="Tr[quadrupol]">  -8807.28645808 </i>
    <i name="Echarged">      0.00000000 </i>
    <i name="Edipol_quadrupol">      0.00000000 </i>
    <i name="Eion">      0.00000000 </i>
   </dipole>
   <energy>
    <i name="e_fr_energy">   -449.69713458 </i>
    <i name="e_wo_entrp">   -449.54966255 </i>
    <i name="e_0_energy">   -449.62339857 </i>
   </energy>
  </scstep>
  <scstep>
   <time name="dav">    1.75    1.75</time>
   <time name="total">    1.84    1.85</time>
   <dipole>
    <v name="dipole">      0.00000000       0.00000000      -0.02861791 </v>
    <i name="Tr[quadrupol]">  -8807.70050996 </i>
    <i name="Echarged">      0.00000000 </i>
    <i name="Edipol_quadrupol">      0.00000000 </i>
    <i name="Eion">      0.00000000 </i>
   </dipole>
   <energy>
    <i name="e_fr_energy">   -449.66448889 </i>
    <i name="e_wo_entrp">   -449.50250334 </i>
    <i name="e_0_energy">   -449.58349612 </i>
   </energy>
  </scstep>
  <scstep>
   <time name="dav">    1.69    1.69</time>
   <time name="total">    1.77    1.78</time>
   <dipole>
    <v name="dipole">      0.00000000       0.00000000      -0.01946913 </v>
    <i name="Tr[quadrupol]">  -8808.49977509 </i>
    <i name="Echarged">      0.00000000 </i>
    <i name="Edipol_quadrupol">      0.00000000 </i>
    <i name="Eion">      0.00000000 </i>
   </dipole>
   <energy>
    <i name="e_fr_energy">   -449.66159164 </i>
    <i name="e_wo_entrp">   -449.49906725 </i>
    <i name="e_0_energy">   -449.58032944 </i>
   </energy>
  </scstep>
  <scstep>
   <time name="dav">    1.75    1.75</time>
   <time name="total">    1.84    1.84</time>
   <dipole>
    <v name="dipole">      0.00000000       0.00000000      -0.01808665 </v>
    <i name="Tr[quadrupol]">  -8808.75265247 </i>
    <i name="Echarged">      0.00000000 </i>
    <i name="Edipol_quadrupol">      0.00000000 </i>
    <i name="Eion">      0.00000000 </i>
   </dipole>
   <energy>
    <i name="e_fr_energy">   -449.66263762 </i>
    <i name="e_wo_entrp">   -449.49972425 </i>
    <i name="e_0_energy">   -449.58118093 </i>
   </energy>
  </scstep>
  <scstep>
   <time name="dav">    1.74    1.74</time>
   <time name="total">    1.82    1.82</time>
   <dipole>
    <v name="dipole">      0.00000000       0.00000000      -0.01497464 </v>
    <i name="Tr[quadrupol]">  -8809.30272733 </i>
    <i name="Echarged">      0.00000000 </i>
    <i name="Edipol_quadrupol">      0.00000000 </i>
    <i name="Eion">      0.00000000 </i>
   </dipole>
   <energy>
    <i name="e_fr_energy">   -449.66399836 </i>
    <i name="e_wo_entrp">   -449.50162022 </i>
    <i name="e_0_energy">   -449.58280929 </i>
   </energy>
  </scstep>
  <scstep>
   <time name="dav">    1.65    1.65</time>
   <time name="total">    1.73    1.73</time>
   <dipole>
    <v name="dipole">      0.00000000       0.00000000      -0.00825211 </v>
    <i name="Tr[quadrupol]">  -8810.44408389 </i>
    <i name="Echarged">      0.00000000 </i>
    <i name="Edipol_quadrupol">      0.00000000 </i>
    <i name="Eion">      0.00000000 </i>
   </dipole>
   <energy>
    <i name="e_fr_energy">   -449.66833618 </i>
    <i name="e_wo_entrp">   -449.50581051 </i>
    <i name="e_0_energy">   -449.58707334 </i>
   </energy>
  </scstep>
  <scstep>
   <time name="dav">    1.67    1.67</time>
   <time name="total">    1.76    1.76</time>
   <dipole>
    <v name="dipole">      0.00000000       0.00000000       0.13445991 </v>
    <i name="Tr[quadrupol]">  -8811.02376506 </i>
    <i name="Echarged">      0.00000000 </i>
    <i name="Edipol_quadrupol">      0.00000000 </i>
    <i name="Eion">      0.00000000 </i>
   </dipole>
   <energy>
    <i name="e_fr_energy">   -449.67094695 </i>
    <i name="e_wo_entrp">   -449.50815341 </i>
    <i name="e_0_energy">   -449.58955018 </i>
   </energy>
  </scstep>
  <scstep>
   <time name="dav">    1.63    1.63</time>
   <time name="total">    1.71    1.71</time>
   <dipole>
    <v name="dipole">      0.00000000       0.00000000       0.19898907 </v>
    <i name="Tr[quadrupol]">  -8811.60269777 </i>
    <i name="Echarged">      0.00000000 </i>
    <i name="Edipol_quadrupol">      0.00000000 </i>
    <i name="Eion">      0.00000000 </i>
   </dipole>
   <energy>
    <i name="e_fr_energy">   -449.67307959 </i>
    <i name="e_wo_entrp">   -449.51034923 </i>
    <i name="e_0_energy">   -449.59171441 </i>
   </energy>
  </scstep>
  <scstep>
   <time name="dav">    1.65    1.65</time>
   <time name="total">    1.74    1.74</time>
   <dipole>
    <v name="dipole">      0.00000000       0.00000000       0.17259897 </v>
    <i name="Tr[quadrupol]">  -8812.14375123 </i>
    <i name="Echarged">      0.00000000 </i>
    <i name="Edipol_quadrupol">      0.00000000 </i>
    <i name="Eion">      0.00000000 </i>
   </dipole>
   <energy>
    <i name="e_fr_energy">   -449.67434685 </i>
    <i name="e_wo_entrp">   -449.51119765 </i>
    <i name="e_0_energy">   -449.59277225 </i>
   </energy>
  </scstep>
  <scstep>
   <time name="dav">    1.73    1.73</time>
   <time name="total">    1.81    1.82</time>
   <dipole>
    <v name="dipole">      0.00000000       0.00000000       0.13821533 </v>
    <i name="Tr[quadrupol]">  -8812.29944250 </i>
    <i name="Echarged">      0.00000000 </i>
    <i name="Edipol_quadrupol">      0.00000000 </i>
    <i name="Eion">      0.00000000 </i>
   </dipole>
   <energy>
    <i name="e_fr_energy">   -449.67568095 </i>
    <i name="e_wo_entrp">   -449.51248005 </i>
    <i name="e_0_energy">   -449.59408050 </i>
   </energy>
  </scstep>
  <scstep>
   <time name="dav">    1.71    1.71</time>
   <time name="total">    1.80    1.80</time>
   <dipole>
    <v name="dipole">      0.00000000       0.00000000       0.10324233 </v>
    <i name="Tr[quadrupol]">  -8812.45782721 </i>
    <i name="Echarged">      0.00000000 </i>
    <i name="Edipol_quadrupol">      0.00000000 </i>
    <i name="Eion">      0.00000000 </i>
   </dipole>
   <energy>
    <i name="e_fr_energy">   -449.67751357 </i>
    <i name="e_wo_entrp">   -449.51429164 </i>
    <i name="e_0_energy">   -449.59590260 </i>
   </energy>
  </scstep>
  <scstep>
   <time name="dav">    1.71    1.71</time>
   <time name="total">    1.79    1.80</time>
   <dipole>
    <v name="dipole">      0.00000000       0.00000000       0.06161101 </v>
    <i name="Tr[quadrupol]">  -8812.64753993 </i>
    <i name="Echarged">      0.00000000 </i>
    <i name="Edipol_quadrupol">      0.00000000 </i>
    <i name="Eion">      0.00000000 </i>
   </dipole>
   <energy>
    <i name="e_fr_energy">   -449.67993874 </i>
    <i name="e_wo_entrp">   -449.51678166 </i>
    <i name="e_0_energy">   -449.59836020 </i>
   </energy>
  </scstep>
  <scstep>
   <time name="dav">    1.68    1.68</time>
   <time name="total">    1.77    1.77</time>
   <dipole>
    <v name="dipole">      0.00000000       0.00000000       0.03823933 </v>
    <i name="Tr[quadrupol]">  -8812.73775865 </i>
    <i name="Echarged">      0.00000000 </i>
    <i name="Edipol_quadrupol">      0.00000000 </i>
    <i name="Eion">      0.00000000 </i>
   </dipole>
   <energy>
    <i name="e_fr_energy">   -449.68092585 </i>
    <i name="e_wo_entrp">   -449.51768343 </i>
    <i name="e_0_energy">   -449.59930464 </i>
   </energy>
  </scstep>
  <scstep>
   <time name="dav">    1.49    1.49</time>
   <time name="total">    1.57    1.57</time>
   <dipole>
    <v name="dipole">      0.00000000       0.00000000       0.01542416 </v>
    <i name="Tr[quadrupol]">  -8812.81900204 </i>
    <i name="Echarged">      0.00000000 </i>
    <i name="Edipol_quadrupol">      0.00000000 </i>
    <i name="Eion">      0.00000000 </i>
   </dipole>
   <energy>
    <i name="e_fr_energy">   -449.68197083 </i>
    <i name="e_wo_entrp">   -449.51867594 </i>
    <i name="e_0_energy">   -449.60032338 </i>
   </energy>
  </scstep>
  <scstep>
   <time name="dav">    1.37    1.38</time>
   <time name="total">    1.46    1.46</time>
   <dipole>
    <v name="dipole">      0.00000000       0.00000000       0.00161670 </v>
    <i name="Tr[quadrupol]">  -8812.87105862 </i>
    <i name="Echarged">      0.00000000 </i>
    <i name="Edipol_quadrupol">      0.00000000 </i>
    <i name="Eion">      0.00000000 </i>
   </dipole>
   <energy>
    <i name="e_fr_energy">   -449.68251878 </i>
    <i name="e_wo_entrp">   -449.51924164 </i>
    <i name="e_0_energy">   -449.60088021 </i>
   </energy>
  </scstep>
  <scstep>
   <time name="dav">    1.24    1.24</time>
   <time name="total">    1.32    1.32</time>
   <dipole>
    <v name="dipole">      0.00000000       0.00000000      -0.00248586 </v>
    <i name="Tr[quadrupol]">  -8812.88908925 </i>
    <i name="Echarged">      0.00000000 </i>
    <i name="Edipol_quadrupol">      0.00000000 </i>
    <i name="Eion">      0.00000000 </i>
   </dipole>
   <energy>
    <i name="e_fr_energy">   -449.68268180 </i>
    <i name="e_wo_entrp">   -449.51941095 </i>
    <i name="e_0_energy">   -449.60104637 </i>
   </energy>
  </scstep>
  <scstep>
   <time name="dav">    1.17    1.17</time>
   <time name="total">    1.25    1.25</time>
   <dipole>
    <v name="dipole">      0.00000000       0.00000000      -0.00552864 </v>
    <i name="Tr[quadrupol]">  -8812.90303859 </i>
    <i name="Echarged">      0.00000000 </i>
    <i name="Edipol_quadrupol">      0.00000000 </i>
    <i name="Eion">      0.00000000 </i>
   </dipole>
   <energy>
    <i name="e_fr_energy">   -449.68277701 </i>
    <i name="e_wo_entrp">   -449.51950921 </i>
    <i name="e_0_energy">   -449.60114311 </i>
   </energy>
  </scstep>
  <scstep>
   <time name="dav">    1.26    1.26</time>
   <time name="total">    1.34    1.34</time>
   <dipole>
    <v name="dipole">      0.00000000       0.00000000      -0.00600994 </v>
    <i name="Tr[quadrupol]">  -8812.90917260 </i>
    <i name="Echarged">      0.00000000 </i>
    <i name="Edipol_quadrupol">      0.00000000 </i>
    <i name="Eion">      0.00000000 </i>
   </dipole>
   <energy>
    <i name="e_fr_energy">   -449.68279289 </i>
    <i name="e_wo_entrp">   -449.51951595 </i>
    <i name="e_0_energy">   -449.60115442 </i>
   </energy>
  </scstep>
  <scstep>
   <time name="dav">    1.21    1.21</time>
   <time name="total">    1.24    1.24</time>
   <dipole>
    <v name="dipole">      0.00000000       0.00000000      -0.00554465 </v>
    <i name="Tr[quadrupol]">  -8812.91358853 </i>
    <i name="Echarged">      0.00000000 </i>
    <i name="Edipol_quadrupol">      0.00000000 </i>
    <i name="Eion">      0.00000000 </i>
   </dipole>
   <energy>
    <i name="alphaZ">    140.47494051 </i>
    <i name="ewald">  30552.72364060 </i>
    <i name="hartreedc"> -42698.90914646 </i>
    <i name="XCdc">    972.55334811 </i>
    <i name="pawpsdc">  31944.21796955 </i>
    <i name="pawaedc"> -31936.79031208 </i>
    <i name="eentropy">     -0.16327272 </i>
    <i name="bandstr">  -3492.56027549 </i>
    <i name="atom">  14068.77030692 </i>
    <i name="e_fr_energy">   -449.68280108 </i>
    <i name="e_wo_entrp">   -449.51952836 </i>
    <i name="e_0_energy">   -449.60116472 </i>
   </energy>
  </scstep>
  <structure>
   <crystal>
    <varray name="basis" >
     <v>      14.26590000       0.00000000       0.00000000 </v>
     <v>       0.00000000      12.35699650       0.00000000 </v>
     <v>       0.00000000       0.00000000      15.00000000 </v>
    </varray>
    <i name="volume">   2644.25514646 </i>
    <varray name="rec_basis" >
     <v>       0.07009722       0.00000000       0.00000000 </v>
     <v>       0.00000000       0.08092581       0.00000000 </v>
     <v>       0.00000000       0.00000000       0.06666667 </v>
    </varray>
   </crystal>
   <varray name="positions" >
    <v>       0.06537593       0.40364000       0.13333000 </v>
    <v>       0.98097748       0.23494000       0.13333000 </v>
    <v>       0.22593437       0.39820000       0.13333000 </v>
    <v>       0.81543575       0.57710000       0.13333000 </v>
    <v>       0.14973747       0.23490000       0.13333000 </v>
    <v>       0.90517930       0.39797000       0.13333000 </v>
    <v>       0.56537593       0.40364000       0.13333000 </v>
    <v>       0.48097748       0.23494000       0.13333000 </v>
    <v>       0.72593437       0.39820000       0.13333000 </v>
    <v>       0.31543575       0.57710000       0.13333000 </v>
    <v>       0.64973747       0.23490000       0.13333000 </v>
    <v>       0.40517930       0.39797000       0.13333000 </v>
    <v>       0.81551954       0.90364000       0.13333000 </v>
    <v>       0.73112108       0.73494000       0.13333000 </v>
    <v>       0.97607797       0.89820000       0.13333000 </v>
    <v>       0.06529214       0.07710000       0.13333000 </v>
    <v>       0.89988107       0.73490000       0.13333000 </v>
    <v>       0.65532291       0.89797000       0.13333000 </v>
    <v>       0.31551954       0.90364000       0.13333000 </v>
    <v>       0.23112108       0.73494000       0.13333000 </v>
    <v>       0.47607797       0.89820000       0.13333000 </v>
    <v>       0.56529214       0.07710000       0.13333000 </v>
    <v>       0.39988107       0.73490000       0.13333000 </v>
    <v>       0.15532291       0.89797000       0.13333000 </v>
    <v>       0.98400093       0.45588000       0.13333000 </v>
    <v>       0.90111835       0.29021000       0.13333000 </v>
    <v>       0.14710595       0.45595000       0.13333000 </v>
    <v>       0.14840652       0.12714000       0.13333000 </v>
    <v>       0.98256150       0.12707000       0.13333000 </v>
    <v>       0.22992331       0.29008000       0.13333000 </v>
    <v>       0.06536362       0.29116000       0.13333000 </v>
    <v>       0.81553147       0.45774000       0.13333000 </v>
    <v>       0.48400093       0.45588000       0.13333000 </v>
    <v>       0.40111835       0.29021000       0.13333000 </v>
    <v>       0.64710595       0.45595000       0.13333000 </v>
    <v>       0.64840652       0.12714000       0.13333000 </v>
    <v>       0.48256150       0.12707000       0.13333000 </v>
    <v>       0.72992331       0.29008000       0.13333000 </v>
    <v>       0.56536362       0.29116000       0.13333000 </v>
    <v>       0.31553147       0.45774000       0.13333000 </v>
    <v>       0.73414454       0.95588000       0.13333000 </v>
    <v>       0.65126196       0.79021000       0.13333000 </v>
    <v>       0.89724956       0.95595000       0.13333000 </v>
    <v>       0.89855012       0.62714000       0.13333000 </v>
    <v>       0.73270510       0.62707000       0.13333000 </v>
    <v>       0.98006692       0.79008000       0.13333000 </v>
    <v>       0.81550723       0.79116000       0.13333000 </v>
    <v>       0.56567507       0.95774000       0.13333000 </v>
    <v>       0.23414454       0.95588000       0.13333000 </v>
    <v>       0.15126196       0.79021000       0.13333000 </v>
    <v>       0.39724956       0.95595000       0.13333000 </v>
    <v>       0.39855012       0.62714000       0.13333000 </v>
    <v>       0.23270510       0.62707000       0.13333000 </v>
    <v>       0.48006692       0.79008000       0.13333000 </v>
    <v>       0.31550723       0.79116000       0.13333000 </v>
    <v>       0.06567507       0.95774000       0.13333000 </v>
    <v>       0.51318019       0.65760505       0.14333042 </v>
    <v>       0.63498818       0.58816656       0.13951958 </v>
   </varray>
  </structure>
  <varray name="forces" >
   <v>       0.21646918       0.27856771       0.00161566 </v>
   <v>      -0.08305808      -0.43383305      -0.00095823 </v>
   <v>      -0.04574953      -0.25493639       0.00368615 </v>
   <v>       3.13622069      -1.73591951      -0.05675723 </v>
   <v>       0.25466407      -0.26886023      -0.00128208 </v>
   <v>       0.20701019      -0.16896356       0.00658807 </v>
   <v>      -1.38572766      -1.95012385      -0.13826449 </v>
   <v>      -0.77046165      -1.07392159       0.00326655 </v>
   <v>       3.13332087      -1.77467718      -0.03370083 </v>
   <v>      -1.72226628      -2.05958517       0.03429934 </v>
   <v>       0.68496802      -1.18613031       0.00113665 </v>
   <v>      -2.29554732      -0.42919560       0.01414051 </v>
   <v>       0.57740116       0.99616446       0.02014300 </v>
   <v>       1.96065519       3.05435708      -0.11767508 </v>
   <v>       0.61646193       0.11730765      -0.00864649 </v>
   <v>       0.19637948      -0.15329543       0.00306487 </v>
   <v>       1.10293256       0.04226432       0.01228953 </v>
   <v>      -0.91784378       2.05971967      -0.02935558 </v>
   <v>      -0.40560488       1.31411930       0.00695032 </v>
   <v>      -1.28101374      -0.33515092       0.02522801 </v>
   <v>       0.98995428       2.44712052      -0.02257451 </v>
   <v>       0.22536104      -0.44207520       0.01743603 </v>
   <v>      -7.61354401       4.59649183      -0.65479235 </v>
   <v>      -0.62346396       0.38439972      -0.01212654 </v>
   <v>      -0.08814316       0.20641887       0.00398060 </v>
   <v>      -0.22122925       0.03863722       0.00068132 </v>
   <v>      -0.19323814       0.12949922       0.00563141 </v>
   <v>       0.01928010       0.13402946      -0.00014243 </v>
   <v>      -0.21019108       0.26135551       0.00002436 </v>
   <v>       0.03948222       0.06542839      -0.00170842 </v>
   <v>       0.01986709       0.00980277      -0.00174500 </v>
   <v>      -0.75698700       0.40161332       0.00985184 </v>
   <v>       1.76662367       0.08175778      -0.04211504 </v>
   <v>       0.38316862       0.16724053       0.00289677 </v>
   <v>       0.06970778     -15.13622087      -0.74635619 </v>
   <v>       0.25021708       0.76531576      -0.01038396 </v>
   <v>      -0.41903554       0.84065980      -0.00211151 </v>
   <v>      -0.49655892       0.70170943      -0.00265425 </v>
   <v>       0.20860753       0.79435486      -0.00666684 </v>
   <v>       0.59453583       0.26532343      -0.00097033 </v>
   <v>       0.05533130      -0.30541943       0.01557368 </v>
   <v>       0.73060842      -1.09976381      -0.19880317 </v>
   <v>      -0.94921975      -0.10658024      -0.01134734 </v>
   <v>      -0.75883171       0.11689658      -0.01337879 </v>
   <v>      29.83015327      11.86536378      -2.26400247 </v>
   <v>      -0.49835113      -0.45828454      -0.01970115 </v>
   <v>      -0.27115332      -0.40744517       0.14040257 </v>
   <v>      -0.00158751      -0.44455065       0.02806708 </v>
   <v>       0.86023577      -0.09338709      -0.01125763 </v>
   <v>       0.46750525      -0.63089944      -0.02311152 </v>
   <v>      -0.12944583      -0.57364143       0.03644386 </v>
   <v>     -12.62486366      -1.87897731      -1.56532041 </v>
   <v>       0.46535970       0.42809811       0.01527273 </v>
   <v>      -4.32527874      10.46673737      -1.24655074 </v>
   <v>       0.77800989      -0.49278754       0.10774874 </v>
   <v>      -0.10099617      -0.12066461       0.01788502 </v>
   <v>       7.92754026      -4.56934755       3.90505467 </v>
   <v>     -18.57864066      -4.44611678       2.80510122 </v>
  </varray>
  <varray name="stress" >
   <v>      67.37714379      -3.31601769      -0.32362111 </v>
   <v>      -3.31601778      41.89402130      -0.66375798 </v>
   <v>      -0.32362113      -0.66375799     -12.08773109 </v>
  </varray>
  <energy>
   <i name="e_fr_energy">   -449.68280108 </i>
   <i name="e_wo_entrp">   -449.51952836 </i>
   <i name="e_0_energy">   -449.60116472 </i>
  </energy>
  <time name="totalsc">   53.25   53.31</time>
 </calculation>
 <calculation>
  <scstep>
   <time name="dav">    1.52    1.52</time>
   <time name="total">    1.60    1.60</time>
   <dipole>
    <v name="dipole">      0.00000000       0.00000000      -0.00429233 </v>
    <i name="Tr[quadrupol]">  -9066.79363523 </i>
    <i name="Echarged">      0.00000000 </i>
    <i name="Edipol_quadrupol">      0.00000000 </i>
    <i name="Eion">      0.00000000 </i>
   </dipole>
   <energy>
    <i name="alphaZ">    136.37676471 </i>
    <i name="ewald">  29310.95501729 </i>
    <i name="hartreedc"> -41433.23866697 </i>
    <i name="XCdc">    962.61788211 </i>
    <i name="pawpsdc">  31944.27450396 </i>
    <i name="pawaedc"> -31936.84678541 </i>
    <i name="eentropy">     -0.08111728 </i>
    <i name="bandstr">  -3507.51452164 </i>
    <i name="atom">  14068.77030692 </i>
    <i name="e_fr_energy">   -454.68661632 </i>
    <i name="e_wo_entrp">   -454.60549903 </i>
    <i name="e_0_energy">   -454.64605768 </i>
   </energy>
  </scstep>
  <scstep>
   <time name="dav">    1.69    1.69</time>
   <time name="total">    1.77    1.77</time>
   <dipole>
    <v name="dipole">      0.00000000       0.00000000      -0.00615625 </v>
    <i name="Tr[quadrupol]">  -9066.81620101 </i>
    <i name="Echarged">      0.00000000 </i>
    <i name="Edipol_quadrupol">      0.00000000 </i>
    <i name="Eion">      0.00000000 </i>
   </dipole>
   <energy>
    <i name="e_fr_energy">   -456.28488943 </i>
    <i name="e_wo_entrp">   -456.19753837 </i>
    <i name="e_0_energy">   -456.24121390 </i>
   </energy>
  </scstep>
  <scstep>
   <time name="dav">    1.76    1.76</time>
   <time name="total">    1.84    1.84</time>
   <dipole>
    <v name="dipole">      0.00000000       0.00000000      -0.00612370 </v>
    <i name="Tr[quadrupol]">  -9066.83792669 </i>
    <i name="Echarged">      0.00000000 </i>
    <i name="Edipol_quadrupol">      0.00000000 </i>
    <i name="Eion">      0.00000000 </i>
   </dipole>
   <energy>
    <i name="e_fr_energy">   -456.10430640 </i>
    <i name="e_wo_entrp">   -455.95945074 </i>
    <i name="e_0_energy">   -456.03187857 </i>
   </energy>
  </scstep>
  <scstep>
   <time name="dav">    1.72    1.72</time>
   <time name="total">    1.80    1.80</time>
   <dipole>
    <v name="dipole">      0.00000000       0.00000000      -0.01013475 </v>
    <i name="Tr[quadrupol]">  -9066.81623303 </i>
    <i name="Echarged">      0.00000000 </i>
    <i name="Edipol_quadrupol">      0.00000000 </i>
    <i name="Eion">      0.00000000 </i>
   </dipole>
   <energy>
    <i name="e_fr_energy">   -457.41869135 </i>
    <i name="e_wo_entrp">   -457.32390972 </i>
    <i name="e_0_energy">   -457.37130054 </i>
   </energy>
  </scstep>
  <scstep>
   <time name="dav">    1.72    1.72</time>
   <time name="total">    1.80    1.80</time>
   <dipole>
    <v name="dipole">      0.00000000       0.00000000      -0.01657088 </v>
    <i name="Tr[quadrupol]">  -9066.91047582 </i>
    <i name="Echarged">      0.00000000 </i>
    <i name="Edipol_quadrupol">      0.00000000 </i>
    <i name="Eion">      0.00000000 </i>
   </dipole>
   <energy>
    <i name="e_fr_energy">   -456.55992587 </i>
    <i name="e_wo_entrp">   -456.47965185 </i>
    <i name="e_0_energy">   -456.51978886 </i>
   </energy>
  </scstep>
  <scstep>
   <time name="dav">    1.83    1.83</time>
   <time name="total">    1.91    1.91</time>
   <dipole>
    <v name="dipole">      0.00000000       0.00000000      -0.01354167 </v>
    <i name="Tr[quadrupol]">  -9066.88833937 </i>
    <i name="Echarged">      0.00000000 </i>
    <i name="Edipol_quadrupol">      0.00000000 </i>
    <i name="Eion">      0.00000000 </i>
   </dipole>
   <energy>
    <i name="e_fr_energy">   -456.06568196 </i>
    <i name="e_wo_entrp">   -455.97679481 </i>
    <i name="e_0_energy">   -456.02123839 </i>
   </energy>
  </scstep>
  <scstep>
   <time name="dav">    1.70    1.70</time>
   <time name="total">    1.78    1.78</time>
   <dipole>
    <v name="dipole">      0.00000000       0.00000000      -0.01347301 </v>
    <i name="Tr[quadrupol]">  -9066.81423432 </i>
    <i name="Echarged">      0.00000000 </i>
    <i name="Edipol_quadrupol">      0.00000000 </i>
    <i name="Eion">      0.00000000 </i>
   </dipole>
   <energy>
    <i name="e_fr_energy">   -455.82295410 </i>
    <i name="e_wo_entrp">   -455.69328863 </i>
    <i name="e_0_energy">   -455.75812137 </i>
   </energy>
  </scstep>
  <scstep>
   <time name="dav">    1.71    1.71</time>
   <time name="total">    1.79    1.79</time>
   <dipole>
    <v name="dipole">      0.00000000       0.00000000      -0.01283665 </v>
    <i name="Tr[quadrupol]">  -9066.80565074 </i>
    <i name="Echarged">      0.00000000 </i>
    <i name="Edipol_quadrupol">      0.00000000 </i>
    <i name="Eion">      0.00000000 </i>
   </dipole>
   <energy>
    <i name="e_fr_energy">   -455.73813506 </i>
    <i name="e_wo_entrp">   -455.59456549 </i>
    <i name="e_0_energy">   -455.66635028 </i>
   </energy>
  </scstep>
  <scstep>
   <time name="dav">    1.69    1.69</time>
   <time name="total">    1.77    1.77</time>
   <dipole>
    <v name="dipole">      0.00000000       0.00000000      -0.01309911 </v>
    <i name="Tr[quadrupol]">  -9066.79539820 </i>
    <i name="Echarged">      0.00000000 </i>
    <i name="Edipol_quadrupol">      0.00000000 </i>
    <i name="Eion">      0.00000000 </i>
   </dipole>
   <energy>
    <i name="e_fr_energy">   -455.67735969 </i>
    <i name="e_wo_entrp">   -455.52923619 </i>
    <i name="e_0_energy">   -455.60329794 </i>
   </energy>
  </scstep>
  <scstep>
   <time name="dav">    1.77    1.77</time>
   <time name="total">    1.85    1.85</time>
   <dipole>
    <v name="dipole">      0.00000000       0.00000000      -0.01407992 </v>
    <i name="Tr[quadrupol]">  -9066.78575646 </i>
    <i name="Echarged">      0.00000000 </i>
    <i name="Edipol_quadrupol">      0.00000000 </i>
    <i name="Eion">      0.00000000 </i>
   </dipole>
   <energy>
    <i name="e_fr_energy">   -455.63999362 </i>
    <i name="e_wo_entrp">   -455.49144853 </i>
    <i name="e_0_energy">   -455.56572107 </i>
   </energy>
  </scstep>
  <scstep>
   <time name="dav">    1.67    1.67</time>
   <time name="total">    1.75    1.75</time>
   <dipole>
    <v name="dipole">      0.00000000       0.00000000      -0.01589600 </v>
    <i name="Tr[quadrupol]">  -9066.76932676 </i>
    <i name="Echarged">      0.00000000 </i>
    <i name="Edipol_quadrupol">      0.00000000 </i>
    <i name="Eion">      0.00000000 </i>
   </dipole>
   <energy>
    <i name="e_fr_energy">   -455.60862073 </i>
    <i name="e_wo_entrp">   -455.46293401 </i>
    <i name="e_0_energy">   -455.53577737 </i>
   </energy>
  </scstep>
  <scstep>
   <time name="dav">    1.68    1.68</time>
   <time name="total">    1.77    1.77</time>
   <dipole>
    <v name="dipole">      0.00000000       0.00000000      -0.01905299 </v>
    <i name="Tr[quadrupol]">  -9066.74762092 </i>
    <i name="Echarged">      0.00000000 </i>
    <i name="Edipol_quadrupol">      0.00000000 </i>
    <i name="Eion">      0.00000000 </i>
   </dipole>
   <energy>
    <i name="e_fr_energy">   -455.58980109 </i>
    <i name="e_wo_entrp">   -455.45008022 </i>
    <i name="e_0_energy">   -455.51994065 </i>
   </energy>
  </scstep>
  <scstep>
   <time name="dav">    1.68    1.68</time>
   <time name="total">    1.76    1.76</time>
   <dipole>
    <v name="dipole">      0.00000000       0.00000000      -0.02145453 </v>
    <i name="Tr[quadrupol]">  -9066.73098725 </i>
    <i name="Echarged">      0.00000000 </i>
    <i name="Edipol_quadrupol">      0.00000000 </i>
    <i name="Eion">      0.00000000 </i>
   </dipole>
   <energy>
    <i name="e_fr_energy">   -455.58353175 </i>
    <i name="e_wo_entrp">   -455.45202257 </i>
    <i name="e_0_energy">   -455.51777716 </i>
   </energy>
  </scstep>
  <scstep>
   <time name="dav">    1.78    1.78</time>
   <time name="total">    1.86    1.86</time>
   <dipole>
    <v name="dipole">      0.00000000       0.00000000      -0.02348598 </v>
    <i name="Tr[quadrupol]">  -9066.72425053 </i>
    <i name="Echarged">      0.00000000 </i>
    <i name="Edipol_quadrupol">      0.00000000 </i>
    <i name="Eion">      0.00000000 </i>
   </dipole>
   <energy>
    <i name="e_fr_energy">   -455.58427542 </i>
    <i name="e_wo_entrp">   -455.45421246 </i>
    <i name="e_0_energy">   -455.51924394 </i>
   </energy>
  </scstep>
  <scstep>
   <time name="dav">    1.68    1.68</time>
   <time name="total">    1.76    1.76</time>
   <dipole>
    <v name="dipole">      0.00000000       0.00000000      -0.02492174 </v>
    <i name="Tr[quadrupol]">  -9066.71817408 </i>
    <i name="Echarged">      0.00000000 </i>
    <i name="Edipol_quadrupol">      0.00000000 </i>
    <i name="Eion">      0.00000000 </i>
   </dipole>
   <energy>
    <i name="e_fr_energy">   -455.58451712 </i>
    <i name="e_wo_entrp">   -455.45409993 </i>
    <i name="e_0_energy">   -455.51930852 </i>
   </energy>
  </scstep>
  <scstep>
   <time name="dav">    1.66    1.66</time>
   <time name="total">    1.74    1.74</time>
   <dipole>
    <v name="dipole">      0.00000000       0.00000000      -0.02628691 </v>
    <i name="Tr[quadrupol]">  -9066.70862837 </i>
    <i name="Echarged">      0.00000000 </i>
    <i name="Edipol_quadrupol">      0.00000000 </i>
    <i name="Eion">      0.00000000 </i>
   </dipole>
   <energy>
    <i name="e_fr_energy">   -455.58442161 </i>
    <i name="e_wo_entrp">   -455.45538318 </i>
    <i name="e_0_energy">   -455.51990239 </i>
   </energy>
  </scstep>
  <scstep>
   <time name="dav">    1.47    1.47</time>
   <time name="total">    1.55    1.55</time>
   <dipole>
    <v name="dipole">      0.00000000       0.00000000      -0.02740582 </v>
    <i name="Tr[quadrupol]">  -9066.70235845 </i>
    <i name="Echarged">      0.00000000 </i>
    <i name="Edipol_quadrupol">      0.00000000 </i>
    <i name="Eion">      0.00000000 </i>
   </dipole>
   <energy>
    <i name="e_fr_energy">   -455.58447499 </i>
    <i name="e_wo_entrp">   -455.45569302 </i>
    <i name="e_0_energy">   -455.52008400 </i>
   </energy>
  </scstep>
  <scstep>
   <time name="dav">    1.20    1.20</time>
   <time name="total">    1.28    1.29</time>
   <dipole>
    <v name="dipole">      0.00000000       0.00000000      -0.02863660 </v>
    <i name="Tr[quadrupol]">  -9066.69497524 </i>
    <i name="Echarged">      0.00000000 </i>
    <i name="Edipol_quadrupol">      0.00000000 </i>
    <i name="Eion">      0.00000000 </i>
   </dipole>
   <energy>
    <i name="e_fr_energy">   -455.58451736 </i>
    <i name="e_wo_entrp">   -455.45583677 </i>
    <i name="e_0_energy">   -455.52017707 </i>
   </energy>
  </scstep>
  <scstep>
   <time name="dav">    1.28    1.28</time>
   <time name="total">    1.37    1.37</time>
   <dipole>
    <v name="dipole">      0.00000000       0.00000000      -0.02930806 </v>
    <i name="Tr[quadrupol]">  -9066.68521464 </i>
    <i name="Echarged">      0.00000000 </i>
    <i name="Edipol_quadrupol">      0.00000000 </i>
    <i name="Eion">      0.00000000 </i>
   </dipole>
   <energy>
    <i name="e_fr_energy">   -455.58453307 </i>
    <i name="e_wo_entrp">   -455.45588117 </i>
    <i name="e_0_energy">   -455.52020712 </i>
   </energy>
  </scstep>
  <scstep>
   <time name="dav">    1.19    1.19</time>
   <time name="total">    1.27    1.27</time>
   <dipole>
    <v name="dipole">      0.00000000       0.00000000      -0.02974273 </v>
    <i name="Tr[quadrupol]">  -9066.67577585 </i>
    <i name="Echarged">      0.00000000 </i>
    <i name="Edipol_quadrupol">      0.00000000 </i>
    <i name="Eion">      0.00000000 </i>
   </dipole>
   <energy>
    <i name="e_fr_energy">   -455.58454899 </i>
    <i name="e_wo_entrp">   -455.45591546 </i>
    <i name="e_0_energy">   -455.52023222 </i>
   </energy>
  </scstep>
  <scstep>
   <time name="dav">    1.20    1.20</time>
   <time name="total">    1.28    1.28</time>
   <dipole>
    <v name="dipole">      0.00000000       0.00000000      -0.03038446 </v>
    <i name="Tr[quadrupol]">  -9066.66511794 </i>
    <i name="Echarged">      0.00000000 </i>
    <i name="Edipol_quadrupol">      0.00000000 </i>
    <i name="Eion">      0.00000000 </i>
   </dipole>
   <energy>
    <i name="e_fr_energy">   -455.58456722 </i>
    <i name="e_wo_entrp">   -455.45594402 </i>
    <i name="e_0_energy">   -455.52025562 </i>
   </energy>
  </scstep>
  <scstep>
   <time name="dav">    1.21    1.21</time>
   <time name="total">    1.29    1.29</time>
   <dipole>
    <v name="dipole">      0.00000000       0.00000000      -0.03096042 </v>
    <i name="Tr[quadrupol]">  -9066.65891469 </i>
    <i name="Echarged">      0.00000000 </i>
    <i name="Edipol_quadrupol">      0.00000000 </i>
    <i name="Eion">      0.00000000 </i>
   </dipole>
   <energy>
    <i name="e_fr_energy">   -455.58458499 </i>
    <i name="e_wo_entrp">   -455.45592813 </i>
    <i name="e_0_energy">   -455.52025656 </i>
   </energy>
  </scstep>
  <scstep>
   <time name="dav">    1.22    1.22</time>
   <time name="total">    1.30    1.30</time>
   <dipole>
    <v name="dipole">      0.00000000       0.00000000      -0.03132017 </v>
    <i name="Tr[quadrupol]">  -9066.65431613 </i>
    <i name="Echarged">      0.00000000 </i>
    <i name="Edipol_quadrupol">      0.00000000 </i>
    <i name="Eion">      0.00000000 </i>
   </dipole>
   <energy>
    <i name="e_fr_energy">   -455.58459588 </i>
    <i name="e_wo_entrp">   -455.45596360 </i>
    <i name="e_0_energy">   -455.52027974 </i>
   </energy>
  </scstep>
  <scstep>
   <time name="dav">    1.20    1.20</time>
   <time name="total">    1.23    1.23</time>
   <dipole>
    <v name="dipole">      0.00000000       0.00000000      -0.03155164 </v>
    <i name="Tr[quadrupol]">  -9066.65029499 </i>
    <i name="Echarged">      0.00000000 </i>
    <i name="Edipol_quadrupol">      0.00000000 </i>
    <i name="Eion">      0.00000000 </i>
   </dipole>
   <energy>
    <i name="alphaZ">    135.78347039 </i>
    <i name="ewald">  29310.95501729 </i>
    <i name="hartreedc"> -41497.35899970 </i>
    <i name="XCdc">    965.91049742 </i>
    <i name="pawpsdc">  30031.29985156 </i>
    <i name="pawaedc"> -30014.63336728 </i>
    <i name="eentropy">     -0.12861402 </i>
    <i name="bandstr">  -3456.18276627 </i>
    <i name="atom">  14068.77030692 </i>
    <i name="e_fr_energy">   -455.58460370 </i>
    <i name="e_wo_entrp">   -455.45598968 </i>
    <i name="e_0_energy">   -455.52029669 </i>
   </energy>
  </scstep>
  <structure>
   <crystal>
    <varray name="basis" >
     <v>      14.52979900       0.00000000       0.00000000 </v>
     <v>       0.00000000      12.49912820       0.00000000 </v>
     <v>       0.00000000       0.00000000      15.00000000 </v>
    </varray>
    <i name="volume">   2724.14730660 </i>
    <varray name="rec_basis" >
     <v>       0.06882408       0.00000000       0.00000000 </v>
     <v>       0.00000000       0.08000558       0.00000000 </v>
     <v>       0.00000000       0.00000000       0.06666667 </v>
    </varray>
   </crystal>
   <varray name="positions" >
    <v>       0.06552234       0.40385751       0.13333104 </v>
    <v>       0.98092130       0.23460126       0.13332938 </v>
    <v>       0.22590343       0.39800094       0.13333237 </v>
    <v>       0.81755689       0.57574457       0.13329349 </v>
    <v>       0.14990970       0.23469007       0.13332918 </v>
    <v>       0.90531931       0.39783807       0.13333424 </v>
    <v>       0.56443871       0.40211731       0.13324106 </v>
    <v>       0.48045639       0.23410147       0.13333210 </v>
    <v>       0.72805354       0.39681431       0.13330832 </v>
    <v>       0.31427092       0.57549184       0.13335206 </v>
    <v>       0.65020073       0.23397385       0.13333073 </v>
    <v>       0.40362674       0.39763488       0.13333910 </v>
    <v>       0.81591005       0.90441782       0.13334296 </v>
    <v>       0.73244714       0.73732489       0.13325431 </v>
    <v>       0.97649491       0.89829160       0.13332444 </v>
    <v>       0.06542496       0.07698030       0.13333197 </v>
    <v>       0.90062702       0.73493300       0.13333791 </v>
    <v>       0.65470214       0.89957826       0.13331112 </v>
    <v>       0.31524521       0.90466608       0.13333447 </v>
    <v>       0.23025469       0.73467831       0.13334623 </v>
    <v>       0.47674752       0.90011075       0.13331548 </v>
    <v>       0.56544456       0.07675482       0.13334122 </v>
    <v>       0.39473176       0.73848901       0.13290881 </v>
    <v>       0.15490124       0.89827015       0.13332220 </v>
    <v>       0.98394132       0.45604117       0.13333256 </v>
    <v>       0.90096873       0.29024017       0.13333044 </v>
    <v>       0.14697526       0.45605111       0.13333362 </v>
    <v>       0.14841956       0.12724465       0.13332991 </v>
    <v>       0.98241934       0.12727407       0.13333002 </v>
    <v>       0.22995002       0.29013109       0.13332890 </v>
    <v>       0.06537706       0.29116765       0.13332888 </v>
    <v>       0.81501949       0.45805359       0.13333634 </v>
    <v>       0.48519576       0.45594384       0.13330291 </v>
    <v>       0.40137750       0.29034058       0.13333186 </v>
    <v>       0.64715310       0.44413141       0.13284992 </v>
    <v>       0.64857575       0.12773757       0.13332332 </v>
    <v>       0.48227809       0.12772640       0.13332864 </v>
    <v>       0.72958747       0.29062791       0.13332829 </v>
    <v>       0.56550471       0.29178024       0.13332571 </v>
    <v>       0.31593357       0.45794717       0.13332938 </v>
    <v>       0.73418196       0.95564152       0.13334002 </v>
    <v>       0.65175609       0.78935129       0.13320212 </v>
    <v>       0.89660757       0.95586678       0.13332270 </v>
    <v>       0.89803690       0.62723127       0.13332139 </v>
    <v>       0.75288029       0.63633466       0.13187371 </v>
    <v>       0.97972987       0.78972216       0.13331733 </v>
    <v>       0.81532384       0.79084186       0.13342031 </v>
    <v>       0.56567400       0.95739289       0.13334805 </v>
    <v>       0.23472635       0.95580708       0.13332276 </v>
    <v>       0.15157815       0.78971738       0.13331513 </v>
    <v>       0.39716201       0.95550209       0.13335344 </v>
    <v>       0.39001148       0.62567287       0.13232313 </v>
    <v>       0.23301984       0.62740427       0.13333982 </v>
    <v>       0.47714158       0.79825259       0.13252817 </v>
    <v>       0.31603343       0.79077522       0.13339931 </v>
    <v>       0.06560677       0.95764578       0.13334150 </v>
    <v>       0.51854187       0.65403723       0.14584229 </v>
    <v>       0.62242279       0.58469496       0.14132392 </v>
   </varray>
  </structure>
  <varray name="forces" >
   <v>       0.01947159       0.17223382      -0.00248620 </v>
   <v>       0.02147805       0.12178764       0.00155363 </v>
   <v>      -0.63022096      -0.26248990       0.00559811 </v>
   <v>       7.20479880      -2.62278341       0.01635074 </v>
   <v>       0.01822681       0.13241773      -0.00055082 </v>
   <v>       0.72687763      -0.23635561      -0.00102000 </v>
   <v>      -0.94192154      -3.36297276      -0.11233770 </v>
   <v>      -0.13539097      -0.30720955      -0.00992245 </v>
   <v>       1.65640432      -2.27496566      -0.04652721 </v>
   <v>      -3.82786200      -1.41971986       0.05982094 </v>
   <v>       0.46934229       0.06077305      -0.00921173 </v>
   <v>      -0.30773535      -0.32821413      -0.01592389 </v>
   <v>       0.16657653       0.15295152       0.00855871 </v>
   <v>       2.64429851       2.27705028      -0.15597937 </v>
   <v>      -0.69200004      -0.21666617      -0.00806859 </v>
   <v>       0.02687023       0.64627050       0.00253845 </v>
   <v>      -0.10820786      -0.79717618       0.00714867 </v>
   <v>      -0.00639333       0.50457721       0.01700000 </v>
   <v>       0.37422078       0.69423035      -0.00270789 </v>
   <v>      -0.29556285      -0.66722358       0.00552985 </v>
   <v>      -0.41011622       3.98507856       0.02936854 </v>
   <v>      -0.00959455       0.50392376       0.00190722 </v>
   <v>      -0.99453945       0.28247845      -0.40583554 </v>
   <v>       0.39318264      -0.11045128      -0.01993613 </v>
   <v>      -0.03621957      -0.62446461       0.00574696 </v>
   <v>       0.62887679       0.16402000      -0.00074891 </v>
   <v>      -0.00049236      -0.61489038       0.00452061 </v>
   <v>      -0.80751638       0.09912352      -0.00127569 </v>
   <v>       0.78891850       0.10441483       0.00244007 </v>
   <v>      -0.66637312       0.18549885      -0.00040948 </v>
   <v>       0.03813958      -0.10342746      -0.00144575 </v>
   <v>       0.05970244      -0.34964915      -0.05753230 </v>
   <v>       0.36154046      -0.19846826       0.07729188 </v>
   <v>       0.58366610       0.60791401       0.01029556 </v>
   <v>       0.44226866      -2.41742867      -0.31782763 </v>
   <v>      -0.68498803       0.25425607      -0.00208176 </v>
   <v>       0.67272371       0.24920905       0.00520046 </v>
   <v>      -0.08120907      -0.73686965       0.05678361 </v>
   <v>      -0.72060908      -0.62900882      -0.05224920 </v>
   <v>      -0.33526929      -0.49470272      -0.00318718 </v>
   <v>      -0.20537050      -0.72804048       0.01411628 </v>
   <v>       0.92447997      -1.09731796      -0.01125750 </v>
   <v>       0.17468680      -0.50312647      -0.02119393 </v>
   <v>       2.69382637       0.34047984       0.15357629 </v>
   <v>      -8.92517320       1.63298906      -0.46269043 </v>
   <v>      -0.45307768       0.41764917      -0.04826168 </v>
   <v>       0.95843592       2.41451091       0.11899882 </v>
   <v>       0.25769794       0.57158033      -0.01763781 </v>
   <v>      -0.19489040      -0.57080064       0.01433920 </v>
   <v>       0.49760134       0.41490630      -0.00133781 </v>
   <v>      -0.58845083       0.08224062       0.05038494 </v>
   <v>       0.02192989       3.62728884      -0.90408726 </v>
   <v>      -0.45731795       0.35491524       0.05205963 </v>
   <v>      -3.09381091      -2.29038800      -0.57742743 </v>
   <v>      -2.14664710       1.28855781       0.07521692 </v>
   <v>       0.08071724      -0.03506494       0.01404140 </v>
   <v>     -18.63978813      10.85673939       2.88751164 </v>
   <v>      23.48978886      -9.20019038      -0.42673983 </v>
  </varray>
  <varray name="stress" >
   <v>      16.74205602     -19.00522914      -0.26595314 </v>
   <v>     -19.00522917       3.35238783       0.52052711 </v>
   <v>      -0.26595316       0.52052709     -12.98285549 </v>
  </varray>
  <energy>
   <i name="e_fr_energy">   -455.58460370 </i>
   <i name="e_wo_entrp">   -455.45598968 </i>
   <i name="e_0_energy">   -455.52029669 </i>
  </energy>
  <time name="totalsc">   40.44   40.47</time>
 </calculation>
 <calculation>
  <scstep>
   <time name="dav">    1.58    1.58</time>
   <time name="total">    1.66    1.66</time>
   <dipole>
    <v name="dipole">      0.00000000       0.00000000      -0.03162323 </v>
    <i name="Tr[quadrupol]">  -8979.39484460 </i>
    <i name="Echarged">      0.00000000 </i>
    <i name="Edipol_quadrupol">      0.00000000 </i>
    <i name="Eion">      0.00000000 </i>
   </dipole>
   <energy>
[...]
       <r>    1.7903    0.0000 </r>
       <r>    1.8107    0.0000 </r>
       <r>    1.8381    0.0000 </r>
       <r>    1.9479    0.0000 </r>
       <r>    2.0714    0.0000 </r>
       <r>    2.3431    0.0000 </r>
       <r>    2.4992    0.0000 </r>
       <r>    2.5859    0.0000 </r>
       <r>    2.6787    0.0000 </r>
       <r>    2.7236    0.0000 </r>
       <r>    2.8101    0.0000 </r>
      </set>
     </set>
    </set>
   </array>
  </eigenvalues>
  <separator name="orbital magnetization" >
   <v name="MAGDIPOLOUT">      0.00000000      0.00000000      0.00000000</v>
  </separator>
  <dos>
   <i name="efermi">     -2.45224437 </i>
   <total>
    <array>
     <dimension dim="1">gridpoints</dimension>
     <dimension dim="2">spin</dimension>
     <field>energy</field>
     <field>total</field>
     <field>integrated</field>
     <set>
      <set comment="spin 1">
       <r>   -27.9989     0.0000     0.0000 </r>
       <r>   -27.8910     0.0000     0.0000 </r>
       <r>   -27.7832     0.0000     0.0000 </r>
       <r>   -27.6754     0.0000     0.0000 </r>
       <r>   -27.5675     0.0000     0.0000 </r>
       <r>   -27.4597     0.0000     0.0000 </r>
       <r>   -27.3518     0.0000     0.0000 </r>
       <r>   -27.2440     0.0000     0.0000 </r>
       <r>   -27.1362     0.0000     0.0000 </r>
       <r>   -27.0283     0.0000     0.0000 </r>
       <r>   -26.9205     0.0000     0.0000 </r>
       <r>   -26.8126     0.0002     0.0000 </r>
       <r>   -26.7048     0.0640     0.0069 </r>
       <r>   -26.5970     2.0910     0.2324 </r>
       <r>   -26.4891     9.6327     1.2712 </r>
       <r>   -26.3813    11.1850     2.4774 </r>
       <r>   -26.2734    19.8655     4.6197 </r>
       <r>   -26.1656    22.2475     7.0188 </r>
       <r>   -26.0578     8.3795     7.9225 </r>
       <r>   -25.9499     0.7098     7.9990 </r>
       <r>   -25.8421     0.0091     8.0000 </r>
       <r>   -25.7342     0.0000     8.0000 </r>
       <r>   -25.6264     0.0000     8.0000 </r>
       <r>   -25.5186     0.0069     8.0007 </r>
       <r>   -25.4107     0.5508     8.0601 </r>
       <r>   -25.3029     6.4636     8.7572 </r>
       <r>   -25.1951    15.6401    10.4438 </r>
       <r>   -25.0872    14.7125    12.0304 </r>
       <r>   -24.9794    10.8146    13.1966 </r>
       <r>   -24.8715     8.9627    14.1631 </r>
       <r>   -24.7637     8.9741    15.1309 </r>
       <r>   -24.6559     3.2134    15.4774 </r>
       <r>   -24.5480     0.2087    15.4999 </r>
       <r>   -24.4402     0.1156    15.5124 </r>
       <r>   -24.3323     1.4709    15.6710 </r>
       <r>   -24.2245     4.9721    16.2072 </r>
       <r>   -24.1167    18.3562    18.1867 </r>
       <r>   -24.0088    30.1405    21.4370 </r>
       <r>   -23.9010    22.6401    23.8785 </r>
       <r>   -23.7931     5.5144    24.4732 </r>
       <r>   -23.6853     0.2507    24.5002 </r>
       <r>   -23.5775     0.3326    24.5361 </r>
       <r>   -23.4696     3.9664    24.9638 </r>
       <r>   -23.3618     8.5052    25.8810 </r>
       <r>   -23.2539     6.7335    26.6072 </r>
       <r>   -23.1461     9.6463    27.6474 </r>
       <r>   -23.0383    12.9190    29.0406 </r>
       <r>   -22.9304    13.3316    30.4782 </r>
       <r>   -22.8226     9.4174    31.4938 </r>
       <r>   -22.7148     4.0916    31.9351 </r>
       <r>   -22.6069     0.5876    31.9984 </r>
       <r>   -22.4991     0.0147    32.0000 </r>
       <r>   -22.3912     0.0339    32.0037 </r>
       <r>   -22.2834     1.8717    32.2055 </r>
       <r>   -22.1756    16.4429    33.9787 </r>
       <r>   -22.0677    35.0104    37.7542 </r>
       <r>   -21.9599    34.1216    41.4338 </r>
       <r>   -21.8520    32.3772    44.9253 </r>
       <r>   -21.7442    22.9695    47.4023 </r>
       <r>   -21.6364     5.3014    47.9740 </r>
       <r>   -21.5285     0.2408    48.0000 </r>
       <r>   -21.4207     0.2098    48.0226 </r>
       <r>   -21.3128     4.1276    48.4678 </r>
       <r>   -21.2050    17.9104    50.3992 </r>
       <r>   -21.0972    25.4177    53.1402 </r>
       <r>   -20.9893    18.6318    55.1495 </r>
       <r>   -20.8815     7.1088    55.9161 </r>
       <r>   -20.7736     3.0941    56.2497 </r>
       <r>   -20.6658    10.5508    57.3875 </r>
       <r>   -20.5580    16.6437    59.1824 </r>
       <r>   -20.4501    23.6124    61.7287 </r>
       <r>   -20.3423    16.3550    63.4924 </r>
       <r>   -20.2345     4.4080    63.9678 </r>
       <r>   -20.1266     0.2956    63.9996 </r>
       <r>   -20.0188     0.0033    64.0000 </r>
       <r>   -19.9109     0.0000    64.0000 </r>
       <r>   -19.8031     0.0000    64.0000 </r>
       <r>   -19.6953     0.0000    64.0000 </r>
       <r>   -19.5874     0.0000    64.0000 </r>
       <r>   -19.4796     0.0000    64.0000 </r>
       <r>   -19.3717     0.0000    64.0000 </r>
       <r>   -19.2639     0.0000    64.0000 </r>
       <r>   -19.1561     0.0000    64.0000 </r>
       <r>   -19.0482     0.0000    64.0000 </r>
       <r>   -18.9404     0.0000    64.0000 </r>
       <r>   -18.8325     0.0000    64.0000 </r>
       <r>   -18.7247     0.0000    64.0000 </r>
       <r>   -18.6169     0.0000    64.0000 </r>
       <r>   -18.5090     0.0000    64.0000 </r>
       <r>   -18.4012     0.0000    64.0000 </r>
       <r>   -18.2933     0.0000    64.0000 </r>
       <r>   -18.1855     0.0000    64.0000 </r>
       <r>   -18.0777     0.0000    64.0000 </r>
       <r>   -17.9698     0.0000    64.0000 </r>
       <r>   -17.8620     0.0153    64.0017 </r>
       <r>   -17.7542     0.8581    64.0942 </r>
       <r>   -17.6463     7.5190    64.9050 </r>
       <r>   -17.5385    14.7110    66.4914 </r>
       <r>   -17.4306    16.1644    68.2346 </r>
       <r>   -17.3228    19.3332    70.3195 </r>
       <r>   -17.2150    20.4498    72.5248 </r>
       <r>   -17.1071    20.2827    74.7120 </r>
       <r>   -16.9993    18.0974    76.6636 </r>
       <r>   -16.8914    14.1959    78.1945 </r>
       <r>   -16.7836     6.6235    78.9088 </r>
       <r>   -16.6758     2.3641    79.1637 </r>
       <r>   -16.5679     4.9374    79.6962 </r>
       <r>   -16.4601     2.6059    79.9772 </r>
       <r>   -16.3522     0.2094    79.9998 </r>
       <r>   -16.2444     0.0022    80.0000 </r>
       <r>   -16.1366     0.0001    80.0000 </r>
       <r>   -16.0287     0.0475    80.0051 </r>
       <r>   -15.9209     2.1539    80.2374 </r>
       <r>   -15.8130    16.3892    82.0048 </r>
       <r>   -15.7052    29.3123    85.1658 </r>
       <r>   -15.5974    17.8109    87.0865 </r>
       <r>   -15.4895     4.1727    87.5365 </r>
       <r>   -15.3817     2.5422    87.8107 </r>
       <r>   -15.2739     2.3734    88.0666 </r>
       <r>   -15.1660     3.9594    88.4936 </r>
       <r>   -15.0582     3.8738    88.9113 </r>
       <r>   -14.9503     0.9063    89.0091 </r>
       <r>   -14.8425     1.6989    89.1923 </r>
       <r>   -14.7347     5.3056    89.7644 </r>
       <r>   -14.6268     6.4524    90.4603 </r>
       <r>   -14.5190     6.3884    91.1492 </r>
       <r>   -14.4111    13.0643    92.5580 </r>
       <r>   -14.3033    20.2815    94.7451 </r>
       <r>   -14.1955    21.0183    97.0117 </r>
       <r>   -14.0876    25.9909    99.8146 </r>
       <r>   -13.9798    22.9985   102.2947 </r>
       <r>   -13.8719    24.1966   104.9041 </r>
       <r>   -13.7641    31.9214   108.3464 </r>
       <r>   -13.6563    27.2862   111.2889 </r>
       <r>   -13.5484    15.9952   113.0139 </r>
       <r>   -13.4406    10.6490   114.1622 </r>
       <r>   -13.3327     4.1098   114.6054 </r>
       <r>   -13.2249     6.7050   115.3285 </r>
       <r>   -13.1171     8.8848   116.2866 </r>
       <r>   -13.0092     5.9435   116.9276 </r>
       <r>   -12.9014     8.5355   117.8480 </r>
       <r>   -12.7936     5.4124   118.4317 </r>
       <r>   -12.6857     0.6267   118.4993 </r>
       <r>   -12.5779     0.2449   118.5257 </r>
       <r>   -12.4700     2.4306   118.7878 </r>
       <r>   -12.3622     7.7815   119.6270 </r>
       <r>   -12.2544    20.6165   121.8502 </r>
       <r>   -12.1465    32.7469   125.3816 </r>
       <r>   -12.0387    23.7914   127.9473 </r>
       <r>   -11.9308    11.6359   129.2021 </r>
       <r>   -11.8230    10.6561   130.3512 </r>
       <r>   -11.7152    13.7125   131.8300 </r>
       <r>   -11.6073    19.0117   133.8802 </r>
       <r>   -11.4995    22.2280   136.2772 </r>
       <r>   -11.3916    15.1425   137.9102 </r>
       <r>   -11.2838    12.8382   139.2946 </r>
       <r>   -11.1760     6.5275   139.9986 </r>
       <r>   -11.0681     7.1810   140.7730 </r>
       <r>   -10.9603     9.9766   141.8488 </r>
       <r>   -10.8524    11.0203   143.0372 </r>
       <r>   -10.7446    10.6996   144.1911 </r>
       <r>   -10.6368    16.4703   145.9672 </r>
       <r>   -10.5289    18.7627   147.9906 </r>
       <r>   -10.4211    13.7929   149.4780 </r>
       <r>   -10.3133    11.1803   150.6837 </r>
       <r>   -10.2054     6.8156   151.4186 </r>
       <r>   -10.0976     4.2851   151.8807 </r>
       <r>    -9.9897    10.5953   153.0233 </r>
       <r>    -9.8819    18.2341   154.9897 </r>
       <r>    -9.7741    23.9373   157.5711 </r>
       <r>    -9.6662    15.3792   159.2295 </r>
       <r>    -9.5584     6.4371   159.9237 </r>
       <r>    -9.4505    14.0156   161.4351 </r>
       <r>    -9.3427    24.2120   164.0461 </r>
       <r>    -9.2349    24.8690   166.7280 </r>
       <r>    -9.1270    10.6871   167.8805 </r>
       <r>    -9.0192     1.0893   167.9980 </r>
       <r>    -8.9113     0.0230   168.0004 </r>
       <r>    -8.8035     0.2503   168.0274 </r>
       <r>    -8.6957     2.2768   168.2730 </r>
       <r>    -8.5878     7.7804   169.1120 </r>
       <r>    -8.4800    17.0753   170.9534 </r>
       <r>    -8.3721    14.7944   172.5488 </r>
       <r>    -8.2643    13.5844   174.0137 </r>
       <r>    -8.1565    18.5763   176.0170 </r>
       <r>    -8.0486    14.5541   177.5865 </r>
       <r>    -7.9408     3.7613   177.9921 </r>
       <r>    -7.8330     3.6075   178.3811 </r>
       <r>    -7.7251    19.3080   180.4633 </r>
       <r>    -7.6173    35.7066   184.3138 </r>
       <r>    -7.5094    43.2731   188.9804 </r>
       <r>    -7.4016    33.1923   192.5598 </r>
       <r>    -7.2938    31.0826   195.9117 </r>
       <r>    -7.1859    29.4740   199.0902 </r>
       <r>    -7.0781    19.3290   201.1746 </r>
       <r>    -6.9702    10.9145   202.3516 </r>
       <r>    -6.8624    18.4046   204.3363 </r>
       <r>    -6.7546    28.0912   207.3657 </r>
       <r>    -6.6467    23.2103   209.8686 </r>
       <r>    -6.5389    19.7484   211.9983 </r>
       <r>    -6.4310    17.3737   213.8718 </r>
       <r>    -6.3232    12.3209   215.2005 </r>
       <r>    -6.2154    11.7143   216.4638 </r>
       <r>    -6.1075    11.5889   217.7135 </r>
       <r>    -5.9997     2.5809   217.9918 </r>
       <r>    -5.8918     0.7801   218.0760 </r>
       <r>    -5.7840     8.0551   218.9446 </r>
       <r>    -5.6762    26.2988   221.7807 </r>
       <r>    -5.5683    42.4578   226.3593 </r>
       <r>    -5.4605    44.4448   231.1522 </r>
       <r>    -5.3527    43.6853   235.8631 </r>
       <r>    -5.2448    44.5533   240.6677 </r>
       <r>    -5.1370    37.0851   244.6670 </r>
       <r>    -5.0291    35.7491   248.5221 </r>
       <r>    -4.9213    37.7981   252.5982 </r>
       <r>    -4.8135    30.9207   255.9327 </r>
       <r>    -4.7056    20.8167   258.1775 </r>
       <r>    -4.5978    27.2057   261.1114 </r>
       <r>    -4.4899    38.4952   265.2627 </r>
       <r>    -4.3821    37.1976   269.2740 </r>
       <r>    -4.2743    32.3744   272.7653 </r>
       <r>    -4.1664    10.7999   273.9299 </r>
       <r>    -4.0586     3.3212   274.2881 </r>
       <r>    -3.9507     9.9132   275.3571 </r>
       <r>    -3.8429     5.5275   275.9532 </r>
       <r>    -3.7351     0.4302   275.9996 </r>
       <r>    -3.6272     0.0041   276.0000 </r>
       <r>    -3.5194     0.0000   276.0000 </r>
       <r>    -3.4115     0.0000   276.0000 </r>
       <r>    -3.3037     0.0000   276.0000 </r>
       <r>    -3.1959     0.0000   276.0000 </r>
       <r>    -3.0880     0.0000   276.0000 </r>
       <r>    -2.9802     0.0000   276.0000 </r>
       <r>    -2.8724     0.0007   276.0001 </r>
       <r>    -2.7645     0.1437   276.0156 </r>
       <r>    -2.6567     3.2974   276.3712 </r>
       <r>    -2.5488    10.2123   277.4725 </r>
       <r>    -2.4410     5.1941   278.0326 </r>
       <r>    -2.3332     4.8862   278.5595 </r>
       <r>    -2.2253     9.1499   279.5462 </r>
       <r>    -2.1175    11.4636   280.7824 </r>
       <r>    -2.0096    12.2726   282.1059 </r>
       <r>    -1.9018    12.0751   283.4081 </r>
       <r>    -1.7940     8.2750   284.3004 </r>
       <r>    -1.6861     5.1973   284.8609 </r>
       <r>    -1.5783    11.3648   286.0865 </r>
       <r>    -1.4704    15.6671   287.7760 </r>
       <r>    -1.3626    16.7878   289.5864 </r>
       <r>    -1.2548    18.9577   291.6308 </r>
       <r>    -1.1469    13.6898   293.1071 </r>
       <r>    -1.0391     6.9048   293.8517 </r>
       <r>    -0.9312     6.3416   294.5355 </r>
       <r>    -0.8234    12.4637   295.8796 </r>
       <r>    -0.7156    18.3277   297.8561 </r>
       <r>    -0.6077    22.4259   300.2744 </r>
       <r>    -0.4999    13.0659   301.6835 </r>
       <r>    -0.3921     2.7855   301.9839 </r>
       <r>    -0.2842     0.1485   301.9999 </r>
       <r>    -0.1764     0.0056   302.0005 </r>
       <r>    -0.0685     0.3963   302.0432 </r>
       <r>     0.0393     4.9361   302.5755 </r>
       <r>     0.1471     9.7815   303.6303 </r>
       <r>     0.2550     3.2592   303.9818 </r>
       <r>     0.3628     0.1676   303.9999 </r>
       <r>     0.4707     0.0011   304.0000 </r>
       <r>     0.5785     0.0003   304.0000 </r>
       <r>     0.6863     0.0690   304.0075 </r>
       <r>     0.7942     2.0291   304.2263 </r>
       <r>     0.9020    10.7462   305.3851 </r>
       <r>     1.0099    18.1486   307.3423 </r>
       <r>     1.1177    21.7494   309.6877 </r>
       <r>     1.2255    21.8262   312.0414 </r>
       <r>     1.3334    22.2478   314.4406 </r>
       <r>     1.4412    21.3731   316.7455 </r>
       <r>     1.5491    20.4519   318.9510 </r>
       <r>     1.6569    21.3985   321.2586 </r>
       <r>     1.7647    17.9644   323.1958 </r>
       <r>     1.8726    19.6334   325.3131 </r>
       <r>     1.9804    20.0736   327.4778 </r>
       <r>     2.0882    20.5712   329.6962 </r>
       <r>     2.1961    14.1492   331.2220 </r>
       <r>     2.3039    11.9639   332.5122 </r>
       <r>     2.4118    15.9408   334.2312 </r>
       <r>     2.5196    18.4410   336.2199 </r>
       <r>     2.6274    20.6734   338.4493 </r>
       <r>     2.7353    22.8504   340.9135 </r>
       <r>     2.8431    18.4842   342.9068 </r>
       <r>     2.9510     8.7281   343.8480 </r>
       <r>     3.0588     1.3690   343.9957 </r>
       <r>     3.1666     0.0401   344.0000 </r>
       <r>     3.2745     0.0002   344.0000 </r>
       <r>     3.3823     0.0000   344.0000 </r>
       <r>     3.4902     0.0000   344.0000 </r>
       <r>     3.5980     0.0000   344.0000 </r>
       <r>     3.7058     0.0000   344.0000 </r>
       <r>     3.8137     0.0000   344.0000 </r>
       <r>     3.9215     0.0000   344.0000 </r>
       <r>     4.0294     0.0000   344.0000 </r>
       <r>     4.1372     0.0000   344.0000 </r>
       <r>     4.2450     0.0000   344.0000 </r>
       <r>     4.3529     0.0000   344.0000 </r>
      </set>
     </set>
    </array>
   </total>
  </dos>
 </calculation>
 <structure name="finalpos" >
  <crystal>
   <varray name="basis" >
    <v>      12.89948886       0.00000000       0.00000000 </v>
    <v>       0.00000000      11.69545305       0.00000000 </v>
    <v>       0.00000000       0.00000000      15.00000000 </v>
   </varray>
   <i name="volume">   2262.98049470 </i>
   <varray name="rec_basis" >
    <v>       0.07752245       0.00000000       0.00000000 </v>
    <v>       0.00000000       0.08550331       0.00000000 </v>
    <v>       0.00000000       0.00000000       0.06666667 </v>
   </varray>
  </crystal>
  <varray name="positions" >
   <v>       0.04546791       0.39650966       0.11597503 </v>
   <v>      -0.00463320       0.24092025       0.21734231 </v>
   <v>       0.20993302       0.39135563       0.06537841 </v>
   <v>       0.80115991       0.57629184       0.19900759 </v>
   <v>       0.15128645       0.22816922       0.12790406 </v>
   <v>       0.89749350       0.39807962       0.19748076 </v>
   <v>       0.54454561       0.39586874       0.13791338 </v>
   <v>       0.49514007       0.24136623       0.03683758 </v>
   <v>       0.71049429       0.39204690       0.18969900 </v>
   <v>       0.30003259       0.57602223       0.05647212 </v>
   <v>       0.65109181       0.22845023       0.12671893 </v>
   <v>       0.39674467       0.39885479       0.05627763 </v>
   <v>       0.83899974       0.89668861       0.11534875 </v>
   <v>       0.73335530       0.72864063       0.12736469 </v>
   <v>       0.98712212       0.89857219       0.19668011 </v>
   <v>       0.08382560       0.07556583       0.19869726 </v>
   <v>       0.88943231       0.74144067       0.21673304 </v>
   <v>       0.67392441       0.89169882       0.06564582 </v>
   <v>       0.33836273       0.89695606       0.13902241 </v>
   <v>       0.23342573       0.72782734       0.12845750 </v>
   <v>       0.48611525       0.89888355       0.05729514 </v>
   <v>       0.58344768       0.07565173       0.05618260 </v>
   <v>       0.38868569       0.74129579       0.03833464 </v>
   <v>       0.17432683       0.89135566       0.18980166 </v>
   <v>       0.95419659       0.44644209       0.13334729 </v>
   <v>       0.91534578       0.30460714       0.24553047 </v>
   <v>       0.11720361       0.44363025       0.06393250 </v>
   <v>       0.15455624       0.11659664       0.14320304 </v>
   <v>       0.01003493       0.13282538       0.24344083 </v>
   <v>       0.22816302       0.28314882       0.08825249 </v>
   <v>       0.06426664       0.28953968       0.15538903 </v>
   <v>       0.79905628       0.45540182       0.21106761 </v>
   <v>       0.45469361       0.44716163       0.12038082 </v>
   <v>       0.41515142       0.30516980       0.00872322 </v>
   <v>       0.61554353       0.44211761       0.19242911 </v>
   <v>       0.65408886       0.11704060       0.11189435 </v>
   <v>       0.50998949       0.13334250       0.01110399 </v>
   <v>       0.72792765       0.28449751       0.16553722 </v>
   <v>       0.56417776       0.28999877       0.09877740 </v>
   <v>       0.29885270       0.45517646       0.04340566 </v>
   <v>       0.76649178       0.94424283       0.06428464 </v>
   <v>       0.65641880       0.78289880       0.08746009 </v>
   <v>       0.93045332       0.94649037       0.13217677 </v>
   <v>       0.87522185       0.63311463       0.24293334 </v>
   <v>       0.72936073       0.61709681       0.14418129 </v>
   <v>       0.96884999       0.80523483       0.24496570 </v>
   <v>       0.82063049       0.78935201       0.15431468 </v>
   <v>       0.58466751       0.95538069       0.04424764 </v>
   <v>       0.26674027       0.94393390       0.19119953 </v>
   <v>       0.15651694       0.78263875       0.16796647 </v>
   <v>       0.42886758       0.94785991       0.12071129 </v>
   <v>       0.37354944       0.63326212       0.01172525 </v>
   <v>       0.23019493       0.61602324       0.11312252 </v>
   <v>       0.46842208       0.80478315       0.00975250 </v>
   <v>       0.31977553       0.78967062       0.10014234 </v>
   <v>       0.08503047       0.95511444       0.21055557 </v>
   <v>       0.50930031       0.78778439       0.35103656 </v>
   <v>       0.55470256       0.60360119       0.26556837 </v>
  </varray>
 </structure>
</modeling>
