slab_Cel1-OPT                           
           1
    14.265900    0.000000    0.000000
     0.000000   12.356997    0.000000
     0.000000    0.000000   15.000000
   C    N    Ag
    24    32     2
Direct configuration=     1
   0.06537593  0.40364000  0.13333000
   0.98097748  0.23494000  0.13333000
   0.22593437  0.39820000  0.13333000
   0.81543575  0.57710000  0.13333000
   0.14973747  0.23490000  0.13333000
   0.90517930  0.39797000  0.13333000
   0.56537593  0.40364000  0.13333000
   0.48097748  0.23494000  0.13333000
   0.72593437  0.39820000  0.13333000
   0.31543575  0.57710000  0.13333000
   0.64973747  0.23490000  0.13333000
   0.40517930  0.39797000  0.13333000
   0.81551954  0.90364000  0.13333000
   0.73112108  0.73494000  0.13333000
   0.97607797  0.89820000  0.13333000
   0.06529214  0.07710000  0.13333000
   0.89988107  0.73490000  0.13333000
   0.65532291  0.89797000  0.13333000
   0.31551954  0.90364000  0.13333000
   0.23112108  0.73494000  0.13333000
   0.47607797  0.89820000  0.13333000
   0.56529214  0.07710000  0.13333000
   0.39988107  0.73490000  0.13333000
   0.15532291  0.89797000  0.13333000
   0.98400093  0.45588000  0.13333000
   0.90111835  0.29021000  0.13333000
   0.14710595  0.45595000  0.13333000
   0.14840652  0.12714000  0.13333000
   0.98256150  0.12707000  0.13333000
   0.22992331  0.29008000  0.13333000
   0.06536362  0.29116000  0.13333000
   0.81553147  0.45774000  0.13333000
   0.48400093  0.45588000  0.13333000
   0.40111835  0.29021000  0.13333000
   0.64710595  0.45595000  0.13333000
   0.64840652  0.12714000  0.13333000
   0.48256150  0.12707000  0.13333000
   0.72992331  0.29008000  0.13333000
   0.56536362  0.29116000  0.13333000
   0.31553147  0.45774000  0.13333000
   0.73414454  0.95588000  0.13333000
   0.65126196  0.79021000  0.13333000
   0.89724956  0.95595000  0.13333000
   0.89855012  0.62714000  0.13333000
   0.73270510  0.62707000  0.13333000
   0.98006692  0.79008000  0.13333000
   0.81550723  0.79116000  0.13333000
   0.56567507  0.95774000  0.13333000
   0.23414454  0.95588000  0.13333000
   0.15126196  0.79021000  0.13333000
   0.39724956  0.95595000  0.13333000
   0.39855012  0.62714000  0.13333000
   0.23270510  0.62707000  0.13333000
   0.48006692  0.79008000  0.13333000
   0.31550723  0.79116000  0.13333000
   0.06567507  0.95774000  0.13333000
   0.51318019  0.65760505  0.14333042
   0.63498818  0.58816656  0.13951958
slab_Cel1-OPT                           
           1
    14.529799    0.000000    0.000000
     0.000000   12.499128    0.000000
     0.000000    0.000000   15.000000
   C    N    Ag
    24    32     2
Direct configuration=     2
   0.06552234  0.40385751  0.13333104
   0.98092130  0.23460126  0.13332938
   0.22590343  0.39800094  0.13333237
   0.81755689  0.57574457  0.13329349
   0.14990970  0.23469007  0.13332918
   0.90531931  0.39783807  0.13333424
   0.56443871  0.40211731  0.13324106
   0.48045639  0.23410147  0.13333210
   0.72805354  0.39681431  0.13330832
   0.31427092  0.57549184  0.13335206
   0.65020073  0.23397385  0.13333073
   0.40362674  0.39763488  0.13333910
   0.81591005  0.90441782  0.13334296
   0.73244714  0.73732489  0.13325431
   0.97649491  0.89829160  0.13332444
   0.06542496  0.07698030  0.13333197
   0.90062702  0.73493300  0.13333791
   0.65470214  0.89957826  0.13331112
   0.31524521  0.90466608  0.13333447
   0.23025469  0.73467831  0.13334623
   0.47674752  0.90011075  0.13331548
   0.56544456  0.07675482  0.13334122
   0.39473176  0.73848901  0.13290881
   0.15490124  0.89827015  0.13332220
   0.98394132  0.45604117  0.13333256
   0.90096873  0.29024017  0.13333044
   0.14697526  0.45605111  0.13333362
   0.14841956  0.12724465  0.13332991
   0.98241934  0.12727407  0.13333002
   0.22995002  0.29013109  0.13332890
   0.06537706  0.29116765  0.13332888
   0.81501949  0.45805359  0.13333634
   0.48519576  0.45594384  0.13330291
   0.40137750  0.29034058  0.13333186
   0.64715310  0.44413141  0.13284992
   0.64857575  0.12773757  0.13332332
   0.48227809  0.12772640  0.13332864
   0.72958747  0.29062791  0.13332829
   0.56550471  0.29178024  0.13332571
   0.31593357  0.45794717  0.13332938
   0.73418196  0.95564152  0.13334002
   0.65175609  0.78935129  0.13320212
   0.89660757  0.95586678  0.13332270
   0.89803690  0.62723127  0.13332139
   0.75288029  0.63633466  0.13187371
   0.97972987  0.78972216  0.13331733
   0.81532384  0.79084186  0.13342031
   0.56567400  0.95739289  0.13334805
   0.23472635  0.95580708  0.13332276
   0.15157815  0.78971738  0.13331513
   0.39716201  0.95550209  0.13335344
   0.39001148  0.62567287  0.13232313
   0.23301984  0.62740427  0.13333982
   0.47714158  0.79825259  0.13252817
   0.31603343  0.79077522  0.13339931
   0.06560677  0.95764578  0.13334150
   0.51854187  0.65403723  0.14584229
   0.62242279  0.58469496  0.14132392
slab_Cel1-OPT                           
           1
    14.439880    0.000000    0.000000
     0.000000   12.450699    0.000000
     0.000000    0.000000   15.000000
   C    N    Ag
    24    32     2
Direct configuration=     3
   0.06547336  0.40378424  0.13333069
   0.98094010  0.23471537  0.13332959
   0.22591378  0.39806800  0.13333156
   0.81684727  0.57620116  0.13330593
   0.14985208  0.23476079  0.13332946
   0.90527247  0.39788251  0.13333279
   0.56475225  0.40263024  0.13327137
   0.48063072  0.23438393  0.13333139
   0.72734459  0.39728109  0.13331571
   0.31466061  0.57603357  0.13334455
   0.65004575  0.23428583  0.13333048
   0.40414614  0.39774777  0.13333600
   0.81577941  0.90415581  0.13333854
   0.73200352  0.73652152  0.13328010
   0.97635543  0.89826074  0.13332633
   0.06538053  0.07702062  0.13333130
   0.90037747  0.73492188  0.13333521
   0.65490981  0.89903650  0.13331755
   0.31533699  0.90432044  0.13333295
   0.23054454  0.73476646  0.13334070
   0.47652352  0.89946710  0.13332043
   0.56539357  0.07687110  0.13333739
   0.39645444  0.73728002  0.13305233
   0.15504230  0.89816904  0.13332486
   0.98396126  0.45598688  0.13333169
   0.90101878  0.29023001  0.13333029
   0.14701898  0.45601705  0.13333239
   0.14841519  0.12720940  0.13332994
   0.98246690  0.12720533  0.13333001
   0.22994108  0.29011388  0.13332928
   0.06537257  0.29116508  0.13332926
   0.81519077  0.45794795  0.13333418
   0.48479604  0.45592233  0.13331214
   0.40129081  0.29029660  0.13333123
   0.64713733  0.44811260  0.13301350
   0.64851913  0.12753627  0.13332560
   0.48237290  0.12750529  0.13332910
   0.72969983  0.29044334  0.13332887
   0.56545751  0.29157131  0.13332717
   0.31579905  0.45787738  0.13332959
   0.73416944  0.95572186  0.13333660
   0.65159078  0.78964055  0.13324569
   0.89682234  0.95589481  0.13332519
   0.89820859  0.62720053  0.13332433
   0.74613079  0.63321378  0.13236992
   0.97984263  0.78984270  0.13332165
   0.81538519  0.79094903  0.13338954
   0.56567436  0.95750982  0.13334190
   0.23453171  0.95583164  0.13332523
   0.15147237  0.78988333  0.13332020
   0.39719130  0.95565297  0.13334545
   0.39286804  0.62616708  0.13266620
   0.23291455  0.62729167  0.13333648
   0.47812024  0.79549958  0.13280138
   0.31585739  0.79090484  0.13337569
   0.06562962  0.95767752  0.13333758
   0.51674815  0.65523908  0.14498641
   0.62662647  0.58586440  0.14070913
slab_Cel1-OPT                           
           1
    14.611218    0.000000    0.000000
     0.000000   12.528119    0.000000
     0.000000    0.000000   15.000000
   C    N    Ag
    24    32     2
Direct configuration=     4
   0.06555141  0.40399135  0.13333087
   0.98091486  0.23460797  0.13333043
   0.22562930  0.39784362  0.13333418
   0.82090162  0.57452210  0.13328331
   0.14995049  0.23471993  0.13332733
   0.90564443  0.39771591  0.13333406
   0.56388029  0.40018127  0.13318663
   0.48029207  0.23377772  0.13332600
   0.72918102  0.39542196  0.13328450
   0.31253984  0.57456208  0.13338457
   0.65050301  0.23382013  0.13332605
   0.40320197  0.39743212  0.13333272
   0.81602637  0.90465807  0.13334546
   0.73379879  0.73897725  0.13317439
   0.97626541  0.89823851  0.13332006
   0.06545837  0.07728276  0.13333377
   0.90072662  0.73453905  0.13333989
   0.65454866  0.90013500  0.13331562
   0.31537357  0.90519532  0.13333145
   0.22998795  0.73430934  0.13335268
   0.47673228  0.90230904  0.13331924
   0.56547090  0.07693008  0.13334457
   0.39348113  0.73920945  0.13267291
   0.15499873  0.89827959  0.13331209
   0.98392026  0.45576083  0.13333553
   0.90120887  0.29031783  0.13333019
   0.14695710  0.45576660  0.13333638
   0.14808024  0.12730895  0.13332932
   0.98273082  0.12735357  0.13333098
   0.22967434  0.29022730  0.13332829
   0.06539784  0.29111195  0.13332780
   0.81495776  0.45797568  0.13330804
   0.48557951  0.45585059  0.13333967
   0.40168566  0.29065920  0.13333865
   0.64732249  0.44082779  0.13264123
   0.64831958  0.12797793  0.13332157
   0.48250818  0.12798106  0.13333114
   0.72946169  0.29040135  0.13335192
   0.56523761  0.29162740  0.13329664
   0.31587483  0.45775893  0.13332673
   0.73412924  0.95522610  0.13334579
   0.65226505  0.78858089  0.13318828
   0.89657255  0.95559555  0.13331240
   0.89890439  0.62744351  0.13337667
   0.75012686  0.63718436  0.13162670
   0.97945784  0.78981893  0.13329490
   0.81569944  0.79188125  0.13348402
   0.56577285  0.95760755  0.13334185
   0.23474602  0.95551917  0.13332887
   0.15184258  0.78981368  0.13331171
   0.39688289  0.95542819  0.13338392
   0.38857467  0.62733079  0.13176983
   0.23289622  0.62764402  0.13335720
   0.47523070  0.79845220  0.13216120
   0.31525780  0.79129665  0.13343914
   0.06562636  0.95760542  0.13334952
   0.51116347  0.65862765  0.14742949
   0.63309796  0.58106914  0.14131166
slab_Cel1-OPT                           
           1
    14.691773    0.000000    0.000000
     0.000000   12.564518    0.000000
     0.000000    0.000000   15.000000
   C    N    Ag
    24    32     2
Direct configuration=     5
   0.06558767  0.40408812  0.13333095
   0.98090314  0.23455779  0.13333083
   0.22549712  0.39773879  0.13333541
   0.82278542  0.57373757  0.13327268
   0.14999622  0.23470084  0.13332633
   0.90581725  0.39763807  0.13333465
   0.56347514  0.39903699  0.13314678
   0.48013472  0.23349447  0.13332346
   0.73003430  0.39455329  0.13326983
   0.31155446  0.57387453  0.13340338
   0.65071547  0.23360253  0.13332396
   0.40276326  0.39728463  0.13333118
   0.81614112  0.90489275  0.13334871
   0.73463294  0.74012468  0.13312469
   0.97622358  0.89822813  0.13331711
   0.06549454  0.07740524  0.13333494
   0.90088885  0.73436018  0.13334210
   0.65438085  0.90064826  0.13331472
   0.31539057  0.90560410  0.13333075
   0.22972934  0.73409575  0.13335831
   0.47682927  0.90363692  0.13331868
   0.56550683  0.07695763  0.13334794
   0.39209962  0.74011097  0.13249453
   0.15497849  0.89833124  0.13330608
   0.98390121  0.45565520  0.13333733
   0.90129719  0.29035887  0.13333014
   0.14692835  0.45564958  0.13333826
   0.14792461  0.12735547  0.13332903
   0.98285346  0.12742284  0.13333143
   0.22955040  0.29028030  0.13332782
   0.06540959  0.29108712  0.13332711
   0.81484950  0.45798864  0.13329575
   0.48594354  0.45581707  0.13335262
   0.40186912  0.29082863  0.13334213
   0.64740853  0.43742399  0.13246621
   0.64822686  0.12818429  0.13331967
   0.48257104  0.12820336  0.13333210
   0.72935104  0.29038174  0.13336275
   0.56513543  0.29165361  0.13328229
   0.31591003  0.45770358  0.13332538
   0.73411055  0.95499446  0.13335011
   0.65257835  0.78808577  0.13316128
   0.89645649  0.95545573  0.13330639
   0.89922769  0.62755704  0.13340129
   0.75198358  0.63903960  0.13127728
   0.97927905  0.78980782  0.13328232
   0.81584545  0.79231683  0.13352844
   0.56581860  0.95765322  0.13334183
   0.23484559  0.95537317  0.13333059
   0.15201459  0.78978114  0.13330772
   0.39673959  0.95532316  0.13340200
   0.38657981  0.62787452  0.13134840
   0.23288771  0.62780865  0.13336695
   0.47388810  0.79983180  0.13186021
   0.31497920  0.79147972  0.13346898
   0.06562484  0.95757173  0.13335513
   0.50856862  0.66021095  0.14857811
   0.63610487  0.57882858  0.14159494
slab_Cel1-OPT                           
           1
    14.667751    0.000000    0.000000
     0.000000   12.560071    0.000000
     0.000000    0.000000   15.000000
   C    N    Ag
    24    32     2
Direct configuration=     6
   0.06559356  0.40404566  0.13332951
   0.98106042  0.23461205  0.13333232
   0.22489810  0.39734068  0.13334583
   0.82394755  0.57470467  0.13317342
   0.14983722  0.23473631  0.13332460
   0.90652865  0.39716382  0.13333054
   0.56326754  0.39698829  0.13307852
   0.48021395  0.23359168  0.13332174
   0.73022980  0.39293716  0.13321063
   0.30977357  0.57364355  0.13338227
   0.65085823  0.23387130  0.13331444
   0.40319303  0.39720954  0.13331872
   0.81633819  0.90505124  0.13336670
   0.73630532  0.74178349  0.13301676
   0.97567828  0.89802844  0.13331179
   0.06549132  0.07790392  0.13333603
   0.90108427  0.73441894  0.13334783
   0.65482973  0.90032908  0.13331060
   0.31540073  0.90614331  0.13334083
   0.22942004  0.73386482  0.13336802
   0.47606513  0.90534845  0.13329035
   0.56555748  0.07775235  0.13335756
   0.39051052  0.74098774  0.13200700
   0.15543902  0.89813755  0.13328849
   0.98395303  0.45502059  0.13334060
   0.90191253  0.29054961  0.13333022
   0.14687314  0.45503704  0.13334337
   0.14727560  0.12762630  0.13332939
   0.98352620  0.12766062  0.13333368
   0.22893690  0.29046469  0.13332637
   0.06543516  0.29114445  0.13332623
   0.81563512  0.45765040  0.13328376
   0.48587617  0.45530230  0.13339603
   0.40223203  0.29118359  0.13335252
   0.64701645  0.43399345  0.13215405
   0.64753062  0.12820078  0.13332263
   0.48322833  0.12807081  0.13333428
   0.72967319  0.28873790  0.13338848
   0.56436341  0.28995884  0.13325582
   0.31535558  0.45720939  0.13333168
   0.73379829  0.95449214  0.13335351
   0.65327573  0.78835516  0.13314069
   0.89659003  0.95509074  0.13329315
   0.90116895  0.62775427  0.13347292
   0.75238919  0.63911176  0.13082717
   0.97873672  0.79008481  0.13326443
   0.81681220  0.79423345  0.13361968
   0.56593131  0.95848723  0.13334609
   0.23465960  0.95494533  0.13333782
   0.15237491  0.79015731  0.13330632
   0.39625612  0.95596420  0.13345647
   0.38410699  0.62930922  0.13026406
   0.23215689  0.62790325  0.13343347
   0.47156635  0.80173386  0.13093336
   0.31318211  0.79274468  0.13360517
   0.06565155  0.95762202  0.13335931
   0.51021892  0.65841115  0.15127442
   0.63900179  0.57888626  0.14208835
slab_Cel1-OPT                           
           1
    14.631397    0.000000    0.000000
     0.000000   12.553340    0.000000
     0.000000    0.000000   15.000000
   C    N    Ag
    24    32     2
Direct configuration=     7
   0.06560249  0.40398139  0.13332733
   0.98129884  0.23469419  0.13333458
   0.22399008  0.39673798  0.13336159
   0.82570915  0.57616877  0.13302320
   0.14959620  0.23479000  0.13332199
   0.90760704  0.39644585  0.13332431
   0.56295286  0.39388675  0.13297521
   0.48033406  0.23373883  0.13331913
   0.73052615  0.39049050  0.13312103
   0.30707401  0.57329387  0.13335032
   0.65107462  0.23427819  0.13330002
   0.40384448  0.39709585  0.13329988
   0.81663691  0.90529117  0.13339393
   0.73884039  0.74429479  0.13285343
   0.97485169  0.89772612  0.13330374
   0.06548644  0.07865887  0.13333769
   0.90138050  0.73450790  0.13335651
   0.65551018  0.89984588  0.13330436
   0.31541613  0.90695962  0.13335608
   0.22895118  0.73351522  0.13338271
   0.47490680  0.90793953  0.13324749
   0.56563426  0.07895548  0.13337212
   0.38810168  0.74231508  0.13126919
   0.15613712  0.89784431  0.13326186
   0.98403159  0.45405983  0.13334555
   0.90284530  0.29083839  0.13333034
   0.14678945  0.45410971  0.13335110
   0.14629179  0.12803631  0.13332994
   0.98454599  0.12802059  0.13333708
   0.22800692  0.29074383  0.13332416
   0.06547393  0.29123124  0.13332491
   0.81682601  0.45713832  0.13326561
   0.48577405  0.45452299  0.13346174
   0.40278213  0.29172096  0.13336824
   0.64642212  0.42879994  0.13168165
   0.64647522  0.12822575  0.13332711
   0.48422468  0.12787014  0.13333756
   0.73016151  0.28624929  0.13342741
   0.56319315  0.28739312  0.13321575
   0.31451510  0.45646122  0.13334120
   0.73332494  0.95373168  0.13335866
   0.65433286  0.78876301  0.13310952
   0.89679245  0.95453818  0.13327312
   0.90411160  0.62805285  0.13358134
   0.75300402  0.63922100  0.13014599
   0.97791465  0.79050416  0.13323736
   0.81827764  0.79713503  0.13375777
   0.56610216  0.95974984  0.13335253
   0.23437765  0.95429761  0.13334876
   0.15292110  0.79072680  0.13330420
   0.39552326  0.95693468  0.13353891
   0.38035858  0.63148121  0.12862305
   0.23104907  0.62804647  0.13353415
   0.46804691  0.80461339  0.12953070
   0.31045798  0.79465972  0.13381129
   0.06569204  0.95769816  0.13336565
   0.51272053  0.65568642  0.15535494
   0.64339308  0.57897359  0.14283505
slab_Cel1-OPT                           
           1
    14.604680    0.000000    0.000000
     0.000000   12.538377    0.000000
     0.000000    0.000000   15.000000
   C    N    Ag
    24    32     2
Direct configuration=     8
   0.06558546  0.40352028  0.13332729
   0.98189171  0.23470166  0.13333614
   0.22358007  0.39617609  0.13338099
   0.82690886  0.57710094  0.13281456
   0.14901281  0.23479693  0.13332003
   0.90805395  0.39612198  0.13330797
   0.56237402  0.39192926  0.13284939
   0.48018637  0.23292011  0.13332085
   0.73100075  0.38867613  0.13300299
   0.30557882  0.57314495  0.13315649
   0.65078803  0.23301008  0.13328348
   0.40437081  0.39764836  0.13330409
   0.81688944  0.90686311  0.13343673
   0.74027743  0.74458661  0.13261037
   0.97482510  0.89758048  0.13329799
   0.06550492  0.07852851  0.13333898
   0.90241651  0.73519074  0.13337920
   0.65557228  0.89931133  0.13328748
   0.31455493  0.90769032  0.13341162
   0.22807730  0.73415326  0.13342159
   0.47406553  0.90948183  0.13310849
   0.56598837  0.07960992  0.13338884
   0.38679585  0.74311101  0.13038891
   0.15643172  0.89767867  0.13323598
   0.98462505  0.45360095  0.13334882
   0.90354339  0.29043570  0.13333188
   0.14643882  0.45373461  0.13335962
   0.14617660  0.12865439  0.13333051
   0.98470124  0.12860904  0.13334248
   0.22740488  0.29040941  0.13332449
   0.06546021  0.29136004  0.13332360
   0.81804933  0.45662211  0.13323413
   0.48587459  0.45358107  0.13358294
   0.40301583  0.29146914  0.13337403
   0.64573806  0.42863356  0.13134698
   0.64630251  0.12842373  0.13334664
   0.48403208  0.12798421  0.13334964
   0.73131491  0.28299747  0.13348859
   0.56244332  0.28491980  0.13316040
   0.31344966  0.45601539  0.13336455
   0.73361895  0.95367247  0.13335759
   0.65555532  0.78929825  0.13313297
   0.89683379  0.95509931  0.13325359
   0.90654280  0.62846706  0.13371002
   0.75509857  0.64168599  0.12923862
   0.97792670  0.79119066  0.13321514
   0.81956011  0.79781384  0.13388277
   0.56589871  0.96067537  0.13336913
   0.23388188  0.95488145  0.13335768
   0.15239771  0.79105722  0.13329934
   0.39398282  0.95975041  0.13369765
   0.38083125  0.63454160  0.12706098
   0.22809935  0.62812417  0.13376944
   0.46602032  0.80245524  0.12821126
   0.30848913  0.79593092  0.13404887
   0.06562498  0.95776421  0.13336200
   0.51306773  0.65431139  0.15952574
   0.64549109  0.57598889  0.14351746
slab_Cel1-OPT                           
           1
    14.583310    0.000000    0.000000
     0.000000   12.526408    0.000000
     0.000000    0.000000   15.000000
   C    N    Ag
    24    32     2
Direct configuration=     9
   0.06557182  0.40315101  0.13332726
   0.98236682  0.23470764  0.13333739
   0.22325152  0.39572610  0.13339650
   0.82787024  0.57784746  0.13264767
   0.14854531  0.23480247  0.13331846
   0.90841209  0.39586262  0.13329490
   0.56191017  0.39036164  0.13274875
   0.48006802  0.23226444  0.13332222
   0.73138106  0.38722311  0.13290857
   0.30438064  0.57302569  0.13300145
   0.65055838  0.23199453  0.13327025
   0.40479259  0.39809083  0.13330747
   0.81709180  0.90812198  0.13347095
   0.74142899  0.74482030  0.13241595
   0.97480379  0.89746385  0.13329339
   0.06551973  0.07842411  0.13334001
   0.90324671  0.73573758  0.13339735
   0.65562205  0.89888324  0.13327398
   0.31386480  0.90827550  0.13345604
   0.22737702  0.73466422  0.13345270
   0.47339138  0.91071695  0.13299730
   0.56627215  0.08013402  0.13340222
   0.38574943  0.74374841  0.12968479
   0.15666779  0.89754602  0.13321528
   0.98510062  0.45323345  0.13335143
   0.90410280  0.29011321  0.13333312
   0.14615784  0.45343421  0.13336643
   0.14608429  0.12914937  0.13333096
   0.98482565  0.12908029  0.13334680
   0.22692244  0.29014159  0.13332475
   0.06544922  0.29146318  0.13332255
   0.81902963  0.45620870  0.13320896
   0.48595515  0.45282675  0.13367989
   0.40320310  0.29126748  0.13337867
   0.64518988  0.42850032  0.13107928
   0.64616410  0.12858228  0.13336226
   0.48387774  0.12807557  0.13335930
   0.73223918  0.28039328  0.13353752
   0.56184245  0.28293908  0.13311613
   0.31259587  0.45565836  0.13338323
   0.73385455  0.95362506  0.13335674
   0.65653493  0.78972690  0.13315174
   0.89686691  0.95554869  0.13323796
   0.90849103  0.62879877  0.13381294
   0.75677703  0.64366004  0.12851282
   0.97793636  0.79174043  0.13319738
   0.82058782  0.79835745  0.13398277
   0.56573568  0.96141658  0.13338242
   0.23348460  0.95534902  0.13336482
   0.15197830  0.79132184  0.13329545
   0.39274840  0.96200535  0.13382463
   0.38121002  0.63699247  0.12581151
   0.22573560  0.62818640  0.13395764
   0.46439632  0.80072691  0.12715587
   0.30691140  0.79694894  0.13423891
   0.06557125  0.95781710  0.13335908
   0.51334596  0.65321021  0.16286190
   0.64717233  0.57359862  0.14406332
slab_Cel1-OPT                           
           1
    14.566093    0.000000    0.000000
     0.000000   12.538820    0.000000
     0.000000    0.000000   15.000000
   C    N    Ag
    24    32     2
Direct configuration=    10
   0.06570813  0.40244411  0.13332849
   0.98309621  0.23490692  0.13333944
   0.22301528  0.39524854  0.13342248
   0.82986734  0.57846495  0.13235731
   0.14787013  0.23503910  0.13331696
   0.90856166  0.39572136  0.13326380
   0.56175182  0.38907493  0.13256796
   0.47898170  0.23115271  0.13331754
   0.73161044  0.38517237  0.13274089
   0.30435283  0.57535245  0.13242950
   0.65052678  0.23069869  0.13325163
   0.40451851  0.39756362  0.13333577
   0.81728256  0.90913242  0.13354660
   0.74221177  0.74599555  0.13209961
   0.97531789  0.89854865  0.13328598
   0.06550052  0.07774090  0.13333818
   0.90418084  0.73632199  0.13345179
   0.65581810  0.89901462  0.13327713
   0.31236813  0.90924141  0.13357857
   0.22599620  0.73565129  0.13355450
   0.47178284  0.90949021  0.13257820
   0.56597897  0.07979039  0.13342520
   0.38419647  0.74509678  0.12849011
   0.15595506  0.89809868  0.13319209
   0.98553418  0.45340298  0.13334753
   0.90423521  0.28966301  0.13333368
   0.14601849  0.45349917  0.13337441
   0.14643036  0.12903364  0.13333152
   0.98454895  0.12893594  0.13335682
   0.22693814  0.28945589  0.13332911
   0.06546898  0.29137677  0.13332195
   0.81978581  0.45575643  0.13311801
   0.48605148  0.45212202  0.13389430
   0.40271468  0.29122457  0.13337375
   0.64528249  0.42755248  0.13067892
   0.64682354  0.12705131  0.13340969
   0.48300829  0.12686183  0.13339100
   0.73314891  0.27856937  0.13360859
   0.56259768  0.28255917  0.13298941
   0.31202762  0.45629988  0.13338798
   0.73397029  0.95455942  0.13332494
   0.65736799  0.78980851  0.13323486
   0.89770358  0.95757044  0.13321662
   0.91018633  0.62902358  0.13399598
   0.75815757  0.64417166  0.12736584
   0.97969670  0.79296248  0.13317311
   0.82178654  0.79856647  0.13414418
   0.56492936  0.96130447  0.13338045
   0.23223885  0.95722965  0.13338013
   0.15004354  0.79179408  0.13328794
   0.39196435  0.96463188  0.13408395
   0.38105766  0.63671144  0.12410499
   0.22338184  0.62756797  0.13435744
   0.46445623  0.80023705  0.12583880
   0.30643998  0.79718820  0.13444677
   0.06542490  0.95807241  0.13333989
   0.51332099  0.65214866  0.16813836
   0.64903105  0.57181615  0.14477937
slab_Cel1-OPT                           
           1
    14.547480    0.000000    0.000000
     0.000000   12.552241    0.000000
     0.000000    0.000000   15.000000
   C    N    Ag
    24    32     2
Direct configuration=    11
   0.06585568  0.40168058  0.13332982
   0.98388574  0.23512216  0.13334165
   0.22275957  0.39473271  0.13345056
   0.83202911  0.57913192  0.13204339
   0.14713928  0.23529468  0.13331534
   0.90872357  0.39556879  0.13323018
   0.56158042  0.38768515  0.13237249
   0.47780580  0.22995191  0.13331247
   0.73185873  0.38295736  0.13255960
   0.30432273  0.57786559  0.13181113
   0.65049257  0.22929904  0.13323150
   0.40422182  0.39699417  0.13336637
   0.81748905  0.91022381  0.13362838
   0.74305910  0.74726494  0.13175759
   0.97587439  0.89972036  0.13327797
   0.06547973  0.07700297  0.13333621
   0.90519199  0.73695321  0.13351065
   0.65603032  0.89915653  0.13328053
   0.31074806  0.91028469  0.13371105
   0.22450152  0.73671743  0.13366457
   0.47004168  0.90816519  0.13212507
   0.56566161  0.07941923  0.13345004
   0.38251545  0.74655316  0.12719846
   0.15518356  0.89869561  0.13316702
   0.98600349  0.45358609  0.13334330
   0.90437854  0.28917674  0.13333429
   0.14586765  0.45356934  0.13338303
   0.14680496  0.12890864  0.13333213
   0.98424944  0.12878003  0.13336766
   0.22695513  0.28871526  0.13333382
   0.06549038  0.29128343  0.13332131
   0.82060435  0.45526793  0.13301967
   0.48615577  0.45136084  0.13412610
   0.40218599  0.29117823  0.13336843
   0.64538273  0.42652871  0.13024605
   0.64753735  0.12539769  0.13346097
   0.48206715  0.12555086  0.13342528
   0.73413365  0.27659935  0.13368544
   0.56341519  0.28214884  0.13285241
   0.31141252  0.45699279  0.13339311
   0.73409557  0.95556863  0.13329055
   0.65826973  0.78989667  0.13332472
   0.89860923  0.95975416  0.13319355
   0.91202142  0.62926640  0.13419388
   0.75965195  0.64472426  0.12612574
   0.98160219  0.79428242  0.13314687
   0.82308410  0.79879223  0.13431870
   0.56405655  0.96118337  0.13337833
   0.23089038  0.95926094  0.13339668
   0.14794924  0.79230415  0.13327981
   0.39111566  0.96746883  0.13436433
   0.38089274  0.63640790  0.12225993
   0.22083401  0.62689999  0.13478970
   0.46452107  0.79970794  0.12441481
   0.30592968  0.79744663  0.13467150
   0.06526649  0.95834818  0.13331914
   0.51329396  0.65100207  0.17384315
   0.65104303  0.56989090  0.14555355
slab_Cel1-OPT                           
           1
    14.497851    0.000000    0.000000
     0.000000   12.539524    0.000000
     0.000000    0.000000   15.000000
   C    N    Ag
    24    32     2
Direct configuration=    12
   0.06596090  0.40168640  0.13333196
   0.98382278  0.23479556  0.13334650
   0.22290647  0.39477794  0.13347087
   0.83342357  0.57970334  0.13166118
   0.14719500  0.23486486  0.13331805
   0.90881265  0.39541091  0.13318411
   0.56189581  0.38735880  0.13217993
   0.47704198  0.22900487  0.13330859
   0.73175351  0.38115206  0.13235325
   0.30367896  0.57960186  0.13115541
   0.65103962  0.22776489  0.13321983
   0.40345940  0.39649097  0.13341098
   0.81853149  0.91124179  0.13372841
   0.74383900  0.74740261  0.13137431
   0.97660041  0.90159130  0.13326777
   0.06547894  0.07683012  0.13332913
   0.90719324  0.73803007  0.13359550
   0.65603886  0.89983034  0.13330735
   0.30970052  0.91227149  0.13390499
   0.22235936  0.73662243  0.13384933
   0.46857343  0.90738059  0.13163507
   0.56493694  0.07782399  0.13347412
   0.38330817  0.74586040  0.12570156
   0.15339418  0.89995856  0.13316235
   0.98611970  0.45354961  0.13332863
   0.90452614  0.28913878  0.13333144
   0.14591053  0.45322551  0.13338261
   0.14683318  0.12863269  0.13333241
   0.98425674  0.12854026  0.13338022
   0.22708113  0.28840190  0.13334609
   0.06559021  0.29109617  0.13332247
   0.82130630  0.45471901  0.13287105
   0.48619157  0.45061456  0.13436756
   0.40151173  0.29083659  0.13335684
   0.64616300  0.42467775  0.12975398
   0.64793577  0.12385940  0.13352827
   0.48127368  0.12480452  0.13346049
   0.73450863  0.27585959  0.13376405
   0.56360433  0.28128404  0.13267013
   0.31140906  0.45782463  0.13336036
   0.73425116  0.95638537  0.13323451
   0.65871045  0.79005669  0.13341349
   0.89888015  0.96137801  0.13317657
   0.91360420  0.62998960  0.13443843
   0.76021595  0.64434509  0.12488004
   0.98269019  0.79492222  0.13313215
   0.82408399  0.79968110  0.13450994
   0.56324316  0.96015039  0.13334072
   0.22970550  0.96051741  0.13341562
   0.14660274  0.79292148  0.13327831
   0.39034576  0.96758562  0.13461515
   0.38090255  0.63652875  0.12056979
   0.22004500  0.62765065  0.13520422
   0.46463153  0.79957708  0.12318342
   0.30462910  0.79834751  0.13488577
   0.06523202  0.95890823  0.13328799
   0.51294497  0.65020927  0.17954678
   0.65233740  0.57001598  0.14638997
slab_Cel1-OPT                           
           1
    14.428962    0.000000    0.000000
     0.000000   12.521872    0.000000
     0.000000    0.000000   15.000000
   C    N    Ag
    24    32     2
Direct configuration=    13
   0.06610746  0.40169449  0.13333493
   0.98373507  0.23434175  0.13335324
   0.22311109  0.39484080  0.13349905
   0.83536587  0.58049733  0.13113062
   0.14727261  0.23426763  0.13332181
   0.90893671  0.39519154  0.13312017
   0.56233510  0.38690532  0.13191263
   0.47597808  0.22768894  0.13330321
   0.73160695  0.37864357  0.13206680
   0.30278229  0.58201444  0.13024521
   0.65180159  0.22563316  0.13320364
   0.40239745  0.39579175  0.13347291
   0.81998347  0.91265630  0.13386727
   0.74492531  0.74759389  0.13084227