       N       E                     dE             d eps       ncg     rms          rms(c)
DAV:   1     0.249329431951E+04    0.24933E+04   -0.10605E+05  1608   0.106E+03
DAV:   2    -0.579675833392E+02   -0.25513E+04   -0.24485E+04  1984   0.293E+02
DAV:   3    -0.493975814857E+03   -0.43601E+03   -0.43166E+03  1680   0.132E+02
DAV:   4    -0.508104277565E+03   -0.14128E+02   -0.13719E+02  1608   0.270E+01
DAV:   5    -0.508689426622E+03   -0.58515E+00   -0.57735E+00  1864   0.445E+00    0.444E+01
DAV:   6    -0.480471276994E+03    0.28218E+02   -0.12237E+02  1624   0.326E+01    0.322E+01
DAV:   7    -0.475919682973E+03    0.45516E+01   -0.24243E+01  1568   0.218E+01    0.159E+01
DAV:   8    -0.474656204176E+03    0.12635E+01   -0.49158E+00  1608   0.851E+00    0.661E+00
DAV:   9    -0.474473442166E+03    0.18276E+00   -0.18260E+00  1600   0.508E+00    0.191E+00
DAV:  10    -0.474460689250E+03    0.12753E-01   -0.23658E-01  1632   0.180E+00    0.788E-01
DAV:  11    -0.474462831100E+03   -0.21419E-02   -0.48723E-02  1584   0.641E-01    0.436E-01
DAV:  12    -0.474467125862E+03   -0.42948E-02   -0.80553E-03  1592   0.265E-01    0.191E-01
DAV:  13    -0.474471839371E+03   -0.47135E-02   -0.31637E-03  1568   0.163E-01    0.129E-01
DAV:  14    -0.474476967039E+03   -0.51277E-02   -0.20644E-03  1584   0.110E-01    0.746E-02
DAV:  15    -0.474483618187E+03   -0.66511E-02   -0.18805E-03  1624   0.840E-02    0.528E-02
DAV:  16    -0.474488395767E+03   -0.47776E-02   -0.77293E-04  1640   0.528E-02    0.348E-02
DAV:  17    -0.474490837847E+03   -0.24421E-02   -0.28108E-04  1528   0.378E-02    0.253E-02
DAV:  18    -0.474492433203E+03   -0.15954E-02   -0.16230E-04  1360   0.243E-02    0.120E-02
DAV:  19    -0.474493585436E+03   -0.11522E-02   -0.14941E-04  1528   0.446E-02    0.146E-02
DAV:  20    -0.474493712309E+03   -0.12687E-03   -0.29572E-05  1288   0.128E-02    0.140E-02
DAV:  21    -0.474493752338E+03   -0.40029E-04   -0.23447E-06   944   0.592E-03    0.121E-02
DAV:  22    -0.474494293308E+03   -0.54097E-03   -0.26866E-04  1576   0.784E-02    0.224E-02
DAV:  23    -0.474494404143E+03   -0.11084E-03   -0.62328E-05  1344   0.227E-02    0.191E-02
DAV:  24    -0.474494462504E+03   -0.58361E-04   -0.24811E-05  1112   0.211E-02    0.845E-03
DAV:  25    -0.474494562123E+03   -0.99619E-04   -0.37190E-05  1240   0.200E-02    0.774E-03
DAV:  26    -0.474494576478E+03   -0.14355E-04   -0.55246E-06   992   0.755E-03    0.881E-03
DAV:  27    -0.474494578427E+03   -0.19488E-05   -0.62581E-07   904   0.295E-03
   1 F= -.47449458E+03 E0= -.47446384E+03  d E =-.474495E+03
       N       E                     dE             d eps       ncg     rms          rms(c)
DAV:   1    -0.475877725013E+03   -0.13831E+01   -0.90200E+01  1432   0.210E+01    0.342E+00
DAV:   2    -0.475917359867E+03   -0.39635E-01   -0.10643E+00  1616   0.334E+00    0.306E+00
DAV:   3    -0.475911867129E+03    0.54927E-02   -0.97289E-02  1632   0.113E+00    0.174E+00
DAV:   4    -0.475908191901E+03    0.36752E-02   -0.48278E-02  1568   0.766E-01    0.572E-01
DAV:   5    -0.475907291607E+03    0.90029E-03   -0.79454E-03  1576   0.324E-01    0.173E-01
DAV:   6    -0.475907119496E+03    0.17211E-03   -0.14165E-03  1656   0.115E-01    0.744E-02
DAV:   7    -0.475907108241E+03    0.11255E-04   -0.38147E-04  1600   0.514E-02    0.340E-02
DAV:   8    -0.475907126025E+03   -0.17784E-04   -0.78480E-05  1600   0.257E-02    0.151E-02
DAV:   9    -0.475907141013E+03   -0.14989E-04   -0.12491E-05   984   0.115E-02    0.757E-03
DAV:  10    -0.475907154119E+03   -0.13106E-04   -0.31368E-06   960   0.553E-03    0.326E-03
DAV:  11    -0.475907168568E+03   -0.14448E-04   -0.13540E-06   960   0.276E-03    0.137E-03
DAV:  12    -0.475907180022E+03   -0.11454E-04   -0.77343E-07   960   0.173E-03    0.112E-03
DAV:  13    -0.475907187649E+03   -0.76274E-05   -0.46090E-07   968   0.125E-03
   2 F= -.47590719E+03 E0= -.47587598E+03  d E =-.141261E+01
       N       E                     dE             d eps       ncg     rms          rms(c)
DAV:   1    -0.476728567686E+03   -0.82139E+00   -0.28371E+02  1440   0.373E+01    0.497E+00
DAV:   2    -0.476861379652E+03   -0.13281E+00   -0.33843E+00  1640   0.572E+00    0.433E+00
DAV:   3    -0.476842409478E+03    0.18970E-01   -0.26774E-01  1664   0.175E+00    0.254E+00
DAV:   4    -0.476828779255E+03    0.13630E-01   -0.12135E-01  1584   0.112E+00    0.103E+00
DAV:   5    -0.476827672794E+03    0.11065E-02   -0.17054E-02  1600   0.466E-01    0.340E-01
DAV:   6    -0.476827150110E+03    0.52268E-03   -0.33484E-03  1672   0.177E-01    0.152E-01
DAV:   7    -0.476827016320E+03    0.13379E-03   -0.13919E-03  1616   0.103E-01    0.715E-02
DAV:   8    -0.476827037880E+03   -0.21559E-04   -0.31141E-04  1592   0.471E-02    0.313E-02
DAV:   9    -0.476827079049E+03   -0.41169E-04   -0.57314E-05  1584   0.208E-02    0.157E-02
DAV:  10    -0.476827108835E+03   -0.29786E-04   -0.79209E-06   960   0.986E-03    0.716E-03
DAV:  11    -0.476827152768E+03   -0.43933E-04   -0.48468E-06  1008   0.520E-03    0.232E-03
DAV:  12    -0.476827175108E+03   -0.22341E-04   -0.14122E-06   960   0.298E-03    0.234E-03
DAV:  13    -0.476827197910E+03   -0.22801E-04   -0.11779E-06   944   0.201E-03    0.130E-03
DAV:  14    -0.476827221619E+03   -0.23709E-04   -0.19557E-06  1032   0.195E-03    0.835E-04
DAV:  15    -0.476827229880E+03   -0.82609E-05   -0.50748E-07   952   0.125E-03
   3 F= -.47682723E+03 E0= -.47679470E+03  d E =-.233265E+01
       N       E                     dE             d eps       ncg     rms          rms(c)
DAV:   1    -0.477374875579E+03   -0.54765E+00   -0.78274E+01  1440   0.197E+01    0.217E+00
DAV:   2    -0.477459058282E+03   -0.84183E-01   -0.10629E+00  1600   0.287E+00    0.131E+00
DAV:   3    -0.477451526842E+03    0.75314E-02   -0.54662E-02  1672   0.721E-01    0.789E-01
DAV:   4    -0.477449584786E+03    0.19421E-02   -0.19898E-02  1552   0.470E-01    0.359E-01
DAV:   5    -0.477449392283E+03    0.19250E-03   -0.46913E-03  1640   0.234E-01    0.114E-01
DAV:   6    -0.477449352016E+03    0.40267E-04   -0.75331E-04  1632   0.868E-02    0.665E-02
DAV:   7    -0.477449371129E+03   -0.19113E-04   -0.19380E-04  1544   0.376E-02    0.332E-02
DAV:   8    -0.477449402370E+03   -0.31241E-04   -0.35330E-05  1296   0.185E-02    0.158E-02
DAV:   9    -0.477449430971E+03   -0.28601E-04   -0.14726E-05   952   0.119E-02    0.614E-03
DAV:  10    -0.477449453833E+03   -0.22862E-04   -0.44495E-06   968   0.582E-03    0.395E-03
DAV:  11    -0.477449476569E+03   -0.22737E-04   -0.18422E-06   944   0.313E-03    0.205E-03
DAV:  12    -0.477449501011E+03   -0.24442E-04   -0.22787E-06   992   0.289E-03    0.149E-03
DAV:  13    -0.477449513447E+03   -0.12436E-04   -0.83110E-07   952   0.180E-03    0.108E-03
DAV:  14    -0.477449522136E+03   -0.86884E-05   -0.69801E-07   928   0.129E-03
   4 F= -.47744952E+03 E0= -.47741750E+03  d E =-.622292E+00
       N       E                     dE             d eps       ncg     rms          rms(c)
DAV:   1    -0.477549840913E+03   -0.10033E+00   -0.43129E+01  1440   0.146E+01    0.156E+00
DAV:   2    -0.477594863653E+03   -0.45023E-01   -0.57535E-01  1600   0.212E+00    0.901E-01
DAV:   3    -0.477591043773E+03    0.38199E-02   -0.31018E-02  1648   0.533E-01    0.564E-01
DAV:   4    -0.477590078100E+03    0.96567E-03   -0.10693E-02  1560   0.319E-01    0.258E-01
DAV:   5    -0.477589958913E+03    0.11919E-03   -0.30994E-03  1656   0.169E-01    0.893E-02
DAV:   6    -0.477589939891E+03    0.19022E-04   -0.70300E-04  1656   0.691E-02    0.463E-02
DAV:   7    -0.477589948182E+03   -0.82908E-05   -0.12658E-04  1536   0.290E-02    0.284E-02
DAV:   8    -0.477589964215E+03   -0.16033E-04   -0.21803E-05   968   0.131E-02    0.138E-02
DAV:   9    -0.477589985255E+03   -0.21040E-04   -0.10566E-05   960   0.964E-03    0.477E-03
DAV:  10    -0.477590001103E+03   -0.15848E-04   -0.34617E-06   968   0.515E-03    0.321E-03
DAV:  11    -0.477590014359E+03   -0.13256E-04   -0.12867E-06   960   0.296E-03    0.180E-03
DAV:  12    -0.477590026179E+03   -0.11821E-04   -0.10542E-06   944   0.202E-03    0.107E-03
DAV:  13    -0.477590036545E+03   -0.10365E-04   -0.79568E-07   960   0.159E-03    0.927E-04
DAV:  14    -0.477590043010E+03   -0.64655E-05   -0.56206E-07   960   0.122E-03
   5 F= -.47759004E+03 E0= -.47755821E+03  d E =-.762813E+00
       N       E                     dE             d eps       ncg     rms          rms(c)
DAV:   1    -0.477889805941E+03   -0.29977E+00   -0.79991E+01  1448   0.190E+01    0.173E+00
DAV:   2    -0.477953305343E+03   -0.63499E-01   -0.86572E-01  1624   0.253E+00    0.103E+00
DAV:   3    -0.477949067017E+03    0.42383E-02   -0.46817E-02  1712   0.625E-01    0.579E-01
DAV:   4    -0.477948270668E+03    0.79635E-03   -0.95837E-03  1640   0.292E-01    0.237E-01
DAV:   5    -0.477948335890E+03   -0.65223E-04   -0.17077E-03  1616   0.142E-01    0.972E-02
DAV:   6    -0.477948360771E+03   -0.24881E-04   -0.50881E-04  1576   0.682E-02    0.511E-02
DAV:   7    -0.477948382867E+03   -0.22095E-04   -0.11828E-04  1520   0.294E-02    0.288E-02
DAV:   8    -0.477948414197E+03   -0.31330E-04   -0.29793E-05  1136   0.155E-02    0.124E-02
DAV:   9    -0.477948438910E+03   -0.24713E-04   -0.96551E-06   968   0.877E-03    0.528E-03
DAV:  10    -0.477948458281E+03   -0.19371E-04   -0.31532E-06   984   0.456E-03    0.283E-03
DAV:  11    -0.477948479164E+03   -0.20883E-04   -0.22004E-06   952   0.310E-03    0.193E-03
DAV:  12    -0.477948492300E+03   -0.13136E-04   -0.12338E-06   968   0.204E-03    0.135E-03
DAV:  13    -0.477948502012E+03   -0.97121E-05   -0.83849E-07   968   0.154E-03
   6 F= -.47794850E+03 E0= -.47791618E+03  d E =-.358459E+00
       N       E                     dE             d eps       ncg     rms          rms(c)
DAV:   1    -0.477993903779E+03   -0.45411E-01   -0.41173E+01  1456   0.136E+01    0.121E+00
DAV:   2    -0.478025903893E+03   -0.32000E-01   -0.44039E-01  1624   0.182E+00    0.687E-01
DAV:   3    -0.478023721083E+03    0.21828E-02   -0.24475E-02  1656   0.451E-01    0.406E-01
DAV:   4    -0.478023314670E+03    0.40641E-03   -0.52144E-03  1616   0.217E-01    0.159E-01
DAV:   5    -0.478023336053E+03   -0.21383E-04   -0.90435E-04  1616   0.107E-01    0.802E-02
DAV:   6    -0.478023361294E+03   -0.25241E-04   -0.22423E-04  1568   0.480E-02    0.330E-02
DAV:   7    -0.478023374500E+03   -0.13206E-04   -0.60049E-05  1456   0.218E-02    0.207E-02
DAV:   8    -0.478023392866E+03   -0.18365E-04   -0.17565E-05   960   0.113E-02    0.913E-03
DAV:   9    -0.478023407763E+03   -0.14897E-04   -0.61110E-06   960   0.635E-03    0.413E-03
DAV:  10    -0.478023421510E+03   -0.13747E-04   -0.18870E-06   952   0.335E-03    0.206E-03
DAV:  11    -0.478023434723E+03   -0.13212E-04   -0.13014E-06   952   0.219E-03    0.121E-03
DAV:  12    -0.478023443885E+03   -0.91622E-05   -0.80827E-07   976   0.160E-03
   7 F= -.47802344E+03 E0= -.47799074E+03  d E =-.433401E+00
       N       E                     dE             d eps       ncg     rms          rms(c)
DAV:   1    -0.478254675053E+03   -0.23124E+00   -0.10307E+02  1432   0.199E+01    0.166E+00
DAV:   2    -0.478326970933E+03   -0.72296E-01   -0.97358E-01  1616   0.262E+00    0.110E+00
DAV:   3    -0.478324020169E+03    0.29508E-02   -0.45158E-02  1688   0.629E-01    0.629E-01
DAV:   4    -0.478323270294E+03    0.74988E-03   -0.10745E-02  1624   0.303E-01    0.322E-01
DAV:   5    -0.478323305128E+03   -0.34834E-04   -0.39464E-03  1568   0.183E-01    0.956E-02
DAV:   6    -0.478323276648E+03    0.28480E-04   -0.93493E-04  1608   0.859E-02    0.521E-02
DAV:   7    -0.478323295592E+03   -0.18944E-04   -0.19815E-04  1520   0.372E-02    0.304E-02
DAV:   8    -0.478323321838E+03   -0.26246E-04   -0.24792E-05  1080   0.168E-02    0.145E-02
DAV:   9    -0.478323345421E+03   -0.23583E-04   -0.10634E-05   952   0.108E-02    0.537E-03
DAV:  10    -0.478323361216E+03   -0.15795E-04   -0.32848E-06   960   0.512E-03    0.259E-03
DAV:  11    -0.478323376521E+03   -0.15305E-04   -0.16326E-06   936   0.290E-03    0.144E-03
DAV:  12    -0.478323391224E+03   -0.14704E-04   -0.14491E-06   992   0.205E-03    0.103E-03
DAV:  13    -0.478323402676E+03   -0.11452E-04   -0.10590E-06   936   0.167E-03    0.657E-04
DAV:  14    -0.478323408102E+03   -0.54256E-05   -0.64824E-07   968   0.117E-03
   8 F= -.47832341E+03 E0= -.47829058E+03  d E =-.299964E+00
       N       E                     dE             d eps       ncg     rms          rms(c)
DAV:   1    -0.478350201821E+03   -0.26799E-01   -0.92814E+01  1416   0.188E+01    0.150E+00
DAV:   2    -0.478415485572E+03   -0.65284E-01   -0.87073E-01  1624   0.247E+00    0.941E-01
DAV:   3    -0.478412823176E+03    0.26624E-02   -0.38635E-02  1720   0.578E-01    0.556E-01
DAV:   4    -0.478412095537E+03    0.72764E-03   -0.86936E-03  1600   0.270E-01    0.280E-01
DAV:   5    -0.478412138732E+03   -0.43195E-04   -0.30228E-03  1576   0.167E-01    0.896E-02
DAV:   6    -0.478412112488E+03    0.26244E-04   -0.80854E-04  1616   0.813E-02    0.481E-02
DAV:   7    -0.478412131723E+03   -0.19235E-04   -0.15345E-04  1512   0.334E-02    0.280E-02
DAV:   8    -0.478412155992E+03   -0.24270E-04   -0.22504E-05  1016   0.159E-02    0.125E-02
DAV:   9    -0.478412177289E+03   -0.21297E-04   -0.99703E-06   968   0.979E-03    0.481E-03
DAV:  10    -0.478412191184E+03   -0.13896E-04   -0.30182E-06   952   0.476E-03    0.253E-03
DAV:  11    -0.478412206588E+03   -0.15404E-04   -0.16928E-06   936   0.288E-03    0.147E-03
DAV:  12    -0.478412218172E+03   -0.11584E-04   -0.11085E-06   960   0.195E-03    0.106E-03
DAV:  13    -0.478412228092E+03   -0.99197E-05   -0.95003E-07   992   0.159E-03
   9 F= -.47841223E+03 E0= -.47837945E+03  d E =-.388784E+00
       N       E                     dE             d eps       ncg     rms          rms(c)
DAV:   1    -0.478576351458E+03   -0.16413E+00   -0.10111E+02  1424   0.197E+01    0.159E+00
DAV:   2    -0.478650517667E+03   -0.74166E-01   -0.10015E+00  1608   0.267E+00    0.884E-01
DAV:   3    -0.478646441506E+03    0.40762E-02   -0.42230E-02  1704   0.603E-01    0.551E-01
DAV:   4    -0.478645187084E+03    0.12544E-02   -0.10869E-02  1600   0.310E-01    0.285E-01
DAV:   5    -0.478645073092E+03    0.11399E-03   -0.31823E-03  1608   0.173E-01    0.107E-01
DAV:   6    -0.478645080701E+03   -0.76084E-05   -0.81381E-04  1640   0.846E-02    0.489E-02
DAV:   7    -0.478645115521E+03   -0.34821E-04   -0.14527E-04  1520   0.329E-02    0.286E-02
DAV:   8    -0.478645163487E+03   -0.47966E-04   -0.30916E-05  1192   0.171E-02    0.876E-03
DAV:   9    -0.478645190236E+03   -0.26749E-04   -0.93127E-06  1000   0.869E-03    0.467E-03
DAV:  10    -0.478645211989E+03   -0.21752E-04   -0.25941E-06   952   0.469E-03    0.265E-03
DAV:  11    -0.478645239229E+03   -0.27240E-04   -0.25383E-06  1000   0.309E-03    0.160E-03
DAV:  12    -0.478645262013E+03   -0.22784E-04   -0.18836E-06  1016   0.253E-03    0.125E-03
DAV:  13    -0.478645273858E+03   -0.11846E-04   -0.92570E-07   968   0.179E-03    0.836E-04
DAV:  14    -0.478645283797E+03   -0.99388E-05   -0.11770E-06   968   0.149E-03
  10 F= -.47864528E+03 E0= -.47861260E+03  d E =-.233056E+00
       N       E                     dE             d eps       ncg     rms          rms(c)
DAV:   1    -0.478659633718E+03   -0.14360E-01   -0.41161E+01  1448   0.126E+01    0.101E+00
DAV:   2    -0.478688454362E+03   -0.28821E-01   -0.39309E-01  1616   0.170E+00    0.519E-01
DAV:   3    -0.478686812189E+03    0.16422E-02   -0.16848E-02  1680   0.376E-01    0.328E-01
DAV:   4    -0.478686284118E+03    0.52807E-03   -0.41703E-03  1584   0.202E-01    0.161E-01
DAV:   5    -0.478686245109E+03    0.39008E-04   -0.11015E-03  1640   0.994E-02    0.650E-02
DAV:   6    -0.478686249609E+03   -0.44996E-05   -0.29118E-04  1632   0.506E-02    0.299E-02
DAV:   7    -0.478686263934E+03   -0.14326E-04   -0.50445E-05  1296   0.212E-02    0.172E-02
DAV:   8    -0.478686287019E+03   -0.23084E-04   -0.15195E-05  1000   0.115E-02    0.596E-03
DAV:   9    -0.478686300651E+03   -0.13632E-04   -0.44493E-06   960   0.644E-03    0.279E-03
DAV:  10    -0.478686312424E+03   -0.11773E-04   -0.17987E-06   944   0.321E-03    0.194E-03
DAV:  11    -0.478686327023E+03   -0.14599E-04   -0.13353E-06   944   0.270E-03    0.127E-03
DAV:  12    -0.478686337082E+03   -0.10059E-04   -0.10705E-06   968   0.168E-03    0.905E-04
DAV:  13    -0.478686344632E+03   -0.75497E-05   -0.72280E-07   920   0.151E-03
  11 F= -.47868634E+03 E0= -.47865369E+03  d E =-.274117E+00
       N       E                     dE             d eps       ncg     rms          rms(c)
DAV:   1    -0.478758922538E+03   -0.72585E-01   -0.33530E+01  1424   0.123E+01    0.105E+00
DAV:   2    -0.478781835262E+03   -0.22913E-01   -0.38157E-01  1584   0.175E+00    0.513E-01
DAV:   3    -0.478779845967E+03    0.19893E-02   -0.24209E-02  1616   0.439E-01    0.327E-01
DAV:   4    -0.478779144979E+03    0.70099E-03   -0.51249E-03  1648   0.224E-01    0.174E-01
DAV:   5    -0.478779074524E+03    0.70456E-04   -0.12841E-03  1608   0.100E-01    0.769E-02
DAV:   6    -0.478779094359E+03   -0.19835E-04   -0.31783E-04  1608   0.499E-02    0.322E-02
DAV:   7    -0.478779106367E+03   -0.12008E-04   -0.72175E-05  1288   0.229E-02    0.187E-02
DAV:   8    -0.478779119410E+03   -0.13043E-04   -0.12220E-05   944   0.108E-02    0.866E-03
DAV:   9    -0.478779133685E+03   -0.14274E-04   -0.55825E-06   960   0.685E-03    0.266E-03
DAV:  10    -0.478779141814E+03   -0.81291E-05   -0.15666E-06   968   0.344E-03
  12 F= -.47877914E+03 E0= -.47874591E+03  d E =-.927972E-01
       N       E                     dE             d eps       ncg     rms          rms(c)
DAV:   1    -0.478783516372E+03   -0.43827E-02   -0.42401E+00  1440   0.436E+00    0.372E-01
DAV:   2    -0.478786311991E+03   -0.27956E-02   -0.47449E-02  1584   0.624E-01    0.182E-01
DAV:   3    -0.478786070837E+03    0.24115E-03   -0.31393E-03  1608   0.158E-01    0.116E-01
DAV:   4    -0.478785977642E+03    0.93195E-04   -0.67090E-04  1624   0.814E-02    0.608E-02
DAV:   5    -0.478785974170E+03    0.34723E-05   -0.17189E-04  1568   0.361E-02    0.274E-02
DAV:   6    -0.478785980617E+03   -0.64472E-05   -0.41248E-05  1048   0.180E-02
  13 F= -.47878598E+03 E0= -.47875256E+03  d E =-.996360E-01
       N       E                     dE             d eps       ncg     rms          rms(c)
DAV:   1    -0.478829318881E+03   -0.43345E-01   -0.19750E+01  1432   0.981E+00    0.789E-01
DAV:   2    -0.478845019828E+03   -0.15701E-01   -0.23396E-01  1576   0.133E+00    0.388E-01
DAV:   3    -0.478844024611E+03    0.99522E-03   -0.11709E-02  1592   0.315E-01    0.263E-01
DAV:   4    -0.478843714602E+03    0.31001E-03   -0.26258E-03  1640   0.161E-01    0.142E-01
DAV:   5    -0.478843705071E+03    0.95307E-05   -0.52525E-04  1616   0.708E-02    0.520E-02
DAV:   6    -0.478843726705E+03   -0.21634E-04   -0.13236E-04  1584   0.376E-02    0.205E-02
DAV:   7    -0.478843732862E+03   -0.61570E-05   -0.29779E-05  1056   0.172E-02
  14 F= -.47884373E+03 E0= -.47881041E+03  d E =-.577522E-01
       N       E                     dE             d eps       ncg     rms          rms(c)
DAV:   1    -0.478846850663E+03   -0.31240E-02   -0.35244E+00  1432   0.414E+00    0.333E-01
DAV:   2    -0.478849615188E+03   -0.27645E-02   -0.41581E-02  1584   0.564E-01    0.163E-01
DAV:   3    -0.478849450620E+03    0.16457E-03   -0.21317E-03  1608   0.134E-01    0.110E-01
DAV:   4    -0.478849400424E+03    0.50196E-04   -0.48054E-04  1640   0.693E-02    0.595E-02
DAV:   5    -0.478849406054E+03   -0.56299E-05   -0.94927E-05  1552   0.297E-02
  15 F= -.47884941E+03 E0= -.47881614E+03  d E =-.634254E-01
       N       E                     dE             d eps       ncg     rms          rms(c)
DAV:   1    -0.478878655361E+03   -0.29255E-01   -0.19600E+01  1416   0.101E+01    0.724E-01
DAV:   2    -0.478897123595E+03   -0.18468E-01   -0.23943E-01  1616   0.132E+00    0.395E-01
DAV:   3    -0.478896327656E+03    0.79594E-03   -0.11141E-02  1664   0.310E-01    0.268E-01
DAV:   4    -0.478896053887E+03    0.27377E-03   -0.21928E-03  1600   0.149E-01    0.149E-01
DAV:   5    -0.478896060413E+03   -0.65255E-05   -0.63576E-04  1632   0.764E-02    0.451E-02
DAV:   6    -0.478896079865E+03   -0.19452E-04   -0.20488E-04  1632   0.415E-02    0.250E-02
DAV:   7    -0.478896088021E+03   -0.81560E-05   -0.38700E-05  1096   0.171E-02
  16 F= -.47889609E+03 E0= -.47886295E+03  d E =-.466820E-01
       N       E                     dE             d eps       ncg     rms          rms(c)
DAV:   1    -0.478897491863E+03   -0.14120E-02   -0.27233E+00  1416   0.376E+00    0.268E-01
DAV:   2    -0.478900045129E+03   -0.25533E-02   -0.33191E-02  1608   0.491E-01    0.146E-01
DAV:   3    -0.478899939574E+03    0.10555E-03   -0.15513E-03  1664   0.116E-01    0.990E-02
DAV:   4    -0.478899910184E+03    0.29391E-04   -0.30764E-04  1616   0.569E-02    0.548E-02
DAV:   5    -0.478899924981E+03   -0.14797E-04   -0.88708E-05  1528   0.281E-02    0.170E-02
DAV:   6    -0.478899936079E+03   -0.11098E-04   -0.24227E-05  1000   0.156E-02    0.878E-03
DAV:   7    -0.478899943907E+03   -0.78279E-05   -0.66589E-06   944   0.722E-03
  17 F= -.47889994E+03 E0= -.47886687E+03  d E =-.505379E-01
       N       E                     dE             d eps       ncg     rms          rms(c)
DAV:   1    -0.478919989218E+03   -0.20053E-01   -0.16760E+01  1424   0.959E+00    0.646E-01
DAV:   2    -0.478936501243E+03   -0.16512E-01   -0.21214E-01  1616   0.123E+00    0.384E-01
DAV:   3    -0.478935830441E+03    0.67080E-03   -0.99411E-03  1632   0.296E-01    0.254E-01
DAV:   4    -0.478935654892E+03    0.17555E-03   -0.19469E-03  1648   0.135E-01    0.137E-01
DAV:   5    -0.478935694359E+03   -0.39467E-04   -0.41292E-04  1584   0.700E-02    0.374E-02
DAV:   6    -0.478935719969E+03   -0.25609E-04   -0.11136E-04  1560   0.331E-02    0.211E-02
DAV:   7    -0.478935724131E+03   -0.41629E-05   -0.13559E-05   976   0.125E-02
  18 F= -.47893572E+03 E0= -.47890258E+03  d E =-.357802E-01
       N       E                     dE             d eps       ncg     rms          rms(c)
DAV:   1    -0.478936459724E+03   -0.73976E-03   -0.22380E+00  1424   0.351E+00    0.236E-01
DAV:   2    -0.478938658274E+03   -0.21985E-02   -0.28536E-02  1624   0.453E-01    0.139E-01
DAV:   3    -0.478938571577E+03    0.86697E-04   -0.13262E-03  1632   0.108E-01    0.928E-02
DAV:   4    -0.478938550198E+03    0.21379E-04   -0.26161E-04  1648   0.495E-02    0.501E-02
DAV:   5    -0.478938559868E+03   -0.96705E-05   -0.55714E-05  1392   0.249E-02
  19 F= -.47893856E+03 E0= -.47890539E+03  d E =-.386160E-01
       N       E                     dE             d eps       ncg     rms          rms(c)
DAV:   1    -0.478950173642E+03   -0.11623E-01   -0.17302E+01  1416   0.987E+00    0.683E-01
DAV:   2    -0.478967964044E+03   -0.17790E-01   -0.23094E-01  1600   0.128E+00    0.416E-01
DAV:   3    -0.478967151268E+03    0.81278E-03   -0.10471E-02  1584   0.302E-01    0.268E-01
DAV:   4    -0.478966861981E+03    0.28929E-03   -0.25616E-03  1640   0.149E-01    0.143E-01
DAV:   5    -0.478966863856E+03   -0.18747E-05   -0.58211E-04  1608   0.758E-02    0.478E-02
DAV:   6    -0.478966883044E+03   -0.19188E-04   -0.17630E-04  1584   0.371E-02    0.252E-02
DAV:   7    -0.478966884396E+03   -0.13519E-05   -0.37837E-05   992   0.173E-02
  20 F= -.47896688E+03 E0= -.47893396E+03  d E =-.283245E-01
       N       E                     dE             d eps       ncg     rms          rms(c)
DAV:   1    -0.478967056516E+03   -0.17347E-03   -0.39813E-01  1416   0.150E+00    0.105E-01
DAV:   2    -0.478967479441E+03   -0.42292E-03   -0.54248E-03  1608   0.196E-01    0.628E-02
DAV:   3    -0.478967461993E+03    0.17447E-04   -0.24586E-04  1600   0.461E-02    0.409E-02
DAV:   4    -0.478967458719E+03    0.32739E-05   -0.61783E-05  1592   0.229E-02
  21 F= -.47896746E+03 E0= -.47893455E+03  d E =-.288989E-01
       N       E                     dE             d eps       ncg     rms          rms(c)
DAV:   1    -0.478973794713E+03   -0.63327E-02   -0.11929E+01  1408   0.836E+00    0.596E-01
DAV:   2    -0.478986674971E+03   -0.12880E-01   -0.16428E-01  1592   0.109E+00    0.351E-01
DAV:   3    -0.478986129278E+03    0.54569E-03   -0.74989E-03  1704   0.252E-01    0.229E-01
DAV:   4    -0.478985907463E+03    0.22181E-03   -0.15732E-03  1632   0.120E-01    0.118E-01
DAV:   5    -0.478985899290E+03    0.81731E-05   -0.49142E-04  1640   0.645E-02    0.369E-02
DAV:   6    -0.478985901954E+03   -0.26644E-05   -0.17543E-04  1592   0.365E-02    0.227E-02
DAV:   7    -0.478985906918E+03   -0.49638E-05   -0.29681E-05  1000   0.151E-02
  22 F= -.47898591E+03 E0= -.47895304E+03  d E =-.184482E-01
       N       E                     dE             d eps       ncg     rms          rms(c)
DAV:   1    -0.478985922613E+03   -0.20659E-04   -0.54841E-03  1480   0.180E-01    0.141E-02
DAV:   2    -0.478985934997E+03   -0.12384E-04   -0.89060E-05  1624   0.250E-02    0.828E-03
DAV:   3    -0.478985938368E+03   -0.33706E-05   -0.32419E-06   952   0.593E-03
  23 F= -.47898594E+03 E0= -.47895307E+03  d E =-.184796E-01
       N       E                     dE             d eps       ncg     rms          rms(c)
DAV:   1    -0.478993419522E+03   -0.74845E-02   -0.75052E+00  1408   0.669E+00    0.484E-01
DAV:   2    -0.479000577619E+03   -0.71581E-02   -0.10324E-01  1600   0.865E-01    0.279E-01
DAV:   3    -0.479000230130E+03    0.34749E-03   -0.55273E-03  1648   0.208E-01    0.179E-01
DAV:   4    -0.479000098726E+03    0.13140E-03   -0.11327E-03  1640   0.103E-01    0.915E-02
DAV:   5    -0.479000114922E+03   -0.16196E-04   -0.35911E-04  1616   0.510E-02    0.328E-02
DAV:   6    -0.479000125025E+03   -0.10103E-04   -0.97476E-05  1528   0.257E-02    0.152E-02
DAV:   7    -0.479000128325E+03   -0.33002E-05   -0.15956E-05   952   0.113E-02
  24 F= -.47900013E+03 E0= -.47896729E+03  d E =-.141900E-01
       N       E                     dE             d eps       ncg     rms          rms(c)
DAV:   1    -0.479000361898E+03   -0.23687E-03   -0.57707E-01  1408   0.186E+00    0.134E-01
DAV:   2    -0.479000913599E+03   -0.55170E-03   -0.79797E-03  1600   0.241E-01    0.778E-02
DAV:   3    -0.479000888053E+03    0.25546E-04   -0.42832E-04  1648   0.580E-02    0.501E-02
DAV:   4    -0.479000879151E+03    0.89017E-05   -0.89943E-05  1608   0.292E-02
  25 F= -.47900088E+03 E0= -.47896804E+03  d E =-.149408E-01
       N       E                     dE             d eps       ncg     rms          rms(c)
DAV:   1    -0.479006560888E+03   -0.56728E-02   -0.77315E+00  1408   0.677E+00    0.496E-01
DAV:   2    -0.479013802645E+03   -0.72418E-02   -0.10462E-01  1600   0.871E-01    0.280E-01
DAV:   3    -0.479013517122E+03    0.28552E-03   -0.50926E-03  1632   0.204E-01    0.183E-01
DAV:   4    -0.479013430456E+03    0.86666E-04   -0.10289E-03  1640   0.104E-01    0.936E-02
DAV:   5    -0.479013458936E+03   -0.28480E-04   -0.21669E-04  1600   0.433E-02    0.305E-02
DAV:   6    -0.479013471774E+03   -0.12838E-04   -0.40750E-05  1248   0.205E-02    0.131E-02
DAV:   7    -0.479013476222E+03   -0.44479E-05   -0.92373E-06   944   0.953E-03
  26 F= -.47901348E+03 E0= -.47898066E+03  d E =-.125971E-01
       N       E                     dE             d eps       ncg     rms          rms(c)
DAV:   1    -0.479013620287E+03   -0.14851E-03   -0.60773E-01  1408   0.190E+00    0.137E-01
DAV:   2    -0.479014192258E+03   -0.57197E-03   -0.82268E-03  1600   0.245E-01    0.783E-02
DAV:   3    -0.479014170893E+03    0.21365E-04   -0.40015E-04  1632   0.572E-02    0.512E-02
DAV:   4    -0.479014165447E+03    0.54456E-05   -0.84422E-05  1592   0.297E-02
  27 F= -.47901417E+03 E0= -.47898134E+03  d E =-.132863E-01
       N       E                     dE             d eps       ncg     rms          rms(c)
DAV:   1    -0.479016770155E+03   -0.25993E-02   -0.83377E+00  1432   0.697E+00    0.494E-01
DAV:   2    -0.479024812890E+03   -0.80427E-02   -0.11276E-01  1600   0.894E-01    0.297E-01
DAV:   3    -0.479024461331E+03    0.35156E-03   -0.57154E-03  1648   0.213E-01    0.190E-01
DAV:   4    -0.479024360721E+03    0.10061E-03   -0.12044E-03  1616   0.104E-01    0.104E-01
DAV:   5    -0.479024400835E+03   -0.40115E-04   -0.45118E-04  1648   0.571E-02    0.344E-02
DAV:   6    -0.479024409946E+03   -0.91103E-05   -0.11690E-04  1568   0.305E-02    0.184E-02
DAV:   7    -0.479024416230E+03   -0.62843E-05   -0.23225E-05   952   0.131E-02
  28 F= -.47902442E+03 E0= -.47899148E+03  d E =-.102508E-01
       N       E                     dE             d eps       ncg     rms          rms(c)
DAV:   1    -0.479024442605E+03   -0.32659E-04   -0.68311E-02  1456   0.632E-01    0.445E-02
DAV:   2    -0.479024513422E+03   -0.70817E-04   -0.94202E-04  1648   0.814E-02    0.269E-02
DAV:   3    -0.479024513161E+03    0.26105E-06   -0.43678E-05  1288   0.191E-02
  29 F= -.47902451E+03 E0= -.47899156E+03  d E =-.103477E-01
       N       E                     dE             d eps       ncg     rms          rms(c)
DAV:   1    -0.479027679201E+03   -0.31658E-02   -0.62717E+00  1432   0.598E+00    0.413E-01
DAV:   2    -0.479033306554E+03   -0.56274E-02   -0.81005E-02  1600   0.757E-01    0.246E-01
DAV:   3    -0.479033037613E+03    0.26894E-03   -0.40773E-03  1680   0.174E-01    0.153E-01
DAV:   4    -0.479032970307E+03    0.67306E-04   -0.86066E-04  1616   0.841E-02    0.758E-02
DAV:   5    -0.479033004411E+03   -0.34104E-04   -0.28898E-04  1632   0.431E-02    0.264E-02
DAV:   6    -0.479033014330E+03   -0.99194E-05   -0.67297E-05  1216   0.215E-02
  30 F= -.47903301E+03 E0= -.47900009E+03  d E =-.850117E-02
       N       E                     dE             d eps       ncg     rms          rms(c)
DAV:   1    -0.479033038643E+03   -0.34233E-04   -0.46230E-01  1432   0.162E+00    0.112E-01
DAV:   2    -0.479033467577E+03   -0.42893E-03   -0.59948E-03  1608   0.206E-01    0.661E-02
DAV:   3    -0.479033452380E+03    0.15197E-04   -0.29538E-04  1672   0.469E-02    0.412E-02
DAV:   4    -0.479033451485E+03    0.89569E-06   -0.64194E-05  1568   0.231E-02
  31 F= -.47903345E+03 E0= -.47900054E+03  d E =-.893832E-02
       N       E                     dE             d eps       ncg     rms          rms(c)
DAV:   1    -0.479035608772E+03   -0.21564E-02   -0.66325E+00  1456   0.605E+00    0.429E-01
DAV:   2    -0.479041356111E+03   -0.57473E-02   -0.83201E-02  1608   0.779E-01    0.248E-01
DAV:   3    -0.479041077579E+03    0.27853E-03   -0.35079E-03  1664   0.165E-01    0.153E-01
DAV:   4    -0.479041010210E+03    0.67369E-04   -0.84351E-04  1616   0.936E-02    0.699E-02
DAV:   5    -0.479041035614E+03   -0.25405E-04   -0.18241E-04  1624   0.395E-02    0.258E-02
DAV:   6    -0.479041047801E+03   -0.12187E-04   -0.41255E-05  1168   0.178E-02    0.122E-02
DAV:   7    -0.479041053608E+03   -0.58070E-05   -0.11261E-05   960   0.899E-03
  32 F= -.47904105E+03 E0= -.47900823E+03  d E =-.760212E-02
       N       E                     dE             d eps       ncg     rms          rms(c)
DAV:   1    -0.479041085490E+03   -0.37689E-04   -0.28752E-01  1456   0.126E+00    0.890E-02
DAV:   2    -0.479041337604E+03   -0.25211E-03   -0.36329E-03  1624   0.163E-01    0.519E-02
DAV:   3    -0.479041326626E+03    0.10978E-04   -0.14989E-04  1664   0.344E-02    0.322E-02
DAV:   4    -0.479041326286E+03    0.34002E-06   -0.38020E-05  1360   0.202E-02
  33 F= -.47904133E+03 E0= -.47900851E+03  d E =-.787480E-02
       N       E                     dE             d eps       ncg     rms          rms(c)
DAV:   1    -0.479043195735E+03   -0.18691E-02   -0.68681E+00  1456   0.611E+00    0.393E-01
DAV:   2    -0.479049112062E+03   -0.59163E-02   -0.81934E-02  1608   0.765E-01    0.241E-01
DAV:   3    -0.479048895295E+03    0.21677E-03   -0.34519E-03  1656   0.162E-01    0.146E-01
DAV:   4    -0.479048864754E+03    0.30541E-04   -0.68467E-04  1632   0.867E-02    0.688E-02
DAV:   5    -0.479048904224E+03   -0.39470E-04   -0.17487E-04  1600   0.383E-02    0.226E-02
DAV:   6    -0.479048913459E+03   -0.92344E-05   -0.31874E-05  1224   0.171E-02
  34 F= -.47904891E+03 E0= -.47901609E+03  d E =-.758717E-02
       N       E                     dE             d eps       ncg     rms          rms(c)
DAV:   1    -0.479048857300E+03    0.46925E-04   -0.85782E-01  1456   0.216E+00    0.139E-01
DAV:   2    -0.479049616602E+03   -0.75930E-03   -0.10300E-02  1616   0.271E-01    0.851E-02
DAV:   3    -0.479049585813E+03    0.30789E-04   -0.41567E-04  1592   0.565E-02    0.520E-02
DAV:   4    -0.479049586790E+03   -0.97783E-06   -0.89247E-05  1624   0.313E-02
  35 F= -.47904959E+03 E0= -.47901676E+03  d E =-.826050E-02
       N       E                     dE             d eps       ncg     rms          rms(c)
DAV:   1    -0.479051431097E+03   -0.18453E-02   -0.64353E+00  1456   0.589E+00    0.360E-01
DAV:   2    -0.479057196079E+03   -0.57650E-02   -0.75055E-02  1584   0.725E-01    0.229E-01
DAV:   3    -0.479056986862E+03    0.20922E-03   -0.30811E-03  1656   0.153E-01    0.141E-01
DAV:   4    -0.479056978837E+03    0.80245E-05   -0.73930E-04  1624   0.789E-02    0.669E-02
DAV:   5    -0.479057020263E+03   -0.41426E-04   -0.27692E-04  1608   0.442E-02    0.236E-02
DAV:   6    -0.479057029145E+03   -0.88826E-05   -0.62925E-05  1248   0.208E-02
  36 F= -.47905703E+03 E0= -.47902431E+03  d E =-.744235E-02
       N       E                     dE             d eps       ncg     rms          rms(c)
DAV:   1    -0.479056622567E+03    0.39770E-03   -0.19513E+00  1456   0.324E+00    0.197E-01
DAV:   2    -0.479058407675E+03   -0.17851E-02   -0.22883E-02  1608   0.400E-01    0.125E-01
DAV:   3    -0.479058339250E+03    0.68424E-04   -0.89343E-04  1592   0.824E-02    0.770E-02
DAV:   4    -0.479058342697E+03   -0.34463E-05   -0.22650E-04  1616   0.433E-02    0.359E-02
DAV:   5    -0.479058358729E+03   -0.16032E-04   -0.82660E-05  1456   0.239E-02    0.129E-02
DAV:   6    -0.479058363564E+03   -0.48359E-05   -0.18325E-05   976   0.114E-02
  37 F= -.47905836E+03 E0= -.47902571E+03  d E =-.877677E-02
       N       E                     dE             d eps       ncg     rms          rms(c)
DAV:   1    -0.479058349764E+03    0.89647E-05   -0.75409E+00  1456   0.636E+00    0.382E-01
DAV:   2    -0.479065121210E+03   -0.67714E-02   -0.87246E-02  1592   0.784E-01    0.241E-01
DAV:   3    -0.479064862358E+03    0.25885E-03   -0.32268E-03  1656   0.163E-01    0.150E-01
DAV:   4    -0.479064852783E+03    0.95756E-05   -0.82502E-04  1608   0.895E-02    0.663E-02
DAV:   5    -0.479064892744E+03   -0.39962E-04   -0.19128E-04  1648   0.412E-02    0.243E-02
DAV:   6    -0.479064904880E+03   -0.12135E-04   -0.30294E-05  1096   0.171E-02    0.127E-02
DAV:   7    -0.479064910762E+03   -0.58823E-05   -0.70323E-06   936   0.813E-03
  38 F= -.47906491E+03 E0= -.47903251E+03  d E =-.654720E-02
       N       E                     dE             d eps       ncg     rms          rms(c)
DAV:   1    -0.479064855034E+03    0.49846E-04   -0.38645E-01  1456   0.144E+00    0.857E-02
DAV:   2    -0.479065193462E+03   -0.33843E-03   -0.44813E-03  1600   0.178E-01    0.547E-02
DAV:   3    -0.479065181640E+03    0.11822E-04   -0.16653E-04  1664   0.370E-02    0.340E-02
DAV:   4    -0.479065185270E+03   -0.36302E-05   -0.44729E-05  1504   0.210E-02
  39 F= -.47906519E+03 E0= -.47903284E+03  d E =-.682171E-02
       N       E                     dE             d eps       ncg     rms          rms(c)
DAV:   1    -0.479065203913E+03   -0.22274E-04   -0.72039E+00  1456   0.613E+00    0.383E-01
DAV:   2    -0.479071060907E+03   -0.58570E-02   -0.80432E-02  1576   0.763E-01    0.232E-01
DAV:   3    -0.479070915080E+03    0.14583E-03   -0.30985E-03  1688   0.154E-01    0.143E-01
DAV:   4    -0.479070909541E+03    0.55392E-05   -0.75058E-04  1616   0.901E-02    0.654E-02
DAV:   5    -0.479070947455E+03   -0.37914E-04   -0.18050E-04  1552   0.398E-02    0.241E-02
DAV:   6    -0.479070959088E+03   -0.11633E-04   -0.39414E-05  1168   0.171E-02    0.130E-02
DAV:   7    -0.479070963846E+03   -0.47574E-05   -0.10216E-05   952   0.864E-03
  40 F= -.47907096E+03 E0= -.47903867E+03  d E =-.577858E-02
       N       E                     dE             d eps       ncg     rms          rms(c)
DAV:   1    -0.479070857777E+03    0.10131E-03   -0.66723E-01  1456   0.187E+00    0.115E-01
DAV:   2    -0.479071405067E+03   -0.54729E-03   -0.74699E-03  1592   0.233E-01    0.711E-02
DAV:   3    -0.479071386308E+03    0.18759E-04   -0.28716E-04  1616   0.470E-02    0.438E-02
DAV:   4    -0.479071381699E+03    0.46086E-05   -0.73899E-05  1592   0.283E-02
  41 F= -.47907138E+03 E0= -.47903909E+03  d E =-.619643E-02
       N       E                     dE             d eps       ncg     rms          rms(c)
DAV:   1    -0.479071243592E+03    0.14272E-03   -0.72946E+00  1456   0.608E+00    0.391E-01
DAV:   2    -0.479077082226E+03   -0.58386E-02   -0.80598E-02  1544   0.761E-01    0.233E-01
DAV:   3    -0.479076861403E+03    0.22082E-03   -0.34091E-03  1672   0.159E-01    0.143E-01
DAV:   4    -0.479076838194E+03    0.23209E-04   -0.83438E-04  1576   0.863E-02    0.687E-02
DAV:   5    -0.479076873975E+03   -0.35780E-04   -0.27850E-04  1568   0.432E-02    0.252E-02
DAV:   6    -0.479076884750E+03   -0.10776E-04   -0.56499E-05  1224   0.197E-02    0.130E-02
DAV:   7    -0.479076890616E+03   -0.58655E-05   -0.99211E-06   936   0.902E-03
  42 F= -.47907689E+03 E0= -.47904460E+03  d E =-.550892E-02
       N       E                     dE             d eps       ncg     rms          rms(c)
DAV:   1    -0.479076807632E+03    0.77118E-04   -0.49080E-01  1456   0.158E+00    0.100E-01
DAV:   2    -0.479077201765E+03   -0.39413E-03   -0.54349E-03  1600   0.198E-01    0.604E-02
DAV:   3    -0.479077181238E+03    0.20528E-04   -0.22986E-04  1624   0.413E-02    0.371E-02
DAV:   4    -0.479077180845E+03    0.39236E-06   -0.58148E-05  1496   0.230E-02
  43 F= -.47907718E+03 E0= -.47904488E+03  d E =-.579915E-02
       N       E                     dE             d eps       ncg     rms          rms(c)
DAV:   1    -0.479078909265E+03   -0.17280E-02   -0.47957E+00  1456   0.484E+00    0.302E-01
DAV:   2    -0.479082609599E+03   -0.37003E-02   -0.50397E-02  1584   0.600E-01    0.178E-01
DAV:   3    -0.479082495342E+03    0.11426E-03   -0.18809E-03  1656   0.120E-01    0.110E-01
DAV:   4    -0.479082479427E+03    0.15915E-04   -0.43199E-04  1608   0.671E-02    0.505E-02
DAV:   5    -0.479082501551E+03   -0.22124E-04   -0.98136E-05  1536   0.301E-02    0.184E-02
DAV:   6    -0.479082509190E+03   -0.76394E-05   -0.20681E-05   952   0.134E-02
  44 F= -.47908251E+03 E0= -.47905038E+03  d E =-.532834E-02
       N       E                     dE             d eps       ncg     rms          rms(c)
DAV:   1    -0.479080670377E+03    0.18312E-02   -0.62736E+00  1456   0.554E+00    0.344E-01
DAV:   2    -0.479085564793E+03   -0.48944E-02   -0.66152E-02  1584   0.686E-01    0.202E-01
DAV:   3    -0.479085412795E+03    0.15200E-03   -0.24192E-03  1664   0.136E-01    0.125E-01
DAV:   4    -0.479085395385E+03    0.17410E-04   -0.55897E-04  1576   0.762E-02    0.574E-02
DAV:   5    -0.479085423912E+03   -0.28526E-04   -0.12710E-04  1592   0.343E-02    0.209E-02
DAV:   6    -0.479085434523E+03   -0.10611E-04   -0.27009E-05   960   0.152E-02    0.104E-02
DAV:   7    -0.479085440934E+03   -0.64115E-05   -0.84897E-06   960   0.810E-03
  45 F= -.47908544E+03 E0= -.47905352E+03  d E =-.826009E-02
       N       E                     dE             d eps       ncg     rms          rms(c)
DAV:   1    -0.479087517714E+03   -0.20832E-02   -0.52616E+00  1456   0.502E+00    0.320E-01
DAV:   2    -0.479091486764E+03   -0.39691E-02   -0.55583E-02  1584   0.640E-01    0.184E-01
DAV:   3    -0.479091357124E+03    0.12964E-03   -0.22640E-03  1680   0.132E-01    0.114E-01
DAV:   4    -0.479091314013E+03    0.43111E-04   -0.45538E-04  1608   0.702E-02    0.549E-02
DAV:   5    -0.479091329665E+03   -0.15651E-04   -0.11868E-04  1560   0.321E-02    0.194E-02
DAV:   6    -0.479091338858E+03   -0.91931E-05   -0.25756E-05   960   0.147E-02
  46 F= -.47909134E+03 E0= -.47905957E+03  d E =-.589792E-02
       N       E                     dE             d eps       ncg     rms          rms(c)
DAV:   1    -0.479090770718E+03    0.55895E-03   -0.23928E+00  1456   0.339E+00    0.216E-01
DAV:   2    -0.479092580974E+03   -0.18103E-02   -0.25261E-02  1568   0.431E-01    0.124E-01
DAV:   3    -0.479092520021E+03    0.60953E-04   -0.10291E-03  1640   0.889E-02    0.766E-02
DAV:   4    -0.479092505057E+03    0.14964E-04   -0.21146E-04  1616   0.475E-02    0.371E-02
DAV:   5    -0.479092518853E+03   -0.13797E-04   -0.54631E-05  1320   0.217E-02    0.131E-02
DAV:   6    -0.479092525829E+03   -0.69758E-05   -0.12479E-05   968   0.101E-02
  47 F= -.47909253E+03 E0= -.47906087E+03  d E =-.708489E-02
       N       E                     dE             d eps       ncg     rms          rms(c)
DAV:   1    -0.479094543494E+03   -0.20246E-02   -0.27510E+00  1440   0.354E+00    0.211E-01
DAV:   2    -0.479096610313E+03   -0.20668E-02   -0.27238E-02  1584   0.440E-01    0.123E-01
DAV:   3    -0.479096559972E+03    0.50342E-04   -0.10121E-03  1688   0.871E-02    0.773E-02
DAV:   4    -0.479096545955E+03    0.14016E-04   -0.21605E-04  1600   0.477E-02    0.368E-02
DAV:   5    -0.479096558705E+03   -0.12750E-04   -0.51528E-05  1320   0.215E-02    0.129E-02
DAV:   6    -0.479096564649E+03   -0.59439E-05   -0.11597E-05   968   0.102E-02
  48 F= -.47909656E+03 E0= -.47906493E+03  d E =-.403882E-02
       N       E                     dE             d eps       ncg     rms          rms(c)
DAV:   1    -0.479085112455E+03    0.11446E-01   -0.24819E+01  1440   0.106E+01    0.642E-01
DAV:   2    -0.479103944832E+03   -0.18832E-01   -0.24780E-01  1576   0.132E+00    0.366E-01
DAV:   3    -0.479103445584E+03    0.49925E-03   -0.90269E-03  1688   0.261E-01    0.231E-01
DAV:   4    -0.479103261001E+03    0.18458E-03   -0.18484E-03  1616   0.140E-01    0.111E-01
DAV:   5    -0.479103331154E+03   -0.70153E-04   -0.47147E-04  1600   0.671E-02    0.387E-02
DAV:   6    -0.479103357886E+03   -0.26732E-04   -0.11748E-04  1584   0.308E-02    0.196E-02
DAV:   7    -0.479103364595E+03   -0.67086E-05   -0.23299E-05   984   0.134E-02
  49 F= -.47910336E+03 E0= -.47907179E+03  d E =-.108388E-01
       N       E                     dE             d eps       ncg     rms          rms(c)
DAV:   1    -0.479106824145E+03   -0.34663E-02   -0.46330E+00  1440   0.460E+00    0.274E-01
DAV:   2    -0.479110685408E+03   -0.38613E-02   -0.47703E-02  1592   0.583E-01    0.165E-01
DAV:   3    -0.479110526424E+03    0.15898E-03   -0.17589E-03  1648   0.119E-01    0.105E-01
DAV:   4    -0.479110479500E+03    0.46924E-04   -0.43680E-04  1608   0.660E-02    0.482E-02
DAV:   5    -0.479110487103E+03   -0.76032E-05   -0.11128E-04  1584   0.330E-02    0.179E-02
DAV:   6    -0.479110497594E+03   -0.10491E-04   -0.23281E-05   992   0.147E-02    0.982E-03
DAV:   7    -0.479110504887E+03   -0.72928E-05   -0.59831E-06   976   0.702E-03
  50 F= -.47911050E+03 E0= -.47907892E+03  d E =-.714029E-02
       N       E                     dE             d eps       ncg     rms          rms(c)
DAV:   1    -0.479110127116E+03    0.37048E-03   -0.31768E+00  1440   0.381E+00    0.226E-01
DAV:   2    -0.479112778561E+03   -0.26514E-02   -0.32682E-02  1584   0.483E-01    0.136E-01
DAV:   3    -0.479112671183E+03    0.10738E-03   -0.11980E-03  1640   0.985E-02    0.869E-02
DAV:   4    -0.479112631034E+03    0.40149E-04   -0.29937E-04  1568   0.546E-02    0.396E-02
DAV:   5    -0.479112639586E+03   -0.85516E-05   -0.74901E-05  1408   0.273E-02
  51 F= -.47911264E+03 E0= -.47908105E+03  d E =-.927499E-02
       N       E                     dE             d eps       ncg     rms          rms(c)
DAV:   1    -0.479114455106E+03   -0.18241E-02   -0.59446E+00  1456   0.505E+00    0.266E-01
DAV:   2    -0.479119056820E+03   -0.46017E-02   -0.54254E-02  1584   0.618E-01    0.164E-01
DAV:   3    -0.479118959592E+03    0.97229E-04   -0.17573E-03  1648   0.117E-01    0.105E-01
DAV:   4    -0.479118933380E+03    0.26212E-04   -0.40389E-04  1584   0.656E-02    0.474E-02
DAV:   5    -0.479118946395E+03   -0.13015E-04   -0.99476E-05  1496   0.331E-02    0.179E-02
DAV:   6    -0.479118955374E+03   -0.89792E-05   -0.19042E-05   992   0.142E-02
  52 F= -.47911896E+03 E0= -.47908747E+03  d E =-.631579E-02
       N       E                     dE             d eps       ncg     rms          rms(c)
DAV:   1    -0.479112797595E+03    0.61488E-02   -0.12751E+01  1456   0.739E+00    0.389E-01
DAV:   2    -0.479122693335E+03   -0.98957E-02   -0.11685E-01  1592   0.907E-01    0.240E-01
DAV:   3    -0.479122448439E+03    0.24490E-03   -0.37735E-03  1656   0.172E-01    0.154E-01
DAV:   4    -0.479122394752E+03    0.53687E-04   -0.88385E-04  1592   0.961E-02    0.704E-02
DAV:   5    -0.479122430453E+03   -0.35701E-04   -0.23631E-04  1600   0.502E-02    0.264E-02
DAV:   6    -0.479122438683E+03   -0.82300E-05   -0.54241E-05  1288   0.218E-02
  53 F= -.47912244E+03 E0= -.47909107E+03  d E =-.979910E-02
       N       E                     dE             d eps       ncg     rms          rms(c)
DAV:   1    -0.479125163583E+03   -0.27331E-02   -0.28616E+00  1440   0.342E+00    0.169E-01
DAV:   2    -0.479127305093E+03   -0.21415E-02   -0.24835E-02  1584   0.413E-01    0.106E-01
DAV:   3    -0.479127277054E+03    0.28038E-04   -0.74219E-04  1648   0.744E-02    0.687E-02
DAV:   4    -0.479127277465E+03   -0.41100E-06   -0.17074E-04  1584   0.443E-02    0.311E-02
DAV:   5    -0.479127292068E+03   -0.14603E-04   -0.43189E-05  1296   0.214E-02    0.112E-02
DAV:   6    -0.479127299471E+03   -0.74030E-05   -0.72544E-06   960   0.888E-03
  54 F= -.47912730E+03 E0= -.47909597E+03  d E =-.486079E-02
       N       E                     dE             d eps       ncg     rms          rms(c)
DAV:   1    -0.479118981255E+03    0.83108E-02   -0.25855E+01  1440   0.103E+01    0.509E-01
DAV:   2    -0.479138478299E+03   -0.19497E-01   -0.22578E-01  1576   0.124E+00    0.317E-01
DAV:   3    -0.479138064963E+03    0.41334E-03   -0.66448E-03  1656   0.224E-01    0.206E-01
DAV:   4    -0.479137964963E+03    0.10000E-03   -0.14788E-03  1576   0.128E-01    0.939E-02
DAV:   5    -0.479138048609E+03   -0.83645E-04   -0.37798E-04  1616   0.662E-02    0.335E-02
DAV:   6    -0.479138072782E+03   -0.24173E-04   -0.67171E-05  1360   0.259E-02    0.184E-02
DAV:   7    -0.479138083183E+03   -0.10401E-04   -0.12933E-05   992   0.116E-02    0.909E-03
DAV:   8    -0.479138099332E+03   -0.16149E-04   -0.63024E-06  1024   0.800E-03    0.327E-03
DAV:   9    -0.479138106772E+03   -0.74397E-05   -0.20284E-06   960   0.376E-03
  55 F= -.47913811E+03 E0= -.47910690E+03  d E =-.156681E-01
       N       E                     dE             d eps       ncg     rms          rms(c)
DAV:   1    -0.479062434777E+03    0.75665E-01   -0.10498E+02  1456   0.206E+01    0.106E+00
DAV:   2    -0.479144486408E+03   -0.82052E-01   -0.94361E-01  1584   0.251E+00    0.651E-01
DAV:   3    -0.479142562884E+03    0.19235E-02   -0.26787E-02  1632   0.464E-01    0.425E-01
DAV:   4    -0.479141860320E+03    0.70256E-03   -0.56759E-03  1600   0.240E-01    0.206E-01
DAV:   5    -0.479142105464E+03   -0.24514E-03   -0.15087E-03  1616   0.136E-01    0.687E-02
DAV:   6    -0.479142187091E+03   -0.81627E-04   -0.28942E-04  1600   0.534E-02    0.366E-02
DAV:   7    -0.479142215219E+03   -0.28128E-04   -0.54733E-05  1272   0.219E-02    0.189E-02
DAV:   8    -0.479142254481E+03   -0.39262E-04   -0.18380E-05  1040   0.142E-02    0.609E-03
DAV:   9    -0.479142277089E+03   -0.22609E-04   -0.74352E-06   976   0.695E-03    0.466E-03
DAV:  10    -0.479142303249E+03   -0.26160E-04   -0.28737E-06  1024   0.455E-03    0.215E-03
DAV:  11    -0.479142320122E+03   -0.16872E-04   -0.27147E-06  1016   0.334E-03    0.139E-03
DAV:  12    -0.479142335800E+03   -0.15678E-04   -0.11792E-06   992   0.236E-03    0.116E-03
DAV:  13    -0.479142345784E+03   -0.99839E-05   -0.79790E-07   968   0.147E-03
  56 F= -.47914235E+03 E0= -.47911141E+03  d E =-.199071E-01
       N       E                     dE             d eps       ncg     rms          rms(c)
DAV:   1    -0.479135783181E+03    0.65526E-02   -0.10337E+01  1440   0.644E+00    0.320E-01
DAV:   2    -0.479143578260E+03   -0.77951E-02   -0.90070E-02  1600   0.783E-01    0.205E-01
DAV:   3    -0.479143428662E+03    0.14960E-03   -0.26676E-03  1632   0.143E-01    0.132E-01
DAV:   4    -0.479143387563E+03    0.41099E-04   -0.64677E-04  1616   0.832E-02    0.596E-02
DAV:   5    -0.479143417800E+03   -0.30237E-04   -0.15822E-04  1600   0.383E-02    0.217E-02
DAV:   6    -0.479143415650E+03    0.21501E-05   -0.20971E-05  1000   0.145E-02
  57 F= -.47914342E+03 E0= -.47911239E+03  d E =-.209770E-01
       N       E                     dE             d eps       ncg     rms          rms(c)
DAV:   1    -0.479146668181E+03   -0.32504E-02   -0.46758E+00  1424   0.428E+00    0.214E-01
DAV:   2    -0.479150086852E+03   -0.34187E-02   -0.40074E-02  1568   0.519E-01    0.134E-01
DAV:   3    -0.479150024051E+03    0.62801E-04   -0.12512E-03  1624   0.975E-02    0.875E-02
DAV:   4    -0.479150015051E+03    0.89996E-05   -0.29764E-04  1600   0.530E-02    0.437E-02
DAV:   5    -0.479150029671E+03   -0.14620E-04   -0.99146E-05  1432   0.287E-02    0.150E-02
DAV:   6    -0.479150033558E+03   -0.38875E-05   -0.21287E-05   976   0.128E-02
  58 F= -.47915003E+03 E0= -.47911899E+03  d E =-.661791E-02
       N       E                     dE             d eps       ncg     rms          rms(c)
DAV:   1    -0.479133009435E+03    0.17020E-01   -0.42403E+01  1440   0.129E+01    0.661E-01
DAV:   2    -0.479164876261E+03   -0.31867E-01   -0.36978E-01  1576   0.157E+00    0.404E-01
DAV:   3    -0.479164155191E+03    0.72107E-03   -0.11222E-02  1648   0.297E-01    0.267E-01
DAV:   4    -0.479163986435E+03    0.16876E-03   -0.25964E-03  1576   0.153E-01    0.137E-01
DAV:   5    -0.479164087585E+03   -0.10115E-03   -0.92577E-04  1608   0.889E-02    0.460E-02
DAV:   6    -0.479164126230E+03   -0.38645E-04   -0.22109E-04  1592   0.400E-02    0.251E-02
DAV:   7    -0.479164135626E+03   -0.93959E-05   -0.36397E-05  1080   0.156E-02
  59 F= -.47916414E+03 E0= -.47913303E+03  d E =-.207200E-01
       N       E                     dE             d eps       ncg     rms          rms(c)
DAV:   1    -0.479030722565E+03    0.13340E+00   -0.17407E+02  1440   0.260E+01    0.142E+00
DAV:   2    -0.479170945472E+03   -0.14022E+00   -0.16118E+00  1584   0.322E+00    0.859E-01
DAV:   3    -0.479167579172E+03    0.33663E-02   -0.47749E-02  1648   0.635E-01    0.568E-01
DAV:   4    -0.479166356000E+03    0.12232E-02   -0.97818E-03  1600   0.286E-01    0.318E-01
DAV:   5    -0.479166642000E+03   -0.28600E-03   -0.35999E-03  1592   0.183E-01    0.973E-02
DAV:   6    -0.479166817180E+03   -0.17518E-03   -0.95854E-04  1584   0.828E-02    0.531E-02
DAV:   7    -0.479166857690E+03   -0.40511E-04   -0.17497E-04  1576   0.335E-02    0.290E-02
DAV:   8    -0.479166909318E+03   -0.51628E-04   -0.28643E-05  1080   0.171E-02    0.976E-03
DAV:   9    -0.479166957816E+03   -0.48498E-04   -0.12001E-05  1048   0.926E-03    0.561E-03
DAV:  10    -0.479166993529E+03   -0.35713E-04   -0.32280E-06  1016   0.526E-03    0.282E-03
DAV:  11    -0.479167030536E+03   -0.37007E-04   -0.28187E-06  1056   0.338E-03    0.180E-03
DAV:  12    -0.479167047716E+03   -0.17180E-04   -0.22728E-06  1024   0.301E-03    0.154E-03
DAV:  13    -0.479167075697E+03   -0.27982E-04   -0.27607E-06  1056   0.299E-03    0.111E-03
DAV:  14    -0.479167084294E+03   -0.85971E-05   -0.86845E-07   968   0.165E-03
  60 F= -.47916708E+03 E0= -.47913587E+03  d E =-.236686E-01
       N       E                     dE             d eps       ncg     rms          rms(c)
DAV:   1    -0.479146259091E+03    0.20817E-01   -0.32435E+01  1440   0.112E+01    0.573E-01
DAV:   2    -0.479170719276E+03   -0.24460E-01   -0.28220E-01  1568   0.138E+00    0.366E-01
DAV:   3    -0.479170203639E+03    0.51564E-03   -0.87316E-03  1640   0.266E-01    0.237E-01
DAV:   4    -0.479169990370E+03    0.21327E-03   -0.21675E-03  1576   0.141E-01    0.117E-01
DAV:   5    -0.479170072321E+03   -0.81951E-04   -0.59441E-04  1608   0.694E-02    0.398E-02
DAV:   6    -0.479170089516E+03   -0.17196E-04   -0.11882E-04  1576   0.289E-02    0.227E-02
DAV:   7    -0.479170094035E+03   -0.45184E-05   -0.24409E-05   984   0.132E-02
  61 F= -.47917009E+03 E0= -.47913893E+03  d E =-.266784E-01
       N       E                     dE             d eps       ncg     rms          rms(c)
DAV:   1    -0.479169957992E+03    0.13152E-03   -0.20257E+01  1440   0.872E+00    0.451E-01
DAV:   2    -0.479184466686E+03   -0.14509E-01   -0.17074E-01  1560   0.106E+00    0.271E-01
DAV:   3    -0.479184159607E+03    0.30708E-03   -0.49994E-03  1640   0.196E-01    0.176E-01
DAV:   4    -0.479184092366E+03    0.67241E-04   -0.11849E-03  1584   0.106E-01    0.866E-02
DAV:   5    -0.479184139507E+03   -0.47141E-04   -0.39101E-04  1592   0.585E-02    0.298E-02
DAV:   6    -0.479184152959E+03   -0.13452E-04   -0.96974E-05  1464   0.256E-02    0.168E-02
DAV:   7    -0.479184154766E+03   -0.18065E-05   -0.15089E-05   936   0.102E-02
  62 F= -.47918415E+03 E0= -.47915294E+03  d E =-.140607E-01
       N       E                     dE             d eps       ncg     rms          rms(c)
DAV:   1    -0.479138762436E+03    0.45391E-01   -0.83835E+01  1440   0.177E+01    0.946E-01
DAV:   2    -0.479201456491E+03   -0.62694E-01   -0.73262E-01  1568   0.218E+00    0.560E-01
DAV:   3    -0.479199935267E+03    0.15212E-02   -0.20924E-02  1624   0.409E-01    0.368E-01
DAV:   4    -0.479199505087E+03    0.43018E-03   -0.47101E-03  1592   0.203E-01    0.190E-01
DAV:   5    -0.479199669999E+03   -0.16491E-03   -0.18072E-03  1600   0.124E-01    0.638E-02
DAV:   6    -0.479199728106E+03   -0.58107E-04   -0.50858E-04  1592   0.574E-02    0.351E-02
DAV:   7    -0.479199750280E+03   -0.22174E-04   -0.79312E-05  1424   0.223E-02    0.185E-02
DAV:   8    -0.479199782535E+03   -0.32255E-04   -0.13603E-05  1032   0.118E-02    0.642E-03
DAV:   9    -0.479199804655E+03   -0.22120E-04   -0.48942E-06  1016   0.582E-03    0.346E-03
DAV:  10    -0.479199821377E+03   -0.16722E-04   -0.13798E-06   984   0.334E-03    0.177E-03
DAV:  11    -0.479199830881E+03   -0.95041E-05   -0.25762E-06  1024   0.271E-03
  63 F= -.47919983E+03 E0= -.47916851E+03  d E =-.297368E-01
       N       E                     dE             d eps       ncg     rms          rms(c)
DAV:   1    -0.479190324559E+03    0.94968E-02   -0.15697E+01  1424   0.765E+00    0.397E-01
DAV:   2    -0.479201652209E+03   -0.11328E-01   -0.13335E-01  1560   0.936E-01    0.239E-01
DAV:   3    -0.479201437659E+03    0.21455E-03   -0.38885E-03  1592   0.173E-01    0.157E-01
DAV:   4    -0.479201373847E+03    0.63812E-04   -0.95323E-04  1616   0.930E-02    0.773E-02
DAV:   5    -0.479201407201E+03   -0.33354E-04   -0.35204E-04  1568   0.527E-02    0.271E-02
DAV:   6    -0.479201422777E+03   -0.15575E-04   -0.92309E-05  1288   0.237E-02    0.154E-02
DAV:   7    -0.479201429451E+03   -0.66739E-05   -0.14067E-05   960   0.970E-03
  64 F= -.47920143E+03 E0= -.47917006E+03  d E =-.313354E-01
       N       E                     dE             d eps       ncg     rms          rms(c)
DAV:   1    -0.479193862235E+03    0.75605E-02   -0.36669E+01  1424   0.115E+01    0.607E-01
DAV:   2    -0.479220033365E+03   -0.26171E-01   -0.30862E-01  1544   0.141E+00    0.355E-01
DAV:   3    -0.479219426303E+03    0.60706E-03   -0.83250E-03  1648   0.252E-01    0.229E-01
DAV:   4    -0.479219251281E+03    0.17502E-03   -0.19669E-03  1616   0.142E-01    0.103E-01
DAV:   5    -0.479219322617E+03   -0.71336E-04   -0.44925E-04  1584   0.705E-02    0.372E-02
DAV:   6    -0.479219345217E+03   -0.22600E-04   -0.10549E-04  1480   0.285E-02    0.207E-02
DAV:   7    -0.479219360083E+03   -0.14867E-04   -0.27146E-05  1000   0.134E-02    0.104E-02
DAV:   8    -0.479219380827E+03   -0.20744E-04   -0.98322E-06  1008   0.833E-03    0.402E-03
DAV:   9    -0.479219392923E+03   -0.12096E-04   -0.27662E-06   968   0.439E-03    0.265E-03
DAV:  10    -0.479219406388E+03   -0.13466E-04   -0.11130E-06  1000   0.263E-03    0.133E-03
DAV:  11    -0.479219409035E+03   -0.26467E-05   -0.17215E-06  1032   0.230E-03
  65 F= -.47921941E+03 E0= -.47918815E+03  d E =-.179796E-01
       N       E                     dE             d eps       ncg     rms          rms(c)
DAV:   1    -0.479187304826E+03    0.32102E-01   -0.61833E+01  1424   0.149E+01    0.797E-01
DAV:   2    -0.479232157459E+03   -0.44853E-01   -0.52737E-01  1560   0.183E+00    0.461E-01
DAV:   3    -0.479231058122E+03    0.10993E-02   -0.14030E-02  1600   0.328E-01    0.298E-01
DAV:   4    -0.479230782829E+03    0.27529E-03   -0.31968E-03  1592   0.179E-01    0.136E-01
DAV:   5    -0.479230893583E+03   -0.11075E-03   -0.78488E-04  1632   0.926E-02    0.486E-02
DAV:   6    -0.479230928265E+03   -0.34682E-04   -0.21493E-04  1592   0.390E-02    0.272E-02
DAV:   7    -0.479230945042E+03   -0.16777E-04   -0.55943E-05  1064   0.178E-02    0.144E-02
DAV:   8    -0.479230970898E+03   -0.25857E-04   -0.15967E-05  1016   0.106E-02    0.524E-03
DAV:   9    -0.479230987756E+03   -0.16857E-04   -0.42111E-06   968   0.550E-03    0.319E-03
DAV:  10    -0.479231003831E+03   -0.16075E-04   -0.14855E-06  1000   0.311E-03    0.174E-03
DAV:  11    -0.479231008821E+03   -0.49904E-05   -0.20512E-06  1032   0.268E-03
  66 F= -.47923101E+03 E0= -.47919990E+03  d E =-.295794E-01
       N       E                     dE             d eps       ncg     rms          rms(c)
DAV:   1    -0.479225708352E+03    0.52955E-02   -0.92871E+00  1424   0.579E+00    0.303E-01
DAV:   2    -0.479232213766E+03   -0.65054E-02   -0.77044E-02  1576   0.708E-01    0.180E-01
DAV:   3    -0.479232072909E+03    0.14086E-03   -0.21001E-03  1584   0.126E-01    0.115E-01
DAV:   4    -0.479232025931E+03    0.46978E-04   -0.53336E-04  1616   0.735E-02    0.506E-02
DAV:   5    -0.479232045909E+03   -0.19978E-04   -0.11897E-04  1480   0.349E-02    0.190E-02
DAV:   6    -0.479232055846E+03   -0.99372E-05   -0.28668E-05   960   0.143E-02
  67 F= -.47923206E+03 E0= -.47920101E+03  d E =-.306264E-01
       N       E                     dE             d eps       ncg     rms          rms(c)
DAV:   1    -0.479227744953E+03    0.43010E-02   -0.34491E+01  1424   0.110E+01    0.589E-01
DAV:   2    -0.479252209318E+03   -0.24464E-01   -0.28757E-01  1584   0.136E+00    0.341E-01
DAV:   3    -0.479251612321E+03    0.59700E-03   -0.83326E-03  1640   0.250E-01    0.223E-01
DAV:   4    -0.479251465436E+03    0.14689E-03   -0.22900E-03  1616   0.137E-01    0.112E-01
DAV:   5    -0.479251504075E+03   -0.38639E-04   -0.10056E-03  1600   0.781E-02    0.425E-02
DAV:   6    -0.479251520296E+03   -0.16222E-04   -0.25135E-04  1560   0.377E-02    0.221E-02
DAV:   7    -0.479251536332E+03   -0.16036E-04   -0.34998E-05  1088   0.150E-02    0.115E-02
DAV:   8    -0.479251558044E+03   -0.21712E-04   -0.71697E-06  1024   0.787E-03    0.453E-03
DAV:   9    -0.479251572640E+03   -0.14596E-04   -0.20682E-06   968   0.411E-03    0.231E-03
DAV:  10    -0.479251584888E+03   -0.12247E-04   -0.10259E-06   968   0.234E-03    0.129E-03
DAV:  11    -0.479251585392E+03   -0.50381E-06   -0.17636E-06  1032   0.221E-03
  68 F= -.47925159E+03 E0= -.47922058E+03  d E =-.195295E-01
       N       E                     dE             d eps       ncg     rms          rms(c)
DAV:   1    -0.479204482550E+03    0.47102E-01   -0.80140E+01  1424   0.168E+01    0.915E-01
DAV:   2    -0.479262982453E+03   -0.58500E-01   -0.68460E-01  1584   0.208E+00    0.523E-01
DAV:   3    -0.479261472712E+03    0.15097E-02   -0.19366E-02  1648   0.385E-01    0.341E-01
DAV:   4    -0.479261069128E+03    0.40358E-03   -0.48875E-03  1600   0.198E-01    0.173E-01
DAV:   5    -0.479261153717E+03   -0.84590E-04   -0.21851E-03  1600   0.117E-01    0.650E-02
DAV:   6    -0.479261190759E+03   -0.37042E-04   -0.57883E-04  1552   0.576E-02    0.327E-02
DAV:   7    -0.479261216127E+03   -0.25368E-04   -0.79597E-05  1456   0.225E-02    0.174E-02
DAV:   8    -0.479261247010E+03   -0.30884E-04   -0.10721E-05  1024   0.101E-02    0.682E-03
DAV:   9    -0.479261271170E+03   -0.24160E-04   -0.38689E-06  1024   0.548E-03    0.286E-03
DAV:  10    -0.479261288664E+03   -0.17494E-04   -0.12859E-06   960   0.285E-03    0.174E-03
DAV:  11    -0.479261309427E+03   -0.20763E-04   -0.16703E-06  1024   0.234E-03    0.115E-03
DAV:  12    -0.479261308188E+03    0.12390E-05   -0.16685E-06  1032   0.197E-03
  69 F= -.47926131E+03 E0= -.47923035E+03  d E =-.292523E-01
       N       E                     dE             d eps       ncg     rms          rms(c)
DAV:   1    -0.479245599212E+03    0.15710E-01   -0.51262E+01  1424   0.132E+01    0.668E-01
DAV:   2    -0.479281850653E+03   -0.36251E-01   -0.41763E-01  1600   0.161E+00    0.398E-01
DAV:   3    -0.479281103169E+03    0.74748E-03   -0.11557E-02  1672   0.292E-01    0.264E-01
DAV:   4    -0.479280849110E+03    0.25406E-03   -0.21779E-03  1592   0.140E-01    0.126E-01
DAV:   5    -0.479280947443E+03   -0.98333E-04   -0.75071E-04  1592   0.813E-02    0.434E-02
DAV:   6    -0.479280978181E+03   -0.30738E-04   -0.22878E-04  1592   0.388E-02    0.239E-02
DAV:   7    -0.479280977802E+03    0.37855E-06   -0.41539E-05  1064   0.154E-02
  70 F= -.47928098E+03 E0= -.47924997E+03  d E =-.196696E-01
       N       E                     dE             d eps       ncg     rms          rms(c)
DAV:   1    -0.479233701912E+03    0.47276E-01   -0.77999E+01  1440   0.163E+01    0.837E-01
DAV:   2    -0.479289630246E+03   -0.55928E-01   -0.64314E-01  1592   0.200E+00    0.495E-01
DAV:   3    -0.479288400514E+03    0.12297E-02   -0.17462E-02  1672   0.362E-01    0.328E-01
DAV:   4    -0.479288010702E+03    0.38981E-03   -0.32611E-03  1600   0.169E-01    0.160E-01
DAV:   5    -0.479288169035E+03   -0.15833E-03   -0.10538E-03  1576   0.974E-02    0.522E-02
DAV:   6    -0.479288229680E+03   -0.60645E-04   -0.30559E-04  1592   0.456E-02    0.290E-02
DAV:   7    -0.479288256748E+03   -0.27068E-04   -0.62572E-05  1136   0.190E-02    0.162E-02
DAV:   8    -0.479288298941E+03   -0.42193E-04   -0.14784E-05  1008   0.988E-03    0.542E-03
DAV:   9    -0.479288310524E+03   -0.11583E-04   -0.46416E-06  1016   0.519E-03    0.315E-03
DAV:  10    -0.479288329963E+03   -0.19440E-04   -0.16330E-06  1024   0.309E-03    0.178E-03
DAV:  11    -0.479288349820E+03   -0.19857E-04   -0.16823E-06  1016   0.222E-03    0.113E-03
DAV:  12    -0.479288359312E+03   -0.94915E-05   -0.65079E-07   968   0.146E-03
  71 F= -.47928836E+03 E0= -.47925731E+03  d E =-.270511E-01
       N       E                     dE             d eps       ncg     rms          rms(c)
DAV:   1    -0.479265509897E+03    0.22840E-01   -0.67858E+01  1440   0.151E+01    0.738E-01
DAV:   2    -0.479314189162E+03   -0.48679E-01   -0.55243E-01  1592   0.185E+00    0.451E-01
DAV:   3    -0.479313169930E+03    0.10192E-02   -0.14931E-02  1672   0.328E-01    0.297E-01
DAV:   4    -0.479312814713E+03    0.35522E-03   -0.28632E-03  1616   0.157E-01    0.141E-01
DAV:   5    -0.479312922949E+03   -0.10824E-03   -0.12446E-03  1600   0.952E-02    0.512E-02
DAV:   6    -0.479312951836E+03   -0.28887E-04   -0.40044E-04  1608   0.475E-02    0.273E-02
DAV:   7    -0.479312969094E+03   -0.17258E-04   -0.57714E-05  1160   0.188E-02    0.147E-02
DAV:   8    -0.479312998873E+03   -0.29779E-04   -0.11583E-05  1032   0.100E-02    0.561E-03
DAV:   9    -0.479313021854E+03   -0.22981E-04   -0.34914E-06  1024   0.505E-03    0.302E-03
DAV:  10    -0.479313043043E+03   -0.21189E-04   -0.16611E-06  1008   0.314E-03    0.153E-03
DAV:  11    -0.479313066946E+03   -0.23903E-04   -0.21596E-06  1032   0.262E-03    0.136E-03
DAV:  12    -0.479313077488E+03   -0.10542E-04   -0.82631E-07   976   0.176E-03    0.999E-04
DAV:  13    -0.479313088862E+03   -0.11374E-04   -0.12387E-06  1016   0.158E-03    0.608E-04
DAV:  14    -0.479313075752E+03    0.13110E-04   -0.13193E-06   992   0.151E-03    0.338E-04
DAV:  15    -0.479313077265E+03   -0.15133E-05   -0.25273E-07   968   0.899E-04
  72 F= -.47931308E+03 E0= -.47928213E+03  d E =-.247180E-01
       N       E                     dE             d eps       ncg     rms          rms(c)
DAV:   1    -0.479283185564E+03    0.29890E-01   -0.52941E+01  1440   0.133E+01    0.646E-01
DAV:   2    -0.479320889587E+03   -0.37704E-01   -0.42810E-01  1592   0.162E+00    0.396E-01
DAV:   3    -0.479320088901E+03    0.80069E-03   -0.11370E-02  1664   0.285E-01    0.261E-01
DAV:   4    -0.479319841157E+03    0.24774E-03   -0.23624E-03  1616   0.140E-01    0.121E-01
DAV:   5    -0.479319930598E+03   -0.89441E-04   -0.11406E-03  1616   0.859E-02    0.477E-02
DAV:   6    -0.479319947524E+03   -0.16926E-04   -0.37365E-04  1608   0.441E-02    0.244E-02
