<?xml version="1.0" encoding="ISO-8859-1"?>
<modeling>
 <generator>
  <i name="program" type="string">vasp </i>
  <i name="version" type="string">6.3.2  </i>
  <i name="subversion" type="string">27Jun22 (build May 04 2024 18:40:40) complex                          parallel </i>
  <i name="platform" type="string">LinuxIFC </i>
  <i name="date" type="string">2024 09 03 </i>
  <i name="time" type="string">09:08:57 </i>
 </generator>
 <incar>
  <i type="string" name="SYSTEM">slab_Cel1-OPT</i>
  <i type="int" name="ISTART">     0</i>
  <i type="string" name="PREC">N</i>
  <i type="string" name="ALGO">N</i>
  <i type="int" name="ICHARG">     2</i>
  <i type="int" name="NELM">   200</i>
  <i type="int" name="IBRION">     2</i>
  <i name="EDIFF">      0.00001000</i>
  <i name="EDIFFG">     -0.05000000</i>
  <i type="int" name="NSW">  1000</i>
  <i type="int" name="ISIF">     3</i>
  <i name="ENCUT">    400.00000000</i>
  <i name="POTIM">      0.10000000</i>
  <i type="string" name="LREAL">AUTO</i>
  <i type="int" name="ISMEAR">     0</i>
  <i name="SIGMA">      0.10000000</i>
  <i type="logical" name="LWAVE"> F  </i>
  <i type="logical" name="LCHARG"> F  </i>
  <i type="logical" name="LELF"> F  </i>
  <i type="logical" name="LAECHG"> F  </i>
  <i type="logical" name="LDIPOL"> T  </i>
  <i type="int" name="IDIPOL">     3</i>
 </incar>
 <primitive_cell>
  <structure name="primitive_cell" >
   <crystal>
    <varray name="basis" >
     <v>      13.71800007       0.00000000       0.00000000 </v>
     <v>       0.00000000      10.91293292       0.00000000 </v>
     <v>       0.00000000       0.00000000      15.00000000 </v>
    </varray>
    <i name="volume">   2245.55421796 </i>
    <varray name="rec_basis" >
     <v>       0.07289692       0.00000000       0.00000000 </v>
     <v>       0.00000000       0.09163439       0.00000000 </v>
     <v>       0.00000000       0.00000000       0.06666667 </v>
    </varray>
   </crystal>
   <varray name="positions" >
    <v>       0.07029904       0.38277314       0.23162657 </v>
    <v>       0.97998359       0.21488957       0.16763345 </v>
    <v>       0.22765447       0.39568243       0.19589280 </v>
    <v>       0.82651578       0.57637196       0.19653811 </v>
    <v>       0.14730919       0.25081789       0.12065785 </v>
    <v>       0.90718297       0.37886318       0.23042336 </v>
    <v>       0.56778047       0.39250902       0.23963622 </v>
    <v>       0.47730184       0.22394371       0.17728676 </v>
    <v>       0.72990475       0.39825712       0.21050842 </v>
    <v>       0.30895079       0.58420349       0.18575988 </v>
    <v>       0.64684117       0.25649995       0.13339035 </v>
    <v>       0.40150632       0.39280912       0.22800270 </v>
    <v>       0.81961793       0.88475803       0.04946464 </v>
    <v>       0.73206482       0.72075731       0.13394326 </v>
    <v>       0.98103183       0.89189035       0.07046239 </v>
    <v>       0.06681443       0.07878758       0.08387808 </v>
    <v>       0.90799407       0.74252405       0.14843226 </v>
    <v>       0.65629181       0.89130315       0.06988521 </v>
    <v>       0.31890399       0.89571371       0.04548035 </v>
    <v>       0.22681817       0.72040919       0.09806894 </v>
    <v>       0.47613994       0.90426087       0.08572297 </v>
    <v>       0.56667210       0.08442453       0.09961672 </v>
    <v>       0.38528959       0.76576950       0.16160727 </v>
    <v>       0.15582151       0.88869998       0.04089597 </v>
    <v>       0.98820906       0.43197646       0.26141726 </v>
    <v>       0.89882724       0.26328804       0.20097663 </v>
    <v>       0.15809587       0.42646060       0.25326906 </v>
    <v>       0.14492924       0.14986694       0.07126011 </v>
    <v>       0.98467110       0.10533513       0.12864555 </v>
    <v>       0.22705292       0.32087300       0.12632779 </v>
    <v>       0.06594124       0.28475896       0.17133175 </v>
    <v>       0.82297987       0.45388638       0.22709706 </v>
    <v>       0.48327605       0.44736833       0.26098327 </v>
    <v>       0.39567416       0.27377107       0.20673744 </v>
    <v>       0.65645555       0.43265251       0.26609009 </v>
    <v>       0.64550580       0.15365522       0.08658160 </v>
    <v>       0.48292167       0.11371349       0.14073022 </v>
    <v>       0.72645539       0.32559169       0.13995294 </v>
    <v>       0.56433842       0.29303543       0.18197220 </v>
    <v>       0.31711429       0.46159360       0.21301875 </v>
    <v>       0.73455986       0.93763459       0.02950349 </v>
    <v>       0.65082529       0.78235931       0.11292169 </v>
    <v>       0.90524399       0.92689581       0.02091075 </v>
    <v>       0.90962117       0.63918803       0.19549572 </v>
    <v>       0.72951797       0.61236649       0.18801953 </v>
    <v>       0.98658992       0.81179169       0.13710838 </v>
    <v>       0.82133842       0.78210185       0.10678741 </v>
    <v>       0.56942961       0.96095933       0.07270424 </v>
    <v>       0.23812942       0.94568626       0.01515973 </v>
    <v>       0.14937820       0.76730386       0.05914201 </v>
    <v>       0.40942058       0.93369889       0.02607305 </v>
    <v>       0.37875274       0.66471716       0.21245894 </v>
    <v>       0.23379721       0.60750267       0.13214764 </v>
    <v>       0.46609047       0.83455077       0.15992195 </v>
    <v>       0.31020692       0.79643047       0.10581663 </v>
    <v>       0.06996042       0.95682134       0.05180558 </v>
    <v>       0.57855835       0.77993711       0.23856416 </v>
    <v>       0.65262203       0.61261170       0.31198085 </v>
    <v>       0.48403349       0.62336670       0.29876810 </v>
   </varray>
  </structure>
  <varray name="primitive_index" >
   <v type="int" >        1 </v>
   <v type="int" >        2 </v>
   <v type="int" >        3 </v>
   <v type="int" >        4 </v>
   <v type="int" >        5 </v>
   <v type="int" >        6 </v>
   <v type="int" >        7 </v>
   <v type="int" >        8 </v>
   <v type="int" >        9 </v>
   <v type="int" >       10 </v>
   <v type="int" >       11 </v>
   <v type="int" >       12 </v>
   <v type="int" >       13 </v>
   <v type="int" >       14 </v>
   <v type="int" >       15 </v>
   <v type="int" >       16 </v>
   <v type="int" >       17 </v>
   <v type="int" >       18 </v>
   <v type="int" >       19 </v>
   <v type="int" >       20 </v>
   <v type="int" >       21 </v>
   <v type="int" >       22 </v>
   <v type="int" >       23 </v>
   <v type="int" >       24 </v>
   <v type="int" >       25 </v>
   <v type="int" >       26 </v>
   <v type="int" >       27 </v>
   <v type="int" >       28 </v>
   <v type="int" >       29 </v>
   <v type="int" >       30 </v>
   <v type="int" >       31 </v>
   <v type="int" >       32 </v>
   <v type="int" >       33 </v>
   <v type="int" >       34 </v>
   <v type="int" >       35 </v>
   <v type="int" >       36 </v>
   <v type="int" >       37 </v>
   <v type="int" >       38 </v>
   <v type="int" >       39 </v>
   <v type="int" >       40 </v>
   <v type="int" >       41 </v>
   <v type="int" >       42 </v>
   <v type="int" >       43 </v>
   <v type="int" >       44 </v>
   <v type="int" >       45 </v>
   <v type="int" >       46 </v>
   <v type="int" >       47 </v>
   <v type="int" >       48 </v>
   <v type="int" >       49 </v>
   <v type="int" >       50 </v>
   <v type="int" >       51 </v>
   <v type="int" >       52 </v>
   <v type="int" >       53 </v>
   <v type="int" >       54 </v>
   <v type="int" >       55 </v>
   <v type="int" >       56 </v>
   <v type="int" >       57 </v>
   <v type="int" >       58 </v>
   <v type="int" >       59 </v>
  </varray>
 </primitive_cell>
 <kpoints>
  <generation param="Gamma">
   <v type="int" name="divisions">       2        2        1 </v>
   <v name="usershift">      0.00000000       0.00000000       0.00000000 </v>
   <v name="genvec1">      0.50000000       0.00000000       0.00000000 </v>
   <v name="genvec2">      0.00000000       0.50000000       0.00000000 </v>
   <v name="genvec3">      0.00000000       0.00000000       1.00000000 </v>
   <v name="shift">      0.00000000       0.00000000       0.00000000 </v>
  </generation>
  <varray name="kpointlist" >
   <v>       0.00000000       0.00000000       0.00000000 </v>
   <v>       0.50000000       0.00000000       0.00000000 </v>
   <v>       0.00000000       0.50000000       0.00000000 </v>
   <v>       0.50000000       0.50000000       0.00000000 </v>
  </varray>
  <varray name="weights" >
   <v>       0.25000000 </v>
   <v>       0.25000000 </v>
   <v>       0.25000000 </v>
   <v>       0.25000000 </v>
  </varray>
 </kpoints>
 <parameters>
  <separator name="general" >
   <i type="string" name="SYSTEM">slab_Cel1-OPT</i>
   <i type="logical" name="LCOMPAT"> F  </i>
  </separator>
  <separator name="electronic" >
   <i type="string" name="PREC">n</i>
   <i name="ENMAX">    400.00000000</i>
   <i name="ENAUG">    644.87300000</i>
   <i name="EDIFF">      0.00001000</i>
   <i type="int" name="IALGO">    38</i>
   <i type="int" name="IWAVPR">    11</i>
   <i type="int" name="NBANDS">   176</i>
   <i type="int" name="NBANDSLOW">    -1</i>
   <i type="int" name="NBANDSHIGH">    -1</i>
   <i name="NELECT">    289.00000000</i>
   <i type="int" name="TURBO">     0</i>
   <i type="int" name="IRESTART">     0</i>
   <i type="int" name="NREBOOT">     0</i>
   <i type="int" name="NMIN">     0</i>
   <i name="EREF">      0.00000000</i>
   <separator name="electronic smearing" >
    <i type="int" name="ISMEAR">     0</i>
    <i name="SIGMA">      0.10000000</i>
    <i name="KSPACING">      0.50000000</i>
    <i type="logical" name="KGAMMA"> T  </i>
    <i type="logical" name="KBLOWUP"> T  </i>
   </separator>
   <separator name="electronic projectors" >
    <i type="logical" name="LREAL"> T  </i>
    <v name="ROPT">     -0.00050000     -0.00050000     -0.00050000</v>
    <i type="int" name="LMAXPAW">  -100</i>
    <i type="int" name="LMAXMIX">     2</i>
    <i type="logical" name="NLSPLINE"> F  </i>
   </separator>
   <separator name="electronic startup" >
    <i type="int" name="ISTART">     0</i>
    <i type="int" name="ICHARG">     2</i>
    <i type="int" name="INIWAV">     1</i>
   </separator>
   <separator name="electronic spin" >
    <i type="int" name="ISPIN">     1</i>
    <i type="logical" name="LNONCOLLINEAR"> F  </i>
    <v name="MAGMOM">      1.00000000      1.00000000      1.00000000      1.00000000      1.00000000      1.00000000      1.00000000      1.00000000      1.00000000      1.00000000      1.00000000      1.00000000      1.00000000      1.00000000      1.00000000      1.00000000      1.00000000      1.00000000      1.00000000      1.00000000
      1.00000000      1.00000000      1.00000000      1.00000000      1.00000000      1.00000000      1.00000000      1.00000000      1.00000000      1.00000000      1.00000000      1.00000000      1.00000000      1.00000000      1.00000000      1.00000000      1.00000000      1.00000000      1.00000000      1.00000000
      1.00000000      1.00000000      1.00000000      1.00000000      1.00000000      1.00000000      1.00000000      1.00000000      1.00000000      1.00000000      1.00000000      1.00000000      1.00000000      1.00000000      1.00000000      1.00000000      1.00000000      1.00000000      1.00000000</v>
    <i name="NUPDOWN">     -1.00000000</i>
    <i type="logical" name="LSORBIT"> F  </i>
    <v name="SAXIS">      0.00000000      0.00000000      1.00000000</v>
    <i type="logical" name="LSPIRAL"> F  </i>
    <v name="QSPIRAL">      0.00000000      0.00000000      0.00000000</v>
    <i type="logical" name="LZEROZ"> F  </i>
   </separator>
   <separator name="electronic exchange-correlation" >
    <i type="logical" name="LASPH"> F  </i>
    <i type="logical" name="LMETAGGA"> F  </i>
   </separator>
   <separator name="electronic convergence" >
    <i type="int" name="NELM">   200</i>
    <i type="int" name="NELMDL">    -5</i>
    <i type="int" name="NELMIN">     2</i>
    <i name="ENINI">    400.00000000</i>
    <separator name="electronic convergence detail" >
     <i type="logical" name="LDIAG"> T  </i>
     <i type="logical" name="LSUBROT"> F  </i>
     <i name="WEIMIN">      0.00100000</i>
     <i name="EBREAK">      0.00000001</i>
     <i name="DEPER">      0.30000000</i>
     <i type="int" name="NRMM">     4</i>
     <i name="TIME">      0.40000000</i>
    </separator>
   </separator>
   <separator name="electronic mixer" >
    <i name="AMIX">      0.40000000</i>
    <i name="BMIX">      1.00000000</i>
    <i name="AMIN">      0.10000000</i>
    <i name="AMIX_MAG">      1.60000000</i>
    <i name="BMIX_MAG">      1.00000000</i>
    <separator name="electronic mixer details" >
     <i type="int" name="IMIX">     4</i>
     <i type="logical" name="MIXFIRST"> F  </i>
     <i type="int" name="MAXMIX">   -45</i>
     <i name="WC">    100.00000000</i>
     <i type="int" name="INIMIX">     1</i>
     <i type="int" name="MIXPRE">     1</i>
     <i type="int" name="MREMOVE">     5</i>
    </separator>
   </separator>
   <separator name="electronic dipolcorrection" >
    <i type="logical" name="LDIPOL"> T  </i>
    <i type="logical" name="LMONO"> F  </i>
    <i type="int" name="IDIPOL">     3</i>
    <i name="EPSILON">      1.00000000</i>
    <v name="DIPOL">   -100.00000000   -100.00000000   -100.00000000</v>
    <i name="EFIELD">      0.00000000</i>
   </separator>
  </separator>
  <separator name="grids" >
   <i type="int" name="NGX">    70</i>
   <i type="int" name="NGY">    54</i>
   <i type="int" name="NGZ">    80</i>
   <i type="int" name="NGXF">   140</i>
   <i type="int" name="NGYF">   108</i>
   <i type="int" name="NGZF">   160</i>
   <i type="logical" name="ADDGRID"> F  </i>
  </separator>
  <separator name="ionic" >
   <i type="int" name="NSW">  1000</i>
   <i type="int" name="IBRION">     2</i>
   <i type="int" name="MDALGO">     0</i>
   <i type="int" name="ISIF">     3</i>
   <i name="PSTRESS">      0.00000000</i>
   <i name="EDIFFG">     -0.05000000</i>
   <i type="int" name="NFREE">     1</i>
   <i name="POTIM">      0.10000000</i>
   <i name="SMASS">     -3.00000000</i>
   <i name="SCALEE">      1.00000000</i>
  </separator>
  <separator name="ionic md" >
   <i name="TEBEG">      0.00010000</i>
   <i name="TEEND">      0.00010000</i>
   <i type="int" name="NBLOCK">     1</i>
   <i type="int" name="KBLOCK">  1000</i>
   <i type="int" name="NPACO">   256</i>
   <i name="APACO">     10.00000000</i>
  </separator>
  <separator name="symmetry" >
   <i type="int" name="ISYM">     2</i>
   <i name="SYMPREC">      0.00001000</i>
  </separator>
  <separator name="dos" >
   <i type="int" name="LORBIT">     0</i>
   <v name="RWIGS">     -1.00000000     -1.00000000     -1.00000000</v>
   <i type="int" name="NEDOS">   301</i>
   <i name="EMIN">     10.00000000</i>
   <i name="EMAX">    -10.00000000</i>
   <i name="EFERMI">      0.00000000</i>
  </separator>
  <separator name="writing" >
   <i type="int" name="NWRITE">     2</i>
   <i type="logical" name="LWAVE"> F  </i>
   <i type="logical" name="LDOWNSAMPLE"> F  </i>
   <i type="logical" name="LCHARG"> F  </i>
   <i type="logical" name="LPARD"> F  </i>
   <i type="logical" name="LVTOT"> F  </i>
   <i type="logical" name="LVHAR"> F  </i>
   <i type="logical" name="LELF"> F  </i>
   <i type="logical" name="LOPTICS"> F  </i>
   <v name="STM">      0.00000000      0.00000000      0.00000000      0.00000000      0.00000000      0.00000000      0.00000000</v>
  </separator>
  <separator name="performance" >
   <i type="int" name="NPAR">     4</i>
   <i type="int" name="NSIM">     4</i>
   <i type="int" name="NBLK">    -1</i>
   <i type="logical" name="LPLANE"> T  </i>
   <i type="logical" name="LSCALAPACK"> T  </i>
   <i type="logical" name="LSCAAWARE"> F  </i>
   <i type="logical" name="LSCALU"> F  </i>
   <i type="logical" name="LASYNC"> F  </i>
   <i type="logical" name="LORBITALREAL"> F  </i>
  </separator>
  <separator name="miscellaneous" >
   <i type="int" name="IDIOT">     3</i>
   <i type="int" name="PHON_NSTRUCT">    -1</i>
   <i type="logical" name="LMUSIC"> F  </i>
   <v name="POMASS">     12.01100000     14.00100000    107.86800000</v>
   <v name="DARWINR">      0.00000000      0.00000000      0.00000000</v>
   <v name="DARWINV">      1.00000000      1.00000000      1.00000000</v>
   <i type="logical" name="LCORR"> T  </i>
  </separator>
  <i type="logical" name="GGA_COMPAT"> T  </i>
  <i type="logical" name="LBERRY"> F  </i>
  <i type="int" name="ICORELEVEL">     0</i>
  <i type="logical" name="LDAU"> F  </i>
  <i type="int" name="I_CONSTRAINED_M">     0</i>
  <separator name="electronic exchange-correlation" >
   <i type="string" name="GGA">--</i>
   <i type="int" name="VOSKOWN">     0</i>
   <i type="logical" name="LHFCALC"> F  </i>
   <i type="string" name="PRECFOCK"></i>
   <i type="logical" name="LSYMGRAD"> F  </i>
   <i type="logical" name="LHFONE"> F  </i>
   <i type="logical" name="LRHFCALC"> F  </i>
   <i type="logical" name="LTHOMAS"> F  </i>
   <i type="logical" name="LMODELHF"> F  </i>
   <i type="logical" name="LFOCKACE"> F  </i>
   <i name="ENCUT4O">     -1.00000000</i>
   <i type="int" name="EXXOEP">     0</i>
   <i type="int" name="FOURORBIT">     0</i>
   <i name="AEXX">      0.00000000</i>
   <i name="HFALPHA">      0.00000000</i>
   <i name="MCALPHA">      0.00000000</i>
   <i name="ALDAX">      1.00000000</i>
   <i name="AGGAX">      1.00000000</i>
   <i name="ALDAC">      1.00000000</i>
   <i name="AGGAC">      1.00000000</i>
   <i type="int" name="NKREDX">     1</i>
   <i type="int" name="NKREDY">     1</i>
   <i type="int" name="NKREDZ">     1</i>
   <i type="logical" name="SHIFTRED"> F  </i>
   <i type="logical" name="ODDONLY"> F  </i>
   <i type="logical" name="EVENONLY"> F  </i>
   <i type="int" name="LMAXFOCK">     0</i>
   <i type="int" name="NMAXFOCKAE">     0</i>
   <i type="logical" name="LFOCKAEDFT"> F  </i>
   <i name="HFSCREEN">      0.00000000</i>
   <i name="HFSCREENC">      0.00000000</i>
   <i type="int" name="NBANDSGWLOW">     0</i>
  </separator>
  <separator name="vdW DFT" >
   <i type="logical" name="LUSE_VDW"> F  </i>
   <i name="Zab_VDW">     -0.84910000</i>
   <i name="PARAM1">      0.12340000</i>
   <i name="PARAM2">      1.00000000</i>
   <i name="PARAM3">      0.00000000</i>
  </separator>
  <separator name="model GW" >
   <i type="int" name="MODEL_GW">     0</i>
   <i name="MODEL_EPS0">     22.83614459</i>
   <i name="MODEL_ALPHA">      1.00000000</i>
  </separator>
  <separator name="linear response parameters" >
   <i type="logical" name="LEPSILON"> F  </i>
   <i type="logical" name="LRPA"> F  </i>
   <i type="logical" name="LNABLA"> F  </i>
   <i type="logical" name="LVEL"> F  </i>
   <i name="CSHIFT">      0.10000000</i>
   <i name="OMEGAMAX">     -1.00000000</i>
   <i name="DEG_THRESHOLD">      0.00200000</i>
   <i name="RTIME">     -0.10000000</i>
   <i name="WPLASMAI">      0.00000000</i>
   <v name="DFIELD">      0.00000000      0.00000000      0.00000000</v>
   <v name="WPLASMA">      0.00000000      0.00000000      0.00000000      0.00000000      0.00000000      0.00000000      0.00000000      0.00000000      0.00000000</v>
  </separator>
  <separator name="orbital magnetization" >
   <i type="logical" name="NUCIND"> F  </i>
   <v name="MAGPOS">      0.00000000      0.00000000      0.00000000</v>
   <i type="logical" name="LNICSALL"> T  </i>
   <i type="logical" name="ORBITALMAG"> F  </i>
   <i type="logical" name="LMAGBLOCH"> F  </i>
   <i type="logical" name="LCHIMAG"> F  </i>
   <i type="logical" name="LGAUGE"> T  </i>
   <i type="int" name="MAGATOM">     0</i>
   <v name="MAGDIPOL">      0.00000000      0.00000000      0.00000000</v>
   <v name="AVECCONST">      0.00000000      0.00000000      0.00000000</v>
  </separator>
  <separator name="response functions" >
   <i type="logical" name="LFINITE_TEMPERATURE"> F  </i>
   <i type="logical" name="LADDER"> F  </i>
   <i type="logical" name="LRPAFORCE"> F  </i>
   <i type="logical" name="LFXC"> F  </i>
   <i type="logical" name="LHARTREE"> T  </i>
   <i type="int" name="IBSE">     0</i>
   <v type="int" name="KPOINT">    -1     0     0     0</v>
   <i type="logical" name="LTCTC"> F  </i>
   <i type="logical" name="LTCTE"> F  </i>
   <i type="logical" name="LTETE"> F  </i>
   <i type="logical" name="LTRIPLET"> F  </i>
   <i type="logical" name="LFXCEPS"> F  </i>
   <i type="logical" name="LFXHEG"> F  </i>
   <i type="int" name="NATURALO">     2</i>
   <i type="logical" name="LHOLEGF"> F  </i>
   <i type="logical" name="L2ORDER"> F  </i>
   <i type="logical" name="LDMP1"> F  </i>
   <i type="logical" name="LMP2LT"> F  </i>
   <i type="logical" name="LSMP2LT"> F  </i>
   <i type="logical" name="LGWLF"> F  </i>
   <i name="ENCUTGW">     -2.00000000</i>
   <i name="ENCUTGWSOFT">     -2.00000000</i>
   <i name="ENCUTLF">     -1.00000000</i>
   <i type="logical" name="LESF_SPLINES"> F  </i>
   <i type="int" name="LMAXMP2">    -1</i>
   <i name="SCISSOR">      0.00000000</i>
   <i type="int" name="NOMEGA">     0</i>
   <i type="int" name="NOMEGAR">     0</i>
   <i type="int" name="NBANDSGW">    -1</i>
   <i type="int" name="NBANDSO">    -1</i>
   <i type="int" name="NBANDSV">    -1</i>
   <i type="int" name="NELMGW">     1</i>
   <i type="int" name="NELMHF">     1</i>
   <i type="int" name="DIM">     3</i>
   <i type="int" name="IESPILON">     4</i>
   <i type="int" name="ANTIRES">     0</i>
   <i name="OMEGAMAX">    -30.00000000</i>
   <i name="OMEGAMIN">    -30.00000000</i>
   <i name="OMEGATL">   -200.00000000</i>
   <i type="int" name="OMEGAGRID">     0</i>
   <i name="CSHIFT">     -0.10000000</i>
   <i type="logical" name="LSELFENERGY"> F  </i>
   <i type="logical" name="LSPECTRAL"> F  </i>
   <i type="logical" name="LSPECTRALGW"> F  </i>
   <i type="logical" name="LSINGLES"> F  </i>
   <i type="logical" name="LFERMIGW"> F  </i>
   <i type="logical" name="ODDONLYGW"> F  </i>
   <i type="logical" name="EVENONLYGW"> F  </i>
   <i type="int" name="NKREDLFX">     1</i>
   <i type="int" name="NKREDLFY">     1</i>
   <i type="int" name="NKREDLFZ">     1</i>
   <i type="int" name="MAXMEM">  2800</i>
   <i type="int" name="TELESCOPE">     0</i>
   <i type="int" name="NTAUPAR">    -1</i>
   <i type="int" name="NOMEGAPAR">    -1</i>
   <i name="DAMP_NEWTON">      0.80000001</i>
   <i name="LAMBDA">      1.00000000</i>
  </separator>
  <separator name="External order field" >
   <i name="OFIELD_KAPPA">      0.00000000</i>
   <v name="OFIELD_K">      0.00000000      0.00000000      0.00000000</v>
   <i name="OFIELD_Q6_NEAR">      0.00000000</i>
   <i name="OFIELD_Q6_FAR">      0.00000000</i>
   <i name="OFIELD_A">      0.00000000</i>
  </separator>
  <separator name="optional k-points parameters" >
   <i type="int" name="KPOINTS_OPT_MODE">     1</i>
   <i type="logical" name="LKPOINTS_OPT"> F  </i>
  </separator>
  <separator name="solvation model" >
   <i type="logical" name="LSOL"> F  </i>
  </separator>
 </parameters>
 <atominfo>
  <atoms>      59 </atoms>
  <types>       3 </types>
  <array name="atoms" >
   <dimension dim="1">ion</dimension>
   <field type="string">element</field>
   <field type="int">atomtype</field>
   <set>
    <rc><c>C </c><c>   1</c></rc>
    <rc><c>C </c><c>   1</c></rc>
    <rc><c>C </c><c>   1</c></rc>
    <rc><c>C </c><c>   1</c></rc>
    <rc><c>C </c><c>   1</c></rc>
    <rc><c>C </c><c>   1</c></rc>
    <rc><c>C </c><c>   1</c></rc>
    <rc><c>C </c><c>   1</c></rc>
    <rc><c>C </c><c>   1</c></rc>
    <rc><c>C </c><c>   1</c></rc>
    <rc><c>C </c><c>   1</c></rc>
    <rc><c>C </c><c>   1</c></rc>
    <rc><c>C </c><c>   1</c></rc>
    <rc><c>C </c><c>   1</c></rc>
    <rc><c>C </c><c>   1</c></rc>
    <rc><c>C </c><c>   1</c></rc>
    <rc><c>C </c><c>   1</c></rc>
    <rc><c>C </c><c>   1</c></rc>
    <rc><c>C </c><c>   1</c></rc>
    <rc><c>C </c><c>   1</c></rc>
    <rc><c>C </c><c>   1</c></rc>
    <rc><c>C </c><c>   1</c></rc>
    <rc><c>C </c><c>   1</c></rc>
    <rc><c>C </c><c>   1</c></rc>
    <rc><c>N </c><c>   2</c></rc>
    <rc><c>N </c><c>   2</c></rc>
    <rc><c>N </c><c>   2</c></rc>
    <rc><c>N </c><c>   2</c></rc>
    <rc><c>N </c><c>   2</c></rc>
    <rc><c>N </c><c>   2</c></rc>
    <rc><c>N </c><c>   2</c></rc>
    <rc><c>N </c><c>   2</c></rc>
    <rc><c>N </c><c>   2</c></rc>
    <rc><c>N </c><c>   2</c></rc>
    <rc><c>N </c><c>   2</c></rc>
    <rc><c>N </c><c>   2</c></rc>
    <rc><c>N </c><c>   2</c></rc>
    <rc><c>N </c><c>   2</c></rc>
    <rc><c>N </c><c>   2</c></rc>
    <rc><c>N </c><c>   2</c></rc>
    <rc><c>N </c><c>   2</c></rc>
    <rc><c>N </c><c>   2</c></rc>
    <rc><c>N </c><c>   2</c></rc>
    <rc><c>N </c><c>   2</c></rc>
    <rc><c>N </c><c>   2</c></rc>
    <rc><c>N </c><c>   2</c></rc>
    <rc><c>N </c><c>   2</c></rc>
    <rc><c>N </c><c>   2</c></rc>
    <rc><c>N </c><c>   2</c></rc>
    <rc><c>N </c><c>   2</c></rc>
    <rc><c>N </c><c>   2</c></rc>
    <rc><c>N </c><c>   2</c></rc>
    <rc><c>N </c><c>   2</c></rc>
    <rc><c>N </c><c>   2</c></rc>
    <rc><c>N </c><c>   2</c></rc>
    <rc><c>N </c><c>   2</c></rc>
    <rc><c>Ag</c><c>   3</c></rc>
    <rc><c>Ag</c><c>   3</c></rc>
    <rc><c>Ag</c><c>   3</c></rc>
   </set>
  </array>
  <array name="atomtypes" >
   <dimension dim="1">type</dimension>
   <field type="int">atomspertype</field>
   <field type="string">element</field>
   <field>mass</field>
   <field>valence</field>
   <field type="string">pseudopotential</field>
   <set>
    <rc><c>  24</c><c>C </c><c>     12.01100000</c><c>      4.00000000</c><c>  PAW_PBE C 08Apr2002                   </c></rc>
    <rc><c>  32</c><c>N </c><c>     14.00100000</c><c>      5.00000000</c><c>  PAW_PBE N 08Apr2002                   </c></rc>
    <rc><c>   3</c><c>Ag</c><c>    107.86800000</c><c>     11.00000000</c><c>  PAW_PBE Ag 02Apr2005                  </c></rc>
   </set>
  </array>
 </atominfo>
 <structure name="initialpos" >
  <crystal>
   <varray name="basis" >
    <v>      13.71800007       0.00000000       0.00000000 </v>
    <v>       0.00000000      10.91293292       0.00000000 </v>
    <v>       0.00000000       0.00000000      15.00000000 </v>
   </varray>
   <i name="volume">   2245.55421796 </i>
   <varray name="rec_basis" >
    <v>       0.07289692       0.00000000       0.00000000 </v>
    <v>       0.00000000       0.09163439       0.00000000 </v>
    <v>       0.00000000       0.00000000       0.06666667 </v>
   </varray>
  </crystal>
  <varray name="positions" >
   <v>       0.07029904       0.38277314       0.23162657 </v>
   <v>       0.97998359       0.21488957       0.16763345 </v>
   <v>       0.22765447       0.39568243       0.19589280 </v>
   <v>       0.82651578       0.57637196       0.19653811 </v>
   <v>       0.14730919       0.25081789       0.12065785 </v>
   <v>       0.90718297       0.37886318       0.23042336 </v>
   <v>       0.56778047       0.39250902       0.23963622 </v>
   <v>       0.47730184       0.22394371       0.17728676 </v>
   <v>       0.72990475       0.39825712       0.21050842 </v>
   <v>       0.30895079       0.58420349       0.18575988 </v>
   <v>       0.64684117       0.25649995       0.13339035 </v>
   <v>       0.40150632       0.39280912       0.22800270 </v>
   <v>       0.81961793       0.88475803       0.04946464 </v>
   <v>       0.73206482       0.72075731       0.13394326 </v>
   <v>       0.98103183       0.89189035       0.07046239 </v>
   <v>       0.06681443       0.07878758       0.08387808 </v>
   <v>       0.90799407       0.74252405       0.14843226 </v>
   <v>       0.65629181       0.89130315       0.06988521 </v>
   <v>       0.31890399       0.89571371       0.04548035 </v>
   <v>       0.22681817       0.72040919       0.09806894 </v>
   <v>       0.47613994       0.90426087       0.08572297 </v>
   <v>       0.56667210       0.08442453       0.09961672 </v>
   <v>       0.38528959       0.76576950       0.16160727 </v>
   <v>       0.15582151       0.88869998       0.04089597 </v>
   <v>       0.98820906       0.43197646       0.26141726 </v>
   <v>       0.89882724       0.26328804       0.20097663 </v>
   <v>       0.15809587       0.42646060       0.25326906 </v>
   <v>       0.14492924       0.14986694       0.07126011 </v>
   <v>       0.98467110       0.10533513       0.12864555 </v>
   <v>       0.22705292       0.32087300       0.12632779 </v>
   <v>       0.06594124       0.28475896       0.17133175 </v>
   <v>       0.82297987       0.45388638       0.22709706 </v>
   <v>       0.48327605       0.44736833       0.26098327 </v>
   <v>       0.39567416       0.27377107       0.20673744 </v>
   <v>       0.65645555       0.43265251       0.26609009 </v>
   <v>       0.64550580       0.15365522       0.08658160 </v>
   <v>       0.48292167       0.11371349       0.14073022 </v>
   <v>       0.72645539       0.32559169       0.13995294 </v>
   <v>       0.56433842       0.29303543       0.18197220 </v>
   <v>       0.31711429       0.46159360       0.21301875 </v>
   <v>       0.73455986       0.93763459       0.02950349 </v>
   <v>       0.65082529       0.78235931       0.11292169 </v>
   <v>       0.90524399       0.92689581       0.02091075 </v>
   <v>       0.90962117       0.63918803       0.19549572 </v>
   <v>       0.72951797       0.61236649       0.18801953 </v>
   <v>       0.98658992       0.81179169       0.13710838 </v>
   <v>       0.82133842       0.78210185       0.10678741 </v>
   <v>       0.56942961       0.96095933       0.07270424 </v>
   <v>       0.23812942       0.94568626       0.01515973 </v>
   <v>       0.14937820       0.76730386       0.05914201 </v>
   <v>       0.40942058       0.93369889       0.02607305 </v>
   <v>       0.37875274       0.66471716       0.21245894 </v>
   <v>       0.23379721       0.60750267       0.13214764 </v>
   <v>       0.46609047       0.83455077       0.15992195 </v>
   <v>       0.31020692       0.79643047       0.10581663 </v>
   <v>       0.06996042       0.95682134       0.05180558 </v>
   <v>       0.57855835       0.77993711       0.23856416 </v>
   <v>       0.65262203       0.61261170       0.31198085 </v>
   <v>       0.48403349       0.62336670       0.29876810 </v>
  </varray>
 </structure>
 <calculation>
  <scstep>
   <time name="dav">    1.64    1.64</time>
   <time name="total">    1.67    1.68</time>
   <dipole>
    <v name="dipole">      0.00000000       0.00000000      -0.00003478 </v>
    <i name="Tr[quadrupol]">  -7895.57470599 </i>
    <i name="Echarged">      0.00000000 </i>
    <i name="Edipol_quadrupol">      0.00000000 </i>
    <i name="Eion">      0.00000000 </i>
   </dipole>
   <energy>
    <i name="alphaZ">    182.03520277 </i>
    <i name="ewald">  28599.64930646 </i>
    <i name="hartreedc"> -41223.43204992 </i>
    <i name="XCdc">    925.98815200 </i>
    <i name="pawpsdc">  12172.76297268 </i>
    <i name="pawaedc"> -12086.20157774 </i>
    <i name="eentropy">     -0.08644707 </i>
    <i name="bandstr">  -1183.44997497 </i>
    <i name="atom">  15106.02873529 </i>
    <i name="e_fr_energy">   2493.29431951 </i>
    <i name="e_wo_entrp">   2493.38076658 </i>
    <i name="e_0_energy">   2493.33754304 </i>
   </energy>
  </scstep>
  <scstep>
   <time name="dav">    1.83    1.83</time>
   <time name="total">    1.83    1.83</time>
   <dipole>
    <v name="dipole">      0.00000000       0.00000000      -0.00003478 </v>
    <i name="Tr[quadrupol]">  -7895.57470599 </i>
    <i name="Echarged">      0.00000000 </i>
    <i name="Edipol_quadrupol">      0.00000000 </i>
    <i name="Eion">      0.00000000 </i>
   </dipole>
   <energy>
    <i name="e_fr_energy">    -57.96758334 </i>
    <i name="e_wo_entrp">    -57.93813329 </i>
    <i name="e_0_energy">    -57.95285832 </i>
   </energy>
  </scstep>
  <scstep>
   <time name="dav">    1.58    1.58</time>
   <time name="total">    1.59    1.59</time>
   <dipole>
    <v name="dipole">      0.00000000       0.00000000      -0.00003478 </v>
    <i name="Tr[quadrupol]">  -7895.57470599 </i>
    <i name="Echarged">      0.00000000 </i>
    <i name="Edipol_quadrupol">      0.00000000 </i>
    <i name="Eion">      0.00000000 </i>
   </dipole>
   <energy>
    <i name="e_fr_energy">   -493.97581486 </i>
    <i name="e_wo_entrp">   -493.91335444 </i>
    <i name="e_0_energy">   -493.94458465 </i>
   </energy>
  </scstep>
  <scstep>
   <time name="dav">    1.59    1.59</time>
   <time name="total">    1.59    1.59</time>
   <dipole>
    <v name="dipole">      0.00000000       0.00000000      -0.00003478 </v>
    <i name="Tr[quadrupol]">  -7895.57470599 </i>
    <i name="Echarged">      0.00000000 </i>
    <i name="Edipol_quadrupol">      0.00000000 </i>
    <i name="Eion">      0.00000000 </i>
   </dipole>
   <energy>
    <i name="e_fr_energy">   -508.10427756 </i>
    <i name="e_wo_entrp">   -508.03734438 </i>
    <i name="e_0_energy">   -508.07081097 </i>
   </energy>
  </scstep>
  <scstep>
   <time name="dav">    1.74    1.75</time>
   <time name="total">    1.79    1.79</time>
   <dipole>
    <v name="dipole">      0.00000000       0.00000000      -0.00003478 </v>
    <i name="Tr[quadrupol]">  -7895.57470599 </i>
    <i name="Echarged">      0.00000000 </i>
    <i name="Edipol_quadrupol">      0.00000000 </i>
    <i name="Eion">      0.00000000 </i>
   </dipole>
   <energy>
    <i name="e_fr_energy">   -508.68942662 </i>
    <i name="e_wo_entrp">   -508.62033783 </i>
    <i name="e_0_energy">   -508.65488223 </i>
   </energy>
  </scstep>
  <scstep>
   <time name="dav">    1.54    1.54</time>
   <time name="total">    1.61    1.62</time>
   <dipole>
    <v name="dipole">      0.00000000       0.00000000      -0.62326497 </v>
    <i name="Tr[quadrupol]">  -7896.94988170 </i>
    <i name="Echarged">      0.00000000 </i>
    <i name="Edipol_quadrupol">      0.00000000 </i>
    <i name="Eion">      0.00000000 </i>
   </dipole>
   <energy>
    <i name="e_fr_energy">   -480.47127699 </i>
    <i name="e_wo_entrp">   -480.41514298 </i>
    <i name="e_0_energy">   -480.44320999 </i>
   </energy>
  </scstep>
  <scstep>
   <time name="dav">    1.51    1.51</time>
   <time name="total">    1.59    1.60</time>
   <dipole>
    <v name="dipole">      0.00000000       0.00000000      -0.39185149 </v>
    <i name="Tr[quadrupol]">  -7897.42849809 </i>
    <i name="Echarged">      0.00000000 </i>
    <i name="Edipol_quadrupol">      0.00000000 </i>
    <i name="Eion">      0.00000000 </i>
   </dipole>
   <energy>
    <i name="e_fr_energy">   -475.91968297 </i>
    <i name="e_wo_entrp">   -475.84957419 </i>
    <i name="e_0_energy">   -475.88462858 </i>
   </energy>
  </scstep>
  <scstep>
   <time name="dav">    1.60    1.60</time>
   <time name="total">    1.67    1.67</time>
   <dipole>
    <v name="dipole">      0.00000000       0.00000000      -0.23850875 </v>
    <i name="Tr[quadrupol]">  -7897.88943596 </i>
    <i name="Echarged">      0.00000000 </i>
    <i name="Edipol_quadrupol">      0.00000000 </i>
    <i name="Eion">      0.00000000 </i>
   </dipole>
   <energy>
    <i name="e_fr_energy">   -474.65620418 </i>
    <i name="e_wo_entrp">   -474.59802996 </i>
    <i name="e_0_energy">   -474.62711707 </i>
   </energy>
  </scstep>
  <scstep>
   <time name="dav">    1.52    1.52</time>
   <time name="total">    1.60    1.60</time>
   <dipole>
    <v name="dipole">      0.00000000       0.00000000      -0.20987818 </v>
    <i name="Tr[quadrupol]">  -7898.44488943 </i>
    <i name="Echarged">      0.00000000 </i>
    <i name="Edipol_quadrupol">      0.00000000 </i>
    <i name="Eion">      0.00000000 </i>
   </dipole>
   <energy>
    <i name="e_fr_energy">   -474.47344217 </i>
    <i name="e_wo_entrp">   -474.40855710 </i>
    <i name="e_0_energy">   -474.44099963 </i>
   </energy>
  </scstep>
  <scstep>
   <time name="dav">    1.56    1.56</time>
   <time name="total">    1.63    1.63</time>
   <dipole>
    <v name="dipole">      0.00000000       0.00000000      -0.19624759 </v>
    <i name="Tr[quadrupol]">  -7898.66369070 </i>
    <i name="Echarged">      0.00000000 </i>
    <i name="Edipol_quadrupol">      0.00000000 </i>
    <i name="Eion">      0.00000000 </i>
   </dipole>
   <energy>
    <i name="e_fr_energy">   -474.46068925 </i>
    <i name="e_wo_entrp">   -474.40071248 </i>
    <i name="e_0_energy">   -474.43070086 </i>
   </energy>
  </scstep>
  <scstep>
   <time name="dav">    1.51    1.52</time>
   <time name="total">    1.60    1.60</time>
   <dipole>
    <v name="dipole">      0.00000000       0.00000000      -0.18337127 </v>
    <i name="Tr[quadrupol]">  -7898.95973874 </i>
    <i name="Echarged">      0.00000000 </i>
    <i name="Edipol_quadrupol">      0.00000000 </i>
    <i name="Eion">      0.00000000 </i>
   </dipole>
   <energy>
    <i name="e_fr_energy">   -474.46283110 </i>
    <i name="e_wo_entrp">   -474.40116860 </i>
    <i name="e_0_energy">   -474.43199985 </i>
   </energy>
  </scstep>
  <scstep>
   <time name="dav">    1.52    1.52</time>
   <time name="total">    1.59    1.59</time>
   <dipole>
    <v name="dipole">      0.00000000       0.00000000      -0.16948480 </v>
    <i name="Tr[quadrupol]">  -7899.24938730 </i>
    <i name="Echarged">      0.00000000 </i>
    <i name="Edipol_quadrupol">      0.00000000 </i>
    <i name="Eion">      0.00000000 </i>
   </dipole>
   <energy>
    <i name="e_fr_energy">   -474.46712586 </i>
    <i name="e_wo_entrp">   -474.40542751 </i>
    <i name="e_0_energy">   -474.43627668 </i>
   </energy>
  </scstep>
  <scstep>
   <time name="dav">    1.51    1.51</time>
   <time name="total">    1.58    1.58</time>
   <dipole>
    <v name="dipole">      0.00000000       0.00000000      -0.15809751 </v>
    <i name="Tr[quadrupol]">  -7899.48970669 </i>
    <i name="Echarged">      0.00000000 </i>
    <i name="Edipol_quadrupol">      0.00000000 </i>
    <i name="Eion">      0.00000000 </i>
   </dipole>
   <energy>
    <i name="e_fr_energy">   -474.47183937 </i>
    <i name="e_wo_entrp">   -474.41038770 </i>
    <i name="e_0_energy">   -474.44111354 </i>
   </energy>
  </scstep>
  <scstep>
   <time name="dav">    1.52    1.52</time>
   <time name="total">    1.59    1.59</time>
   <dipole>
    <v name="dipole">      0.00000000       0.00000000      -0.14493902 </v>
    <i name="Tr[quadrupol]">  -7899.75603672 </i>
    <i name="Echarged">      0.00000000 </i>
    <i name="Edipol_quadrupol">      0.00000000 </i>
    <i name="Eion">      0.00000000 </i>
   </dipole>
   <energy>
    <i name="e_fr_energy">   -474.47696704 </i>
    <i name="e_wo_entrp">   -474.41545907 </i>
    <i name="e_0_energy">   -474.44621305 </i>
   </energy>
  </scstep>
  <scstep>
   <time name="dav">    1.60    1.60</time>
   <time name="total">    1.68    1.68</time>
   <dipole>
    <v name="dipole">      0.00000000       0.00000000      -0.12882493 </v>
    <i name="Tr[quadrupol]">  -7900.11446052 </i>
    <i name="Echarged">      0.00000000 </i>
    <i name="Edipol_quadrupol">      0.00000000 </i>
    <i name="Eion">      0.00000000 </i>
   </dipole>
   <energy>
    <i name="e_fr_energy">   -474.48361819 </i>
    <i name="e_wo_entrp">   -474.42209618 </i>
    <i name="e_0_energy">   -474.45285718 </i>
   </energy>
  </scstep>
  <scstep>
   <time name="dav">    1.56    1.56</time>
   <time name="total">    1.63    1.63</time>
   <dipole>
    <v name="dipole">      0.00000000       0.00000000      -0.12406813 </v>
    <i name="Tr[quadrupol]">  -7900.39767104 </i>
    <i name="Echarged">      0.00000000 </i>
    <i name="Edipol_quadrupol">      0.00000000 </i>
    <i name="Eion">      0.00000000 </i>
   </dipole>
   <energy>
    <i name="e_fr_energy">   -474.48839577 </i>
    <i name="e_wo_entrp">   -474.42698735 </i>
    <i name="e_0_energy">   -474.45769156 </i>
   </energy>
  </scstep>
  <scstep>
   <time name="dav">    1.47    1.48</time>
   <time name="total">    1.54    1.55</time>
   <dipole>
    <v name="dipole">      0.00000000       0.00000000      -0.12104580 </v>
    <i name="Tr[quadrupol]">  -7900.56988814 </i>
    <i name="Echarged">      0.00000000 </i>
    <i name="Edipol_quadrupol">      0.00000000 </i>
    <i name="Eion">      0.00000000 </i>
   </dipole>
   <energy>
    <i name="e_fr_energy">   -474.49083785 </i>
    <i name="e_wo_entrp">   -474.42932039 </i>
    <i name="e_0_energy">   -474.46007912 </i>
   </energy>
  </scstep>
  <scstep>
   <time name="dav">    1.35    1.35</time>
   <time name="total">    1.43    1.43</time>
   <dipole>
    <v name="dipole">      0.00000000       0.00000000      -0.11849641 </v>
    <i name="Tr[quadrupol]">  -7900.71451413 </i>
    <i name="Echarged">      0.00000000 </i>
    <i name="Edipol_quadrupol">      0.00000000 </i>
    <i name="Eion">      0.00000000 </i>
   </dipole>
   <energy>
    <i name="e_fr_energy">   -474.49243320 </i>
    <i name="e_wo_entrp">   -474.43094540 </i>
    <i name="e_0_energy">   -474.46168930 </i>
   </energy>
  </scstep>
  <scstep>
   <time name="dav">    1.50    1.50</time>
   <time name="total">    1.57    1.58</time>
   <dipole>
    <v name="dipole">      0.00000000       0.00000000      -0.09870455 </v>
    <i name="Tr[quadrupol]">  -7900.68353790 </i>
    <i name="Echarged">      0.00000000 </i>
    <i name="Edipol_quadrupol">      0.00000000 </i>
    <i name="Eion">      0.00000000 </i>
   </dipole>
   <energy>
    <i name="e_fr_energy">   -474.49358544 </i>
    <i name="e_wo_entrp">   -474.43209338 </i>
    <i name="e_0_energy">   -474.46283941 </i>
   </energy>
  </scstep>
  <scstep>
   <time name="dav">    1.30    1.30</time>
   <time name="total">    1.37    1.37</time>
   <dipole>
    <v name="dipole">      0.00000000       0.00000000      -0.09298108 </v>
    <i name="Tr[quadrupol]">  -7900.63680583 </i>
    <i name="Echarged">      0.00000000 </i>
    <i name="Edipol_quadrupol">      0.00000000 </i>
    <i name="Eion">      0.00000000 </i>
   </dipole>
   <energy>
    <i name="e_fr_energy">   -474.49371231 </i>
    <i name="e_wo_entrp">   -474.43222513 </i>
    <i name="e_0_energy">   -474.46296872 </i>
   </energy>
  </scstep>
  <scstep>
   <time name="dav">    1.06    1.06</time>
   <time name="total">    1.14    1.14</time>
   <dipole>
    <v name="dipole">      0.00000000       0.00000000      -0.09184409 </v>
    <i name="Tr[quadrupol]">  -7900.62179889 </i>
    <i name="Echarged">      0.00000000 </i>
    <i name="Edipol_quadrupol">      0.00000000 </i>
    <i name="Eion">      0.00000000 </i>
   </dipole>
   <energy>
    <i name="e_fr_energy">   -474.49375234 </i>
    <i name="e_wo_entrp">   -474.43226680 </i>
    <i name="e_0_energy">   -474.46300957 </i>
   </energy>
  </scstep>
  <scstep>
   <time name="dav">    1.51    1.51</time>
   <time name="total">    1.58    1.58</time>
   <dipole>
    <v name="dipole">      0.00000000       0.00000000      -0.10323918 </v>
    <i name="Tr[quadrupol]">  -7900.66677930 </i>
    <i name="Echarged">      0.00000000 </i>
    <i name="Edipol_quadrupol">      0.00000000 </i>
    <i name="Eion">      0.00000000 </i>
   </dipole>
   <energy>
    <i name="e_fr_energy">   -474.49429331 </i>
    <i name="e_wo_entrp">   -474.43287213 </i>
    <i name="e_0_energy">   -474.46358272 </i>
   </energy>
  </scstep>
  <scstep>
   <time name="dav">    1.35    1.35</time>
   <time name="total">    1.42    1.42</time>
   <dipole>
    <v name="dipole">      0.00000000       0.00000000      -0.10503639 </v>
    <i name="Tr[quadrupol]">  -7900.70578300 </i>
    <i name="Echarged">      0.00000000 </i>
    <i name="Edipol_quadrupol">      0.00000000 </i>
    <i name="Eion">      0.00000000 </i>
   </dipole>
   <energy>
    <i name="e_fr_energy">   -474.49440414 </i>
    <i name="e_wo_entrp">   -474.43296148 </i>
    <i name="e_0_energy">   -474.46368281 </i>
   </energy>
  </scstep>
  <scstep>
   <time name="dav">    1.17    1.18</time>
   <time name="total">    1.25    1.25</time>
   <dipole>
    <v name="dipole">      0.00000000       0.00000000      -0.10474780 </v>
    <i name="Tr[quadrupol]">  -7900.71621003 </i>
    <i name="Echarged">      0.00000000 </i>
    <i name="Edipol_quadrupol">      0.00000000 </i>
    <i name="Eion">      0.00000000 </i>
   </dipole>
   <energy>
    <i name="e_fr_energy">   -474.49446250 </i>
    <i name="e_wo_entrp">   -474.43300013 </i>
    <i name="e_0_energy">   -474.46373132 </i>
   </energy>
  </scstep>
  <scstep>
   <time name="dav">    1.26    1.26</time>
   <time name="total">    1.34    1.34</time>
   <dipole>
    <v name="dipole">      0.00000000       0.00000000      -0.10625424 </v>
    <i name="Tr[quadrupol]">  -7900.75243125 </i>
    <i name="Echarged">      0.00000000 </i>
    <i name="Edipol_quadrupol">      0.00000000 </i>
    <i name="Eion">      0.00000000 </i>
   </dipole>
   <energy>
    <i name="e_fr_energy">   -474.49456212 </i>
    <i name="e_wo_entrp">   -474.43307988 </i>
    <i name="e_0_energy">   -474.46382100 </i>
   </energy>
  </scstep>
  <scstep>
   <time name="dav">    1.10    1.10</time>
   <time name="total">    1.17    1.17</time>
   <dipole>
    <v name="dipole">      0.00000000       0.00000000      -0.10716672 </v>
    <i name="Tr[quadrupol]">  -7900.77491343 </i>
    <i name="Echarged">      0.00000000 </i>
    <i name="Edipol_quadrupol">      0.00000000 </i>
    <i name="Eion">      0.00000000 </i>
   </dipole>
   <energy>
    <i name="e_fr_energy">   -474.49457648 </i>
    <i name="e_wo_entrp">   -474.43309305 </i>
    <i name="e_0_energy">   -474.46383476 </i>
   </energy>
  </scstep>
  <scstep>
   <time name="dav">    1.02    1.02</time>
   <time name="total">    1.05    1.06</time>
   <dipole>
    <v name="dipole">      0.00000000       0.00000000      -0.10707702 </v>
    <i name="Tr[quadrupol]">  -7900.77516447 </i>
    <i name="Echarged">      0.00000000 </i>
    <i name="Edipol_quadrupol">      0.00000000 </i>
    <i name="Eion">      0.00000000 </i>
   </dipole>
   <energy>
    <i name="alphaZ">    180.90653343 </i>
    <i name="ewald">  28599.64930646 </i>
    <i name="hartreedc"> -41856.16779315 </i>
    <i name="XCdc">    956.89948282 </i>
    <i name="pawpsdc">  31221.80994525 </i>
    <i name="pawaedc"> -31157.73889506 </i>
    <i name="eentropy">     -0.06148470 </i>
    <i name="bandstr">  -3525.82040877 </i>
    <i name="atom">  15106.02873529 </i>
    <i name="e_fr_energy">   -474.49457843 </i>
    <i name="e_wo_entrp">   -474.43309372 </i>
    <i name="e_0_energy">   -474.46383608 </i>
   </energy>
  </scstep>
  <structure>
   <crystal>
    <varray name="basis" >
     <v>      13.71800007       0.00000000       0.00000000 </v>
     <v>       0.00000000      10.91293292       0.00000000 </v>
     <v>       0.00000000       0.00000000      15.00000000 </v>
    </varray>
    <i name="volume">   2245.55421796 </i>
    <varray name="rec_basis" >
     <v>       0.07289692       0.00000000       0.00000000 </v>
     <v>       0.00000000       0.09163439       0.00000000 </v>
     <v>       0.00000000       0.00000000       0.06666667 </v>
    </varray>
   </crystal>
   <varray name="positions" >
    <v>       0.07029904       0.38277314       0.23162657 </v>
    <v>       0.97998359       0.21488957       0.16763345 </v>
    <v>       0.22765447       0.39568243       0.19589280 </v>
    <v>       0.82651578       0.57637196       0.19653811 </v>
    <v>       0.14730919       0.25081789       0.12065785 </v>
    <v>       0.90718297       0.37886318       0.23042336 </v>
    <v>       0.56778047       0.39250902       0.23963622 </v>
    <v>       0.47730184       0.22394371       0.17728676 </v>
    <v>       0.72990475       0.39825712       0.21050842 </v>
    <v>       0.30895079       0.58420349       0.18575988 </v>
    <v>       0.64684117       0.25649995       0.13339035 </v>
    <v>       0.40150632       0.39280912       0.22800270 </v>
    <v>       0.81961793       0.88475803       0.04946464 </v>
    <v>       0.73206482       0.72075731       0.13394326 </v>
    <v>       0.98103183       0.89189035       0.07046239 </v>
    <v>       0.06681443       0.07878758       0.08387808 </v>
    <v>       0.90799407       0.74252405       0.14843226 </v>
    <v>       0.65629181       0.89130315       0.06988521 </v>
    <v>       0.31890399       0.89571371       0.04548035 </v>
    <v>       0.22681817       0.72040919       0.09806894 </v>
    <v>       0.47613994       0.90426087       0.08572297 </v>
    <v>       0.56667210       0.08442453       0.09961672 </v>
    <v>       0.38528959       0.76576950       0.16160727 </v>
    <v>       0.15582151       0.88869998       0.04089597 </v>
    <v>       0.98820906       0.43197646       0.26141726 </v>
    <v>       0.89882724       0.26328804       0.20097663 </v>
    <v>       0.15809587       0.42646060       0.25326906 </v>
    <v>       0.14492924       0.14986694       0.07126011 </v>
    <v>       0.98467110       0.10533513       0.12864555 </v>
    <v>       0.22705292       0.32087300       0.12632779 </v>
    <v>       0.06594124       0.28475896       0.17133175 </v>
    <v>       0.82297987       0.45388638       0.22709706 </v>
    <v>       0.48327605       0.44736833       0.26098327 </v>
    <v>       0.39567416       0.27377107       0.20673744 </v>
    <v>       0.65645555       0.43265251       0.26609009 </v>
    <v>       0.64550580       0.15365522       0.08658160 </v>
    <v>       0.48292167       0.11371349       0.14073022 </v>
    <v>       0.72645539       0.32559169       0.13995294 </v>
    <v>       0.56433842       0.29303543       0.18197220 </v>
    <v>       0.31711429       0.46159360       0.21301875 </v>
    <v>       0.73455986       0.93763459       0.02950349 </v>
    <v>       0.65082529       0.78235931       0.11292169 </v>
    <v>       0.90524399       0.92689581       0.02091075 </v>
    <v>       0.90962117       0.63918803       0.19549572 </v>
    <v>       0.72951797       0.61236649       0.18801953 </v>
    <v>       0.98658992       0.81179169       0.13710838 </v>
    <v>       0.82133842       0.78210185       0.10678741 </v>
    <v>       0.56942961       0.96095933       0.07270424 </v>
    <v>       0.23812942       0.94568626       0.01515973 </v>
    <v>       0.14937820       0.76730386       0.05914201 </v>
    <v>       0.40942058       0.93369889       0.02607305 </v>
    <v>       0.37875274       0.66471716       0.21245894 </v>
    <v>       0.23379721       0.60750267       0.13214764 </v>
    <v>       0.46609047       0.83455077       0.15992195 </v>
    <v>       0.31020692       0.79643047       0.10581663 </v>
    <v>       0.06996042       0.95682134       0.05180558 </v>
    <v>       0.57855835       0.77993711       0.23856416 </v>
    <v>       0.65262203       0.61261170       0.31198085 </v>
    <v>       0.48403349       0.62336670       0.29876810 </v>
   </varray>
  </structure>
  <varray name="forces" >
   <v>      -0.08403771       0.01802545       0.00980999 </v>
   <v>      -0.01280950       0.04846828       0.02366153 </v>
   <v>      -0.04985633      -0.00196771       0.03869322 </v>
   <v>      -0.95748642      -0.80474629       1.44914142 </v>
   <v>      -0.02841636       0.02639413       0.02206014 </v>
   <v>      -0.24746094       0.07620900       0.01031292 </v>
   <v>       0.05365456      -0.31817731      -0.03470672 </v>
   <v>       0.01495250      -0.03174467       0.01194382 </v>
   <v>       0.04855664      -0.10227215       0.06844931 </v>
   <v>      -0.08714990       0.03826765      -0.08473948 </v>
   <v>       0.03458941       0.04534083       0.02252135 </v>
   <v>       0.07287404      -0.17288456      -0.03892114 </v>
   <v>      -0.21081713      -0.33544206       0.10030985 </v>
   <v>       0.49598617       0.35947858      -0.00253539 </v>
   <v>       0.02480357      -0.11430454       0.10809982 </v>
   <v>      -0.02420546       0.02690406       0.02318512 </v>
   <v>      -0.17384977       0.21739901      -0.10085637 </v>
   <v>       0.32677790      -0.08041540      -0.22123912 </v>
   <v>      -0.01740151      -0.02688804       0.00676499 </v>
   <v>       0.02017324      -0.04934565       0.01430839 </v>
   <v>      -0.10777381       0.04176986      -0.04654505 </v>
   <v>       0.01149475       0.03169138       0.01954239 </v>
   <v>      -0.22615800       0.03175561      -0.17169452 </v>
   <v>      -0.02243101      -0.01687177       0.03981847 </v>
   <v>       0.08135827      -0.01460378      -0.00003259 </v>
   <v>       0.06846050      -0.10559189      -0.03939577 </v>
   <v>       0.06755657       0.00561911       0.00184684 </v>
   <v>       0.00917108      -0.02375781      -0.01696671 </v>
   <v>       0.04110316      -0.03075633      -0.01380978 </v>
   <v>       0.01853984      -0.02221809       0.01205069 </v>
   <v>       0.02288456      -0.01216518      -0.00010322 </v>
   <v>       0.71069839      -0.56644833      -0.00354935 </v>
   <v>       0.03716406      -2.63191777      -0.72090890 </v>
   <v>      -0.03167477      -0.02632801      -0.01651282 </v>
   <v>      -0.25038191      -2.39402905      -0.44033183 </v>
   <v>       0.01767737      -0.02599183      -0.01477888 </v>
   <v>      -0.01198257      -0.03195911       0.01735702 </v>
   <v>      -0.05905973      -0.07386374      -0.10975667 </v>
   <v>       0.00777301      -0.00299983      -0.07426865 </v>
   <v>      -0.01127023       0.04276349      -0.03015587 </v>
   <v>      -0.07001370       0.05828133       0.06919013 </v>
   <v>       0.75501663      -0.65303287      -0.96327939 </v>
   <v>      -0.04657435      -0.02286232      -0.01355941 </v>
   <v>      -0.47942876      -0.01210603      -0.49793658 </v>
   <v>       3.07809227       4.01428414      -4.75178948 </v>
   <v>       0.13978309       0.13406298      -0.08793472 </v>
   <v>      -1.17353354      -1.79428357       1.17072956 </v>
   <v>      -0.00669597      -0.06856706       0.00304960 </v>
   <v>       0.01894198       0.00249460      -0.02666964 </v>
   <v>      -0.01984955       0.02291766      -0.02382891 </v>
   <v>      -0.02347680       0.01264624      -0.05441738 </v>
   <v>      -2.05234823       0.69709550      -1.85323985 </v>
   <v>      -0.02586473       0.01110012      -0.04816325 </v>
   <v>      -1.88719117       0.70450995      -1.42332042 </v>
   <v>      -0.01628467       0.03897660      -0.04662349 </v>
   <v>       0.03515307       0.02978554       0.00535659 </v>
   <v>       1.48349208       4.51316694       0.63230890 </v>
   <v>       4.13440531      -0.40435134       4.11550803 </v>
   <v>      -3.41564950      -0.27651397       3.97655127 </v>
  </varray>
  <varray name="stress" >
   <v>      11.69188185       2.82456089       2.68280612 </v>
   <v>       2.82456088       8.80004603      -0.61513034 </v>
   <v>       2.68280614      -0.61513033      -3.84699578 </v>
  </varray>
  <energy>
   <i name="e_fr_energy">   -474.49457843 </i>
   <i name="e_wo_entrp">   -474.43309372 </i>
   <i name="e_0_energy">   -474.46383608 </i>
  </energy>
  <time name="totalsc">   42.36   42.44</time>
 </calculation>
 <calculation>
  <scstep>
   <time name="dav">    1.40    1.40</time>
   <time name="total">    1.48    1.48</time>
   <dipole>
    <v name="dipole">      0.00000000       0.00000000      -0.10865723 </v>
    <i name="Tr[quadrupol]">  -7919.35088519 </i>
    <i name="Echarged">      0.00000000 </i>
    <i name="Edipol_quadrupol">      0.00000000 </i>
    <i name="Eion">      0.00000000 </i>
   </dipole>
   <energy>
    <i name="alphaZ">    180.29187231 </i>
    <i name="ewald">  28309.79882386 </i>
    <i name="hartreedc"> -41552.29484979 </i>
    <i name="XCdc">    955.18598197 </i>
    <i name="pawpsdc">  31221.73181136 </i>
    <i name="pawaedc"> -31157.66099690 </i>
    <i name="eentropy">     -0.06281421 </i>
    <i name="bandstr">  -3538.89628890 </i>
    <i name="atom">  15106.02873529 </i>
    <i name="e_fr_energy">   -475.87772501 </i>
    <i name="e_wo_entrp">   -475.81491080 </i>
    <i name="e_0_energy">   -475.84631791 </i>
   </energy>
  </scstep>
  <scstep>
   <time name="dav">    1.54    1.54</time>
   <time name="total">    1.62    1.62</time>
   <dipole>
    <v name="dipole">      0.00000000       0.00000000      -0.10041876 </v>
    <i name="Tr[quadrupol]">  -7919.35135054 </i>
    <i name="Echarged">      0.00000000 </i>
    <i name="Edipol_quadrupol">      0.00000000 </i>
    <i name="Eion">      0.00000000 </i>
   </dipole>
   <energy>
    <i name="e_fr_energy">   -475.91735987 </i>
    <i name="e_wo_entrp">   -475.85492700 </i>
    <i name="e_0_energy">   -475.88614343 </i>
   </energy>
  </scstep>
  <scstep>
   <time name="dav">    1.54    1.55</time>
   <time name="total">    1.62    1.62</time>
   <dipole>
    <v name="dipole">      0.00000000       0.00000000      -0.11496716 </v>
    <i name="Tr[quadrupol]">  -7919.36641167 </i>
    <i name="Echarged">      0.00000000 </i>
    <i name="Edipol_quadrupol">      0.00000000 </i>
    <i name="Eion">      0.00000000 </i>
   </dipole>
   <energy>
    <i name="e_fr_energy">   -475.91186713 </i>
    <i name="e_wo_entrp">   -475.84978516 </i>
    <i name="e_0_energy">   -475.88082615 </i>
   </energy>
  </scstep>
  <scstep>
   <time name="dav">    1.51    1.51</time>
   <time name="total">    1.58    1.58</time>
   <dipole>
    <v name="dipole">      0.00000000       0.00000000      -0.12018604 </v>
    <i name="Tr[quadrupol]">  -7919.37341422 </i>
    <i name="Echarged">      0.00000000 </i>
    <i name="Edipol_quadrupol">      0.00000000 </i>
    <i name="Eion">      0.00000000 </i>
   </dipole>
   <energy>
    <i name="e_fr_energy">   -475.90819190 </i>
    <i name="e_wo_entrp">   -475.84522904 </i>
    <i name="e_0_energy">   -475.87671047 </i>
   </energy>
  </scstep>
  <scstep>
   <time name="dav">    1.50    1.50</time>
   <time name="total">    1.58    1.58</time>
   <dipole>
    <v name="dipole">      0.00000000       0.00000000      -0.12133848 </v>
    <i name="Tr[quadrupol]">  -7919.39543756 </i>
    <i name="Echarged">      0.00000000 </i>
    <i name="Edipol_quadrupol">      0.00000000 </i>
    <i name="Eion">      0.00000000 </i>
   </dipole>
   <energy>
    <i name="e_fr_energy">   -475.90729161 </i>
    <i name="e_wo_entrp">   -475.84491931 </i>
    <i name="e_0_energy">   -475.87610546 </i>
   </energy>
  </scstep>
  <scstep>
   <time name="dav">    1.57    1.57</time>
   <time name="total">    1.64    1.65</time>
   <dipole>
    <v name="dipole">      0.00000000       0.00000000      -0.12125521 </v>
    <i name="Tr[quadrupol]">  -7919.39302522 </i>
    <i name="Echarged">      0.00000000 </i>
    <i name="Edipol_quadrupol">      0.00000000 </i>
    <i name="Eion">      0.00000000 </i>
   </dipole>
   <energy>
    <i name="e_fr_energy">   -475.90711950 </i>
    <i name="e_wo_entrp">   -475.84458141 </i>
    <i name="e_0_energy">   -475.87585046 </i>
   </energy>
  </scstep>
  <scstep>
   <time name="dav">    1.54    1.55</time>
   <time name="total">    1.62    1.62</time>
   <dipole>
    <v name="dipole">      0.00000000       0.00000000      -0.12178216 </v>
    <i name="Tr[quadrupol]">  -7919.39267854 </i>
    <i name="Echarged">      0.00000000 </i>
    <i name="Edipol_quadrupol">      0.00000000 </i>
    <i name="Eion">      0.00000000 </i>
   </dipole>
   <energy>
    <i name="e_fr_energy">   -475.90710824 </i>
    <i name="e_wo_entrp">   -475.84469896 </i>
    <i name="e_0_energy">   -475.87590360 </i>
   </energy>
  </scstep>
  <scstep>
   <time name="dav">    1.52    1.52</time>
   <time name="total">    1.60    1.61</time>
   <dipole>
    <v name="dipole">      0.00000000       0.00000000      -0.12259810 </v>
    <i name="Tr[quadrupol]">  -7919.39229986 </i>
    <i name="Echarged">      0.00000000 </i>
    <i name="Edipol_quadrupol">      0.00000000 </i>
    <i name="Eion">      0.00000000 </i>
   </dipole>
   <energy>
    <i name="e_fr_energy">   -475.90712602 </i>
    <i name="e_wo_entrp">   -475.84471203 </i>
    <i name="e_0_energy">   -475.87591903 </i>
   </energy>
  </scstep>
  <scstep>
   <time name="dav">    1.08    1.08</time>
   <time name="total">    1.15    1.15</time>
   <dipole>
    <v name="dipole">      0.00000000       0.00000000      -0.12311669 </v>
    <i name="Tr[quadrupol]">  -7919.39281347 </i>
    <i name="Echarged">      0.00000000 </i>
    <i name="Edipol_quadrupol">      0.00000000 </i>
    <i name="Eion">      0.00000000 </i>
   </dipole>
   <energy>
    <i name="e_fr_energy">   -475.90714101 </i>
    <i name="e_wo_entrp">   -475.84471016 </i>
    <i name="e_0_energy">   -475.87592558 </i>
   </energy>
  </scstep>
  <scstep>
   <time name="dav">    1.07    1.08</time>
   <time name="total">    1.15    1.15</time>
   <dipole>
    <v name="dipole">      0.00000000       0.00000000      -0.12365660 </v>
    <i name="Tr[quadrupol]">  -7919.39318701 </i>
    <i name="Echarged">      0.00000000 </i>
    <i name="Edipol_quadrupol">      0.00000000 </i>
    <i name="Eion">      0.00000000 </i>
   </dipole>
   <energy>
    <i name="e_fr_energy">   -475.90715412 </i>
    <i name="e_wo_entrp">   -475.84473781 </i>
    <i name="e_0_energy">   -475.87594596 </i>
   </energy>
  </scstep>
  <scstep>
   <time name="dav">    1.06    1.06</time>
   <time name="total">    1.14    1.14</time>
   <dipole>
    <v name="dipole">      0.00000000       0.00000000      -0.12425617 </v>
    <i name="Tr[quadrupol]">  -7919.39358431 </i>
    <i name="Echarged">      0.00000000 </i>
    <i name="Edipol_quadrupol">      0.00000000 </i>
    <i name="Eion">      0.00000000 </i>
   </dipole>
   <energy>
    <i name="e_fr_energy">   -475.90716857 </i>
    <i name="e_wo_entrp">   -475.84474730 </i>
    <i name="e_0_energy">   -475.87595793 </i>
   </energy>
  </scstep>
  <scstep>
   <time name="dav">    1.12    1.12</time>
   <time name="total">    1.20    1.20</time>
   <dipole>
    <v name="dipole">      0.00000000       0.00000000      -0.12475232 </v>
    <i name="Tr[quadrupol]">  -7919.39393001 </i>
    <i name="Echarged">      0.00000000 </i>
    <i name="Edipol_quadrupol">      0.00000000 </i>
    <i name="Eion">      0.00000000 </i>
   </dipole>
   <energy>
    <i name="e_fr_energy">   -475.90718002 </i>
    <i name="e_wo_entrp">   -475.84476019 </i>
    <i name="e_0_energy">   -475.87597010 </i>
   </energy>
  </scstep>
  <scstep>
   <time name="dav">    1.08    1.08</time>
   <time name="total">    1.11    1.11</time>
   <dipole>
    <v name="dipole">      0.00000000       0.00000000      -0.12509640 </v>
    <i name="Tr[quadrupol]">  -7919.39418760 </i>
    <i name="Echarged">      0.00000000 </i>
    <i name="Edipol_quadrupol">      0.00000000 </i>
    <i name="Eion">      0.00000000 </i>
   </dipole>
   <energy>
    <i name="alphaZ">    180.43873291 </i>
    <i name="ewald">  28309.79882386 </i>
    <i name="hartreedc"> -41570.82460043 </i>
    <i name="XCdc">    956.05932759 </i>
    <i name="pawpsdc">  31027.18454846 </i>
    <i name="pawaedc"> -30961.39742296 </i>
    <i name="eentropy">     -0.06241820 </i>
    <i name="bandstr">  -3523.13291418 </i>
    <i name="atom">  15106.02873529 </i>
    <i name="e_fr_energy">   -475.90718765 </i>
    <i name="e_wo_entrp">   -475.84476945 </i>
    <i name="e_0_energy">   -475.87597855 </i>
   </energy>
  </scstep>
  <structure>
   <crystal>
    <varray name="basis" >
     <v>      13.75476192       0.00000000       0.00000000 </v>
     <v>       0.00000000      10.93494437       0.00000000 </v>
     <v>       0.00000000       0.00000000      15.00000000 </v>
    </varray>
    <i name="volume">   2256.11334495 </i>
    <varray name="rec_basis" >
     <v>       0.07270209       0.00000000       0.00000000 </v>
     <v>       0.00000000       0.09144994       0.00000000 </v>
     <v>       0.00000000       0.00000000       0.06666667 </v>
    </varray>
   </crystal>
   <varray name="positions" >
    <v>       0.07023993       0.38278908       0.23163289 </v>
    <v>       0.97997458       0.21493242       0.16764867 </v>
    <v>       0.22761940       0.39568069       0.19591769 </v>
    <v>       0.82584233       0.57566045       0.19747025 </v>
    <v>       0.14728920       0.25084122       0.12067204 </v>
    <v>       0.90700892       0.37893056       0.23043000 </v>
    <v>       0.56781821       0.39222771       0.23961390 </v>
    <v>       0.47731236       0.22391564       0.17729444 </v>
    <v>       0.72993890       0.39816670       0.21055244 </v>
    <v>       0.30888950       0.58423732       0.18570538 </v>
    <v>       0.64686549       0.25654003       0.13340484 </v>
    <v>       0.40155757       0.39265626       0.22797766 </v>
    <v>       0.81946966       0.88446145       0.04952916 </v>
    <v>       0.73241367       0.72107514       0.13394163 </v>
    <v>       0.98104928       0.89178929       0.07053192 </v>
    <v>       0.06679741       0.07881136       0.08389300 </v>
    <v>       0.90787179       0.74271626       0.14836739 </v>
    <v>       0.65652165       0.89123206       0.06974291 </v>
    <v>       0.31889175       0.89568993       0.04548470 </v>
    <v>       0.22683235       0.72036556       0.09807815 </v>
    <v>       0.47606414       0.90429780       0.08569304 </v>
    <v>       0.56668018       0.08445255       0.09962929 </v>
    <v>       0.38513052       0.76579758       0.16149683 </v>
    <v>       0.15580574       0.88868506       0.04092159 </v>
    <v>       0.98826629       0.43196355       0.26141724 </v>
    <v>       0.89887539       0.26319468       0.20095129 </v>
    <v>       0.15814338       0.42646557       0.25327025 </v>
    <v>       0.14493569       0.14984593       0.07124920 </v>
    <v>       0.98470001       0.10530794       0.12863667 </v>
    <v>       0.22706596       0.32085336       0.12633554 </v>
    <v>       0.06595734       0.28474821       0.17133168 </v>
    <v>       0.82347974       0.45338556       0.22709477 </v>
    <v>       0.48330219       0.44504136       0.26051956 </v>
    <v>       0.39565188       0.27374779       0.20672682 </v>
    <v>       0.65627945       0.43053586       0.26580686 </v>
    <v>       0.64551823       0.15363224       0.08657210 </v>
    <v>       0.48291324       0.11368524       0.14074139 </v>
    <v>       0.72641385       0.32552638       0.13988234 </v>
    <v>       0.56434389       0.29303278       0.18192442 </v>
    <v>       0.31710636       0.46163141       0.21299935 </v>
    <v>       0.73451062       0.93768612       0.02954800 </v>
    <v>       0.65135632       0.78178194       0.11230208 </v>
    <v>       0.90521123       0.92687560       0.02090203 </v>
    <v>       0.90928396       0.63917733       0.19517543 </v>
    <v>       0.73168294       0.61591567       0.18496301 </v>
    <v>       0.98668823       0.81191022       0.13705182 </v>
    <v>       0.82051302       0.78051545       0.10754047 </v>
    <v>       0.56942490       0.96089870       0.07270620 </v>
    <v>       0.23814274       0.94568846       0.01514257 </v>
    <v>       0.14936423       0.76732412       0.05912668 </v>
    <v>       0.40940407       0.93371008       0.02603805 </v>
    <v>       0.37730923       0.66533348       0.21126687 </v>
    <v>       0.23377902       0.60751249       0.13211665 </v>
    <v>       0.46476312       0.83517365       0.15900642 </v>
    <v>       0.31019546       0.79646493       0.10578664 </v>
    <v>       0.06998514       0.95684767       0.05180902 </v>
    <v>       0.57960176       0.78392737       0.23897089 </v>
    <v>       0.65552996       0.61225420       0.31462809 </v>
    <v>       0.48163110       0.62312223       0.30132596 </v>
   </varray>
  </structure>
  <varray name="forces" >
   <v>       0.00702138       0.03698076       0.00824890 </v>
   <v>       0.04803900       0.01386923      -0.01279663 </v>
   <v>      -0.04684289       0.00517888       0.02993558 </v>
   <v>      -0.08905734       0.14153407       0.79754122 </v>
   <v>       0.00374445       0.00517654       0.01043155 </v>
   <v>       0.23957426      -0.12613641      -0.00814214 </v>
   <v>      -0.02462110      -0.65974292      -0.31011090 </v>
   <v>      -0.02071904       0.01053746      -0.00095090 </v>
   <v>       0.01645464      -0.36249959      -0.12802612 </v>
   <v>      -0.38852711      -0.05419221      -0.32982449 </v>
   <v>      -0.04988028      -0.04205051       0.00897629 </v>
   <v>      -0.09427332      -0.40243400      -0.20478523 </v>
   <v>      -0.10726692      -0.38391708       0.15962918 </v>
   <v>       0.77877693       0.74286353      -0.43451819 </v>
   <v>       0.00138079      -0.00958239      -0.00274116 </v>
   <v>       0.02121165       0.04968516       0.03323324 </v>
   <v>      -0.27445220      -0.09490415       0.07552351 </v>
   <v>       0.22569895      -0.21804510      -0.11572667 </v>
   <v>      -0.01006560      -0.01073888      -0.00169121 </v>
   <v>       0.00962958       0.02230372      -0.01995133 </v>
   <v>      -0.24116095       0.20300559      -0.36642495 </v>
   <v>       0.01311520       0.01745806       0.04595299 </v>
   <v>      -0.56256477       0.23675326      -0.56540282 </v>
   <v>       0.05588916      -0.01202467       0.05190986 </v>
   <v>      -0.02717668      -0.09457959      -0.08171263 </v>
   <v>       0.10120423       0.03699252      -0.01901023 </v>
   <v>      -0.06908044      -0.04533695      -0.05434745 </v>
   <v>      -0.09044854      -0.00305405       0.06690049 </v>
   <v>       0.10562142       0.08090898       0.00310028 </v>
   <v>      -0.10316397      -0.07345630       0.05013574 </v>
   <v>      -0.01068951      -0.00966263       0.00916474 </v>
   <v>      -0.09906934      -0.25915352      -0.03772501 </v>
   <v>       0.08372571      -1.43881368      -0.28062742 </v>
   <v>       0.03604496      -0.12038857      -0.11788992 </v>
   <v>       0.04822644      -1.39671837      -0.09960204 </v>
   <v>      -0.07251855      -0.00492657       0.06855982 </v>
   <v>       0.10983741       0.03200134       0.00747912 </v>
   <v>      -0.03283811      -0.02661019      -0.05356785 </v>
   <v>       0.01881476      -0.17740205      -0.22470212 </v>
   <v>       0.05954913       0.03423912      -0.00375211 </v>
   <v>       0.12312712      -0.01272832       0.11618597 </v>
   <v>       0.29606262      -0.33103141      -0.90280158 </v>
   <v>      -0.28203302      -0.22461312       0.20335412 </v>
   <v>      -0.53958561      -0.29958804      -0.28299293 </v>
   <v>       2.19790760       2.14583592      -3.08018973 </v>
   <v>      -0.16177657      -0.05277669      -0.06253955 </v>
   <v>      -0.54085105      -0.69770856       0.45640105 </v>
   <v>       0.03366786      -0.08200403       0.03800288 </v>
   <v>      -0.00680077      -0.08591774       0.05231207 </v>
   <v>       0.09277103       0.07327034       0.02793085 </v>
   <v>      -0.13442209       0.03382780      -0.11021726 </v>
   <v>      -1.03554765       0.33252977      -0.94088186 </v>
   <v>      -0.08156443       0.02732948      -0.09590158 </v>
   <v>      -1.09637619       0.34054885      -0.65843925 </v>
   <v>      -0.22182353       0.06713508      -0.22697813 </v>
   <v>       0.02000701      -0.00330533       0.03366562 </v>
   <v>       1.00058256       2.93921794       1.22197567 </v>
   <v>       2.59544894       0.01453891       3.07065837 </v>
   <v>      -1.82793724       0.17232132       3.18776231 </v>
  </varray>
  <varray name="stress" >
   <v>       3.73981194       2.87144667       2.80126307 </v>
   <v>       2.87144667       2.82398603       0.07699344 </v>
   <v>       2.80126308       0.07699348      -5.13444617 </v>
  </varray>
  <energy>
   <i name="e_fr_energy">   -475.90718765 </i>
   <i name="e_wo_entrp">   -475.84476945 </i>
   <i name="e_0_energy">   -475.87597855 </i>
  </energy>
  <time name="totalsc">   19.67   19.73</time>
 </calculation>
 <calculation>
  <scstep>
   <time name="dav">    1.47    1.47</time>
   <time name="total">    1.54    1.55</time>
   <dipole>
    <v name="dipole">      0.00000000       0.00000000      -0.12560185 </v>
    <i name="Tr[quadrupol]">  -7952.15188455 </i>
    <i name="Echarged">      0.00000000 </i>
    <i name="Edipol_quadrupol">      0.00000000 </i>
    <i name="Eion">      0.00000000 </i>
   </dipole>
   <energy>
    <i name="alphaZ">    178.96977867 </i>
    <i name="ewald">  27820.70075549 </i>
    <i name="hartreedc"> -41053.68448188 </i>
    <i name="XCdc">    953.18581498 </i>
    <i name="pawpsdc">  31027.19157673 </i>
    <i name="pawaedc"> -30961.40447869 </i>
    <i name="eentropy">     -0.06676070 </i>
    <i name="bandstr">  -3547.64950757 </i>
    <i name="atom">  15106.02873529 </i>
    <i name="e_fr_energy">   -476.72856769 </i>
    <i name="e_wo_entrp">   -476.66180698 </i>
    <i name="e_0_energy">   -476.69518734 </i>
   </energy>
  </scstep>
  <scstep>
   <time name="dav">    1.55    1.55</time>
   <time name="total">    1.62    1.62</time>
   <dipole>
    <v name="dipole">      0.00000000       0.00000000      -0.11981797 </v>
    <i name="Tr[quadrupol]">  -7952.14760640 </i>
    <i name="Echarged">      0.00000000 </i>
    <i name="Edipol_quadrupol">      0.00000000 </i>
    <i name="Eion">      0.00000000 </i>
   </dipole>
   <energy>
    <i name="e_fr_energy">   -476.86137965 </i>
    <i name="e_wo_entrp">   -476.79713109 </i>
    <i name="e_0_energy">   -476.82925537 </i>
   </energy>
  </scstep>
  <scstep>
   <time name="dav">    1.58    1.59</time>
   <time name="total">    1.66    1.66</time>
   <dipole>
    <v name="dipole">      0.00000000       0.00000000      -0.14081268 </v>
    <i name="Tr[quadrupol]">  -7952.17326536 </i>
    <i name="Echarged">      0.00000000 </i>
    <i name="Edipol_quadrupol">      0.00000000 </i>
    <i name="Eion">      0.00000000 </i>
   </dipole>
   <energy>
    <i name="e_fr_energy">   -476.84240948 </i>
    <i name="e_wo_entrp">   -476.77766309 </i>
    <i name="e_0_energy">   -476.81003628 </i>
   </energy>
  </scstep>
  <scstep>
   <time name="dav">    1.52    1.52</time>
   <time name="total">    1.59    1.60</time>
   <dipole>
    <v name="dipole">      0.00000000       0.00000000      -0.15138663 </v>
    <i name="Tr[quadrupol]">  -7952.18531393 </i>
    <i name="Echarged">      0.00000000 </i>
    <i name="Edipol_quadrupol">      0.00000000 </i>
    <i name="Eion">      0.00000000 </i>
   </dipole>
   <energy>
    <i name="e_fr_energy">   -476.82877925 </i>
    <i name="e_wo_entrp">   -476.76318052 </i>
    <i name="e_0_energy">   -476.79597989 </i>
   </energy>
  </scstep>
  <scstep>
   <time name="dav">    1.52    1.52</time>
   <time name="total">    1.59    1.59</time>
   <dipole>
    <v name="dipole">      0.00000000       0.00000000      -0.15363931 </v>
    <i name="Tr[quadrupol]">  -7952.21097594 </i>
    <i name="Echarged">      0.00000000 </i>
    <i name="Edipol_quadrupol">      0.00000000 </i>
    <i name="Eion">      0.00000000 </i>
   </dipole>
   <energy>
    <i name="e_fr_energy">   -476.82767279 </i>
    <i name="e_wo_entrp">   -476.76287252 </i>
    <i name="e_0_energy">   -476.79527266 </i>
   </energy>
  </scstep>
  <scstep>
   <time name="dav">    1.65    1.65</time>
   <time name="total">    1.73    1.73</time>
   <dipole>
    <v name="dipole">      0.00000000       0.00000000      -0.15335513 </v>
    <i name="Tr[quadrupol]">  -7952.23393299 </i>
    <i name="Echarged">      0.00000000 </i>
    <i name="Edipol_quadrupol">      0.00000000 </i>
    <i name="Eion">      0.00000000 </i>
   </dipole>
   <energy>
    <i name="e_fr_energy">   -476.82715011 </i>
    <i name="e_wo_entrp">   -476.76164834 </i>
    <i name="e_0_energy">   -476.79439923 </i>
   </energy>
  </scstep>
  <scstep>
   <time name="dav">    1.53    1.53</time>
   <time name="total">    1.62    1.62</time>
   <dipole>
    <v name="dipole">      0.00000000       0.00000000      -0.15466683 </v>
    <i name="Tr[quadrupol]">  -7952.23055468 </i>
    <i name="Echarged">      0.00000000 </i>
    <i name="Edipol_quadrupol">      0.00000000 </i>
    <i name="Eion">      0.00000000 </i>
   </dipole>
   <energy>
    <i name="e_fr_energy">   -476.82701632 </i>
    <i name="e_wo_entrp">   -476.76212424 </i>
    <i name="e_0_energy">   -476.79457028 </i>
   </energy>
  </scstep>
  <scstep>
   <time name="dav">    1.51    1.52</time>
   <time name="total">    1.59    1.59</time>
   <dipole>
    <v name="dipole">      0.00000000       0.00000000      -0.15532315 </v>
    <i name="Tr[quadrupol]">  -7952.22764200 </i>
    <i name="Echarged">      0.00000000 </i>
    <i name="Edipol_quadrupol">      0.00000000 </i>
    <i name="Eion">      0.00000000 </i>
   </dipole>
   <energy>
    <i name="e_fr_energy">   -476.82703788 </i>
    <i name="e_wo_entrp">   -476.76196859 </i>
    <i name="e_0_energy">   -476.79450324 </i>
   </energy>
  </scstep>
  <scstep>
   <time name="dav">    1.52    1.52</time>
   <time name="total">    1.61    1.61</time>
   <dipole>
    <v name="dipole">      0.00000000       0.00000000      -0.15650276 </v>
    <i name="Tr[quadrupol]">  -7952.22660469 </i>
    <i name="Echarged">      0.00000000 </i>
    <i name="Edipol_quadrupol">      0.00000000 </i>
    <i name="Eion">      0.00000000 </i>
   </dipole>
   <energy>
    <i name="e_fr_energy">   -476.82707905 </i>
    <i name="e_wo_entrp">   -476.76201899 </i>
    <i name="e_0_energy">   -476.79454902 </i>
   </energy>
  </scstep>
  <scstep>
   <time name="dav">    1.06    1.07</time>
   <time name="total">    1.14    1.14</time>
   <dipole>
    <v name="dipole">      0.00000000       0.00000000      -0.15719810 </v>
    <i name="Tr[quadrupol]">  -7952.22620253 </i>
    <i name="Echarged">      0.00000000 </i>
    <i name="Edipol_quadrupol">      0.00000000 </i>
    <i name="Eion">      0.00000000 </i>
   </dipole>
   <energy>
    <i name="e_fr_energy">   -476.82710883 </i>
    <i name="e_wo_entrp">   -476.76205850 </i>
    <i name="e_0_energy">   -476.79458367 </i>
   </energy>
  </scstep>
  <scstep>
   <time name="dav">    1.09    1.10</time>
   <time name="total">    1.17    1.17</time>
   <dipole>
    <v name="dipole">      0.00000000       0.00000000      -0.15851733 </v>
    <i name="Tr[quadrupol]">  -7952.22502714 </i>
    <i name="Echarged">      0.00000000 </i>
    <i name="Edipol_quadrupol">      0.00000000 </i>
    <i name="Eion">      0.00000000 </i>
   </dipole>
   <energy>
    <i name="e_fr_energy">   -476.82715277 </i>
    <i name="e_wo_entrp">   -476.76210295 </i>
    <i name="e_0_energy">   -476.79462786 </i>
   </energy>
  </scstep>
  <scstep>
   <time name="dav">    1.06    1.06</time>
   <time name="total">    1.13    1.13</time>
   <dipole>
    <v name="dipole">      0.00000000       0.00000000      -0.15922228 </v>
    <i name="Tr[quadrupol]">  -7952.22434603 </i>
    <i name="Echarged">      0.00000000 </i>
    <i name="Edipol_quadrupol">      0.00000000 </i>
    <i name="Eion">      0.00000000 </i>
   </dipole>
   <energy>
    <i name="e_fr_energy">   -476.82717511 </i>
    <i name="e_wo_entrp">   -476.76212413 </i>
    <i name="e_0_energy">   -476.79464962 </i>
   </energy>
  </scstep>
  <scstep>
   <time name="dav">    1.05    1.05</time>
   <time name="total">    1.12    1.12</time>
   <dipole>
    <v name="dipole">      0.00000000       0.00000000      -0.15974548 </v>
    <i name="Tr[quadrupol]">  -7952.19328022 </i>
    <i name="Echarged">      0.00000000 </i>
    <i name="Edipol_quadrupol">      0.00000000 </i>
    <i name="Eion">      0.00000000 </i>
   </dipole>
   <energy>
    <i name="e_fr_energy">   -476.82719791 </i>
    <i name="e_wo_entrp">   -476.76214639 </i>
    <i name="e_0_energy">   -476.79467215 </i>
   </energy>
  </scstep>
  <scstep>
   <time name="dav">    1.11    1.11</time>
   <time name="total">    1.18    1.18</time>
   <dipole>
[...]
    <i name="Edipol_quadrupol">      0.00000000 </i>
    <i name="Eion">      0.00000000 </i>
   </dipole>
   <energy>
    <i name="e_fr_energy">   -479.31316993 </i>
    <i name="e_wo_entrp">   -479.25123062 </i>
    <i name="e_0_energy">   -479.28220027 </i>
   </energy>
  </scstep>
  <scstep>
   <time name="dav">    1.54    1.55</time>
   <time name="total">    1.62    1.62</time>
   <dipole>
    <v name="dipole">      0.00000000       0.00000000      -0.55577315 </v>
    <i name="Tr[quadrupol]">  -7591.61576941 </i>
    <i name="Echarged">      0.00000000 </i>
    <i name="Edipol_quadrupol">      0.00000000 </i>
    <i name="Eion">      0.00000000 </i>
   </dipole>
   <energy>
    <i name="e_fr_energy">   -479.31281471 </i>
    <i name="e_wo_entrp">   -479.25097016 </i>
    <i name="e_0_energy">   -479.28189244 </i>
   </energy>
  </scstep>
  <scstep>
   <time name="dav">    1.56    1.56</time>
   <time name="total">    1.64    1.64</time>
   <dipole>
    <v name="dipole">      0.00000000       0.00000000      -0.55597452 </v>
    <i name="Tr[quadrupol]">  -7591.62664999 </i>
    <i name="Echarged">      0.00000000 </i>
    <i name="Edipol_quadrupol">      0.00000000 </i>
    <i name="Eion">      0.00000000 </i>
   </dipole>
   <energy>
    <i name="e_fr_energy">   -479.31292295 </i>
    <i name="e_wo_entrp">   -479.25096852 </i>
    <i name="e_0_energy">   -479.28194574 </i>
   </energy>
  </scstep>
  <scstep>
   <time name="dav">    1.55    1.55</time>
   <time name="total">    1.62    1.62</time>
   <dipole>
    <v name="dipole">      0.00000000       0.00000000      -0.55697198 </v>
    <i name="Tr[quadrupol]">  -7591.63110933 </i>
    <i name="Echarged">      0.00000000 </i>
    <i name="Edipol_quadrupol">      0.00000000 </i>
    <i name="Eion">      0.00000000 </i>
   </dipole>
   <energy>
    <i name="e_fr_energy">   -479.31295184 </i>
    <i name="e_wo_entrp">   -479.25105979 </i>
    <i name="e_0_energy">   -479.28200581 </i>
   </energy>
  </scstep>
  <scstep>
   <time name="dav">    1.21    1.21</time>
   <time name="total">    1.29    1.29</time>
   <dipole>
    <v name="dipole">      0.00000000       0.00000000      -0.55707431 </v>
    <i name="Tr[quadrupol]">  -7591.63530865 </i>
    <i name="Echarged">      0.00000000 </i>
    <i name="Edipol_quadrupol">      0.00000000 </i>
    <i name="Eion">      0.00000000 </i>
   </dipole>
   <energy>
    <i name="e_fr_energy">   -479.31296909 </i>
    <i name="e_wo_entrp">   -479.25106959 </i>
    <i name="e_0_energy">   -479.28201934 </i>
   </energy>
  </scstep>
  <scstep>
   <time name="dav">    1.12    1.12</time>
   <time name="total">    1.19    1.19</time>
   <dipole>
    <v name="dipole">      0.00000000       0.00000000      -0.55748075 </v>
    <i name="Tr[quadrupol]">  -7591.64098265 </i>
    <i name="Echarged">      0.00000000 </i>
    <i name="Edipol_quadrupol">      0.00000000 </i>
    <i name="Eion">      0.00000000 </i>
   </dipole>
   <energy>
    <i name="e_fr_energy">   -479.31299887 </i>
    <i name="e_wo_entrp">   -479.25110376 </i>
    <i name="e_0_energy">   -479.28205132 </i>
   </energy>
  </scstep>
  <scstep>
   <time name="dav">    1.12    1.12</time>
   <time name="total">    1.19    1.19</time>
   <dipole>
    <v name="dipole">      0.00000000       0.00000000      -0.55768351 </v>
    <i name="Tr[quadrupol]">  -7591.64501772 </i>
    <i name="Echarged">      0.00000000 </i>
    <i name="Edipol_quadrupol">      0.00000000 </i>
    <i name="Eion">      0.00000000 </i>
   </dipole>
   <energy>
    <i name="e_fr_energy">   -479.31302185 </i>
    <i name="e_wo_entrp">   -479.25112791 </i>
    <i name="e_0_energy">   -479.28207488 </i>
   </energy>
  </scstep>
  <scstep>
   <time name="dav">    1.10    1.11</time>
   <time name="total">    1.19    1.19</time>
   <dipole>
    <v name="dipole">      0.00000000       0.00000000      -0.55773701 </v>
    <i name="Tr[quadrupol]">  -7591.64831782 </i>
    <i name="Echarged">      0.00000000 </i>
    <i name="Edipol_quadrupol">      0.00000000 </i>
    <i name="Eion">      0.00000000 </i>
   </dipole>
   <energy>
    <i name="e_fr_energy">   -479.31304304 </i>
    <i name="e_wo_entrp">   -479.25114965 </i>
    <i name="e_0_energy">   -479.28209635 </i>
   </energy>
  </scstep>
  <scstep>
   <time name="dav">    1.12    1.12</time>
   <time name="total">    1.19    1.20</time>
   <dipole>
    <v name="dipole">      0.00000000       0.00000000      -0.55773257 </v>
    <i name="Tr[quadrupol]">  -7591.65271407 </i>
    <i name="Echarged">      0.00000000 </i>
    <i name="Edipol_quadrupol">      0.00000000 </i>
    <i name="Eion">      0.00000000 </i>
   </dipole>
   <energy>
    <i name="e_fr_energy">   -479.31306695 </i>
    <i name="e_wo_entrp">   -479.25117331 </i>
    <i name="e_0_energy">   -479.28212013 </i>
   </energy>
  </scstep>
  <scstep>
   <time name="dav">    1.08    1.08</time>
   <time name="total">    1.15    1.15</time>
   <dipole>
    <v name="dipole">      0.00000000       0.00000000      -0.55767170 </v>
    <i name="Tr[quadrupol]">  -7591.65486142 </i>
    <i name="Echarged">      0.00000000 </i>
    <i name="Edipol_quadrupol">      0.00000000 </i>
    <i name="Eion">      0.00000000 </i>
   </dipole>
   <energy>
    <i name="e_fr_energy">   -479.31307749 </i>
    <i name="e_wo_entrp">   -479.25118523 </i>
    <i name="e_0_energy">   -479.28213136 </i>
   </energy>
  </scstep>
  <scstep>
   <time name="dav">    1.11    1.11</time>
   <time name="total">    1.18    1.18</time>
   <dipole>
    <v name="dipole">      0.00000000       0.00000000      -0.55752505 </v>
    <i name="Tr[quadrupol]">  -7591.65761820 </i>
    <i name="Echarged">      0.00000000 </i>
    <i name="Edipol_quadrupol">      0.00000000 </i>
    <i name="Eion">      0.00000000 </i>
   </dipole>
   <energy>
    <i name="e_fr_energy">   -479.31308886 </i>
    <i name="e_wo_entrp">   -479.25119669 </i>
    <i name="e_0_energy">   -479.28214278 </i>
   </energy>
  </scstep>
  <scstep>
   <time name="dav">    1.09    1.09</time>
   <time name="total">    1.16    1.16</time>
   <dipole>
    <v name="dipole">      0.00000000       0.00000000      -0.55780746 </v>
    <i name="Tr[quadrupol]">  -7591.76420360 </i>
    <i name="Echarged">      0.00000000 </i>
    <i name="Edipol_quadrupol">      0.00000000 </i>
    <i name="Eion">      0.00000000 </i>
   </dipole>
   <energy>
    <i name="e_fr_energy">   -479.31307575 </i>
    <i name="e_wo_entrp">   -479.25118413 </i>
    <i name="e_0_energy">   -479.28212994 </i>
   </energy>
  </scstep>
  <scstep>
   <time name="dav">    1.07    1.07</time>
   <time name="total">    1.10    1.10</time>
   <dipole>
    <v name="dipole">      0.00000000       0.00000000      -0.55770253 </v>
    <i name="Tr[quadrupol]">  -7591.76469083 </i>
    <i name="Echarged">      0.00000000 </i>
    <i name="Edipol_quadrupol">      0.00000000 </i>
    <i name="Eion">      0.00000000 </i>
   </dipole>
   <energy>
    <i name="alphaZ">    183.10663811 </i>
    <i name="ewald">  25266.32606274 </i>
    <i name="hartreedc"> -38615.50657389 </i>
    <i name="XCdc">    954.14672884 </i>
    <i name="pawpsdc">  30753.62989834 </i>
    <i name="pawaedc"> -30680.51771677 </i>
    <i name="eentropy">     -0.06189253 </i>
    <i name="bandstr">  -3446.46495740 </i>
    <i name="atom">  15106.02873529 </i>
    <i name="e_fr_energy">   -479.31307727 </i>
    <i name="e_wo_entrp">   -479.25118473 </i>
    <i name="e_0_energy">   -479.28213100 </i>
   </energy>
  </scstep>
  <structure>
   <crystal>
    <varray name="basis" >
     <v>      13.65634782       0.00000000       0.00000000 </v>
     <v>       0.00000000      10.59202600       0.00000000 </v>
     <v>       0.00000000       0.00000000      15.00000000 </v>
    </varray>
    <i name="volume">   2169.72586767 </i>
    <varray name="rec_basis" >
     <v>       0.07322602       0.00000000       0.00000000 </v>
     <v>       0.00000000       0.09441064       0.00000000 </v>
     <v>       0.00000000       0.00000000       0.06666667 </v>
    </varray>
   </crystal>
   <varray name="positions" >
    <v>       0.06792007       0.38388812       0.23873279 </v>
    <v>       0.97672092       0.21616748       0.16768144 </v>
    <v>       0.22715079       0.39277493       0.20817493 </v>
    <v>       0.81790178       0.57852179       0.19414239 </v>
    <v>       0.14659481       0.25203109       0.12588819 </v>
    <v>       0.90375201       0.38174975       0.23526447 </v>
    <v>       0.56862679       0.38028444       0.24420672 </v>
    <v>       0.47821849       0.21554762       0.17158326 </v>
    <v>       0.72729909       0.39511882       0.21286175 </v>
    <v>       0.31157203       0.58212843       0.19543084 </v>
    <v>       0.64766906       0.25580918       0.12832608 </v>
    <v>       0.40233811       0.38281292       0.23476850 </v>
    <v>       0.81930152       0.87943005       0.03326016 </v>
    <v>       0.73011194       0.71147097       0.10567680 </v>
    <v>       0.97853720       0.89155299       0.06336364 </v>
    <v>       0.06508006       0.08046465       0.08062746 </v>
    <v>       0.89941001       0.74893890       0.14620694 </v>
    <v>       0.65543570       0.88043075       0.04439357 </v>
    <v>       0.31991301       0.88890544       0.04032607 </v>
    <v>       0.22698202       0.71713256       0.10471609 </v>
    <v>       0.47917996       0.89590796       0.07445299 </v>
    <v>       0.56995519       0.07960501       0.08786763 </v>
    <v>       0.39114372       0.76128152       0.15940806 </v>
    <v>       0.15574174       0.88519708       0.03925581 </v>
    <v>       0.98482436       0.43597858       0.26690814 </v>
    <v>       0.89574245       0.26345262       0.20384524 </v>
    <v>       0.15633760       0.42370929       0.26488589 </v>
    <v>       0.14553790       0.15149739       0.07330082 </v>
    <v>       0.98018042       0.10801329       0.12225362 </v>
    <v>       0.22713865       0.32184012       0.13576621 </v>
    <v>       0.06385051       0.28558542       0.17581078 </v>
    <v>       0.81842485       0.45678532       0.23182789 </v>
    <v>       0.48439029       0.43091906       0.27307071 </v>
    <v>       0.39658199       0.26440932       0.20330806 </v>
    <v>       0.65606417       0.42016279       0.27163252 </v>
    <v>       0.64805341       0.15399570       0.07663843 </v>
    <v>       0.48622849       0.10380214       0.13201952 </v>
    <v>       0.72650237       0.32780472       0.13846500 </v>
    <v>       0.56460885       0.28804449       0.17800975 </v>
    <v>       0.31767444       0.45723112       0.22692176 </v>
    <v>       0.73560866       0.93391501       0.00972347 </v>
    <v>       0.64756850       0.76068637       0.07446415 </v>
    <v>       0.90721163       0.92063156       0.00678813 </v>
    <v>       0.89763066       0.65063944       0.20141287 </v>
    <v>       0.73372368       0.60393363       0.15134928 </v>
    <v>       0.97850770       0.82081096       0.13653778 </v>
    <v>       0.81728118       0.77906290       0.09450382 </v>
    <v>       0.57166126       0.95472961       0.05613251 </v>
    <v>       0.23848298       0.94030118       0.01021995 </v>
    <v>       0.14899231       0.76269210       0.06416492 </v>
    <v>       0.41054853       0.92294172       0.01558988 </v>
    <v>       0.38596612       0.66222806       0.21441009 </v>
    <v>       0.23292572       0.60510498       0.14503587 </v>
    <v>       0.47304734       0.82975231       0.15131103 </v>
    <v>       0.31245445       0.79311197       0.10597519 </v>
    <v>       0.06922427       0.95663674       0.04666122 </v>
    <v>       0.57273930       0.84468779       0.27544889 </v>
    <v>       0.66699987       0.73357110       0.41217077 </v>
    <v>       0.50594352       0.62484843       0.33331543 </v>
   </varray>
  </structure>
  <varray name="forces" >
   <v>      -0.06975235      -0.08354179       0.06971125 </v>
   <v>       0.04758908      -0.05256886      -0.05034438 </v>
   <v>       0.04197915       0.12791428      -0.05208559 </v>
   <v>       0.07845689       0.04079135       0.02629951 </v>
   <v>      -0.02356246       0.03485521       0.00023811 </v>
   <v>       0.10569339       0.03438596      -0.06768430 </v>
   <v>       0.00501719       0.08993720      -0.02633191 </v>
   <v>       0.04807713       0.04515816       0.00970921 </v>
   <v>       0.02405677      -0.00867273       0.10140244 </v>
   <v>       0.06991827       0.02319690       0.03785452 </v>
   <v>      -0.02774005      -0.04388016      -0.01146217 </v>
   <v>       0.06777090      -0.02932285       0.05800332 </v>
   <v>       0.00798842       0.01541852       0.00739093 </v>
   <v>      -0.03445201       0.10038076      -0.02933516 </v>
   <v>       0.06831803       0.03860630       0.03899466 </v>
   <v>       0.00096443      -0.05017593       0.01047984 </v>
   <v>      -0.02904544       0.07333703      -0.03212939 </v>
   <v>       0.16817542       0.06008704       0.02037562 </v>
   <v>       0.01759113      -0.05815268       0.01241828 </v>
   <v>       0.10277127       0.01672140      -0.03653152 </v>
   <v>      -0.03043395       0.04340297      -0.07918132 </v>
   <v>      -0.05574627       0.08641955       0.03554470 </v>
   <v>       0.01812478       0.07183392       0.02068369 </v>
   <v>       0.00863269      -0.01192435       0.07562716 </v>
   <v>       0.23269838      -0.05898564      -0.02602643 </v>
   <v>       0.00495379      -0.06372925      -0.02563803 </v>
   <v>      -0.20373282      -0.07850440       0.01030157 </v>
   <v>      -0.12216283      -0.01084508       0.05595774 </v>
   <v>       0.15109641       0.03972840       0.02485531 </v>
   <v>      -0.09419345      -0.08040831      -0.00759843 </v>
   <v>       0.04626953       0.14005353       0.03727549 </v>
   <v>      -0.02551511      -0.06745226      -0.03081044 </v>
   <v>      -0.04566886       0.14296295      -0.15692325 </v>
   <v>      -0.05396613      -0.10447046       0.03475545 </v>
   <v>       0.00988156      -0.05473260      -0.13442931 </v>
   <v>      -0.09447273      -0.04848773       0.02617275 </v>
   <v>      -0.04059040       0.14930262      -0.02649961 </v>
   <v>       0.02550781      -0.10972320      -0.01189404 </v>
   <v>      -0.07791185      -0.02886416       0.06016635 </v>
   <v>       0.06200945      -0.04375698       0.00330989 </v>
   <v>      -0.03786536      -0.03330992       0.03296536 </v>
   <v>      -0.11739224       0.04418470       0.04326620 </v>
   <v>      -0.00201320      -0.04090025      -0.00111659 </v>
   <v>      -0.07817006      -0.07405869      -0.06630819 </v>
   <v>       0.06110192       0.08129118       0.05749662 </v>
   <v>       0.04640025      -0.11490691       0.00988028 </v>
   <v>      -0.05363684      -0.03026668       0.06721241 </v>
   <v>      -0.03436436      -0.09620335      -0.02223116 </v>
   <v>       0.01930880      -0.00358413      -0.00842190 </v>
   <v>      -0.14501102      -0.01305825       0.15869621 </v>
   <v>      -0.13886838      -0.03284737       0.03828368 </v>
   <v>       0.03449231      -0.05981981      -0.14874607 </v>
   <v>       0.02124163       0.01723082       0.02602111 </v>
   <v>      -0.04062843       0.07899311       0.00155974 </v>
   <v>       0.07236534      -0.08199162      -0.01390150 </v>
   <v>       0.02428865       0.00212776      -0.05671556 </v>
   <v>       0.07743482      -0.04376555      -0.00275393 </v>
   <v>      -0.31618994       0.11301950      -0.19648112 </v>
   <v>       0.22291096       0.00157085       0.10867187 </v>
  </varray>
  <varray name="stress" >
   <v>      -0.02593016       8.61123498       0.24558491 </v>
   <v>       8.61123497       0.54518764       0.30685606 </v>
   <v>       0.24558488       0.30685602     -13.61912413 </v>
  </varray>
  <energy>
   <i name="e_fr_energy">   -479.31307727 </i>
   <i name="e_wo_entrp">   -479.25118473 </i>
   <i name="e_0_energy">   -479.28213100 </i>
  </energy>
  <time name="totalsc">   21.51   21.54</time>
 </calculation>
 <calculation>
  <scstep>
   <time name="dav">    1.41    1.41</time>
   <time name="total">    1.48    1.48</time>
   <dipole>
    <v name="dipole">      0.00000000       0.00000000      -0.55789117 </v>
    <i name="Tr[quadrupol]">  -7580.50589303 </i>
    <i name="Echarged">      0.00000000 </i>
    <i name="Edipol_quadrupol">      0.00000000 </i>
    <i name="Eion">      0.00000000 </i>
   </dipole>
   <energy>
    <i name="alphaZ">    183.27079444 </i>
    <i name="ewald">  25230.33084311 </i>
    <i name="hartreedc"> -38584.06791231 </i>
    <i name="XCdc">    954.31688447 </i>
    <i name="pawpsdc">  30753.63008058 </i>
    <i name="pawaedc"> -30680.51790723 </i>
    <i name="eentropy">     -0.06158481 </i>
    <i name="bandstr">  -3442.21311911 </i>
    <i name="atom">  15106.02873529 </i>
    <i name="e_fr_energy">   -479.28318556 </i>
    <i name="e_wo_entrp">   -479.22160075 </i>
    <i name="e_0_energy">   -479.25239316 </i>
   </energy>
  </scstep>
  <scstep>
   <time name="dav">    1.54    1.54</time>
   <time name="total">    1.61    1.62</time>
   <dipole>
    <v name="dipole">      0.00000000       0.00000000      -0.55782005 </v>
    <i name="Tr[quadrupol]">  -7580.40444403 </i>
    <i name="Echarged">      0.00000000 </i>
    <i name="Edipol_quadrupol">      0.00000000 </i>
    <i name="Eion">      0.00000000 </i>
   </dipole>
   <energy>
    <i name="e_fr_energy">   -479.32088959 </i>
    <i name="e_wo_entrp">   -479.25913523 </i>
    <i name="e_0_energy">   -479.29001241 </i>
   </energy>
  </scstep>
  <scstep>
   <time name="dav">    1.58    1.58</time>
   <time name="total">    1.65    1.65</time>
   <dipole>
    <v name="dipole">      0.00000000       0.00000000      -0.55801652 </v>
    <i name="Tr[quadrupol]">  -7580.40794360 </i>
    <i name="Echarged">      0.00000000 </i>
    <i name="Edipol_quadrupol">      0.00000000 </i>
    <i name="Eion">      0.00000000 </i>
   </dipole>
   <energy>
    <i name="e_fr_energy">   -479.32008890 </i>
    <i name="e_wo_entrp">   -479.25830074 </i>
    <i name="e_0_energy">   -479.28919482 </i>
   </energy>
  </scstep>
  <scstep>
   <time name="dav">    1.55    1.55</time>
   <time name="total">    1.63    1.63</time>
   <dipole>
    <v name="dipole">      0.00000000       0.00000000      -0.55960362 </v>
    <i name="Tr[quadrupol]">  -7580.41394563 </i>
    <i name="Echarged">      0.00000000 </i>
    <i name="Edipol_quadrupol">      0.00000000 </i>
    <i name="Eion">      0.00000000 </i>
   </dipole>
   <energy>
    <i name="e_fr_energy">   -479.31984116 </i>
    <i name="e_wo_entrp">   -479.25813821 </i>
    <i name="e_0_energy">   -479.28898968 </i>
   </energy>
  </scstep>
  <scstep>
   <time name="dav">    1.55    1.56</time>
   <time name="total">    1.63    1.63</time>
   <dipole>
    <v name="dipole">      0.00000000       0.00000000      -0.55963489 </v>
    <i name="Tr[quadrupol]">  -7580.42320752 </i>
    <i name="Echarged">      0.00000000 </i>
    <i name="Edipol_quadrupol">      0.00000000 </i>
    <i name="Eion">      0.00000000 </i>
   </dipole>
   <energy>
    <i name="e_fr_energy">   -479.31993060 </i>
    <i name="e_wo_entrp">   -479.25813082 </i>
    <i name="e_0_energy">   -479.28903071 </i>
   </energy>
  </scstep>
  <scstep>
   <time name="dav">    1.54    1.54</time>
   <time name="total">    1.62    1.62</time>
   <dipole>
    <v name="dipole">      0.00000000       0.00000000      -0.56058557 </v>
    <i name="Tr[quadrupol]">  -7580.42692944 </i>
    <i name="Echarged">      0.00000000 </i>
    <i name="Edipol_quadrupol">      0.00000000 </i>
    <i name="Eion">      0.00000000 </i>
   </dipole>
   <energy>
    <i name="e_fr_energy">   -479.31994752 </i>
    <i name="e_wo_entrp">   -479.25819465 </i>
    <i name="e_0_energy">   -479.28907109 </i>
   </energy>
  </scstep>
  <scstep>
