slab_Cel1-OPT                           
           1
    13.718000    0.000000    0.000000
     0.000000   10.912933    0.000000
     0.000000    0.000000   15.000000
   C    N    Ag
    24    32     3
Direct configuration=     1
   0.07029904  0.38277314  0.23162657
   0.97998359  0.21488957  0.16763345
   0.22765447  0.39568243  0.19589280
   0.82651578  0.57637196  0.19653811
   0.14730919  0.25081789  0.12065785
   0.90718297  0.37886318  0.23042336
   0.56778047  0.39250902  0.23963622
   0.47730184  0.22394371  0.17728676
   0.72990475  0.39825712  0.21050842
   0.30895079  0.58420349  0.18575988
   0.64684117  0.25649995  0.13339035
   0.40150632  0.39280912  0.22800270
   0.81961793  0.88475803  0.04946464
   0.73206482  0.72075731  0.13394326
   0.98103183  0.89189035  0.07046239
   0.06681443  0.07878758  0.08387808
   0.90799407  0.74252405  0.14843226
   0.65629181  0.89130315  0.06988521
   0.31890399  0.89571371  0.04548035
   0.22681817  0.72040919  0.09806894
   0.47613994  0.90426087  0.08572297
   0.56667210  0.08442453  0.09961672
   0.38528959  0.76576950  0.16160727
   0.15582151  0.88869998  0.04089597
   0.98820906  0.43197646  0.26141726
   0.89882724  0.26328804  0.20097663
   0.15809587  0.42646060  0.25326906
   0.14492924  0.14986694  0.07126011
   0.98467110  0.10533513  0.12864555
   0.22705292  0.32087300  0.12632779
   0.06594124  0.28475896  0.17133175
   0.82297987  0.45388638  0.22709706
   0.48327605  0.44736833  0.26098327
   0.39567416  0.27377107  0.20673744
   0.65645555  0.43265251  0.26609009
   0.64550580  0.15365522  0.08658160
   0.48292167  0.11371349  0.14073022
   0.72645539  0.32559169  0.13995294
   0.56433842  0.29303543  0.18197220
   0.31711429  0.46159360  0.21301875
   0.73455986  0.93763459  0.02950349
   0.65082529  0.78235931  0.11292169
   0.90524399  0.92689581  0.02091075
   0.90962117  0.63918803  0.19549572
   0.72951797  0.61236649  0.18801953
   0.98658992  0.81179169  0.13710838
   0.82133842  0.78210185  0.10678741
   0.56942961  0.96095933  0.07270424
   0.23812942  0.94568626  0.01515973
   0.14937820  0.76730386  0.05914201
   0.40942058  0.93369889  0.02607305
   0.37875274  0.66471716  0.21245894
   0.23379721  0.60750267  0.13214764
   0.46609047  0.83455077  0.15992195
   0.31020692  0.79643047  0.10581663
   0.06996042  0.95682134  0.05180558
   0.57855835  0.77993711  0.23856416
   0.65262203  0.61261170  0.31198085
   0.48403349  0.62336670  0.29876810
slab_Cel1-OPT                           
           1
    13.754762    0.000000    0.000000
     0.000000   10.934944    0.000000
     0.000000    0.000000   15.000000
   C    N    Ag
    24    32     3
Direct configuration=     2
   0.07023993  0.38278908  0.23163289
   0.97997458  0.21493242  0.16764867
   0.22761940  0.39568069  0.19591769
   0.82584233  0.57566045  0.19747025
   0.14728920  0.25084122  0.12067204
   0.90700892  0.37893056  0.23043000
   0.56781821  0.39222771  0.23961390
   0.47731236  0.22391564  0.17729444
   0.72993890  0.39816670  0.21055244
   0.30888950  0.58423732  0.18570538
   0.64686549  0.25654003  0.13340484
   0.40155757  0.39265626  0.22797766
   0.81946966  0.88446145  0.04952916
   0.73241367  0.72107514  0.13394163
   0.98104928  0.89178929  0.07053192
   0.06679741  0.07881136  0.08389300
   0.90787179  0.74271626  0.14836739
   0.65652165  0.89123206  0.06974291
   0.31889175  0.89568993  0.04548470
   0.22683235  0.72036556  0.09807815
   0.47606414  0.90429780  0.08569304
   0.56668018  0.08445255  0.09962929
   0.38513052  0.76579758  0.16149683
   0.15580574  0.88868506  0.04092159
   0.98826629  0.43196355  0.26141724
   0.89887539  0.26319468  0.20095129
   0.15814338  0.42646557  0.25327025
   0.14493569  0.14984593  0.07124920
   0.98470001  0.10530794  0.12863667
   0.22706596  0.32085336  0.12633554
   0.06595734  0.28474821  0.17133168
   0.82347974  0.45338556  0.22709477
   0.48330219  0.44504136  0.26051956
   0.39565188  0.27374779  0.20672682
   0.65627945  0.43053586  0.26580686
   0.64551823  0.15363224  0.08657210
   0.48291324  0.11368524  0.14074139
   0.72641385  0.32552638  0.13988234
   0.56434389  0.29303278  0.18192442
   0.31710636  0.46163141  0.21299935
   0.73451062  0.93768612  0.02954800
   0.65135632  0.78178194  0.11230208
   0.90521123  0.92687560  0.02090203
   0.90928396  0.63917733  0.19517543
   0.73168294  0.61591567  0.18496301
   0.98668823  0.81191022  0.13705182
   0.82051302  0.78051545  0.10754047
   0.56942490  0.96089870  0.07270620
   0.23814274  0.94568846  0.01514257
   0.14936423  0.76732412  0.05912668
   0.40940407  0.93371008  0.02603805
   0.37730923  0.66533348  0.21126687
   0.23377902  0.60751249  0.13211665
   0.46476312  0.83517365  0.15900642
   0.31019546  0.79646493  0.10578664
   0.06998514  0.95684767  0.05180902
   0.57960176  0.78392737  0.23897089
   0.65552996  0.61225420  0.31462809
   0.48163110  0.62312223  0.30132596
slab_Cel1-OPT                           
           1
    13.819260    0.000000    0.000000
     0.000000   10.973563    0.000000
     0.000000    0.000000   15.000000
   C    N    Ag
    24    32     3
Direct configuration=     3
   0.07013651  0.38281699  0.23164396
   0.97995881  0.21500745  0.16767538
   0.22755804  0.39567764  0.19596135
   0.82466394  0.57441464  0.19910566
   0.14725423  0.25088208  0.12069694
   0.90670437  0.37904854  0.23044164
   0.56788424  0.39173515  0.23957473
   0.47733076  0.22386650  0.17730792
   0.72999866  0.39800837  0.21062969
   0.30878224  0.58429656  0.18560974
   0.64690806  0.25661022  0.13343026
   0.40164726  0.39238863  0.22793374
   0.81921020  0.88394217  0.04964237
   0.73302409  0.72163164  0.13393877
   0.98107981  0.89161234  0.07065392
   0.06676762  0.07885301  0.08391916
   0.90765783  0.74305281  0.14825357
   0.65692382  0.89110757  0.06949323
   0.31887033  0.89564831  0.04549233
   0.22685718  0.72028917  0.09809429
   0.47593150  0.90436246  0.08564051
   0.56669433  0.08450161  0.09965134
   0.38485218  0.76584674  0.16130307
   0.15577813  0.88865894  0.04096652
   0.98836642  0.43194094  0.26141721
   0.89895964  0.26303122  0.20090683
   0.15822652  0.42647427  0.25327234
   0.14494698  0.14980916  0.07123005
   0.98475060  0.10526032  0.12862108
   0.22708878  0.32081896  0.12634914
   0.06598550  0.28472938  0.17133156
   0.82435440  0.45250865  0.22709077
   0.48334793  0.44096695  0.25970598
   0.39561290  0.27370703  0.20670818
   0.65597130  0.42682973  0.26530992
   0.64553999  0.15359200  0.08655542
   0.48289850  0.11363576  0.14076098
   0.72634116  0.32541204  0.13975848
   0.56435346  0.29302813  0.18184061
   0.31709249  0.46169761  0.21296532
   0.73442445  0.93777634  0.02962608
   0.65228553  0.78077100  0.11121498
   0.90515392  0.92684020  0.02088673
   0.90869393  0.63915859  0.19461349
   0.73547117  0.62213008  0.17960043
   0.98686026  0.81211776  0.13695258
   0.81906874  0.77773777  0.10886168
   0.56941666  0.96079256  0.07270965
   0.23816605  0.94569233  0.01511247
   0.14933981  0.76735960  0.05909979
   0.40937518  0.93372965  0.02597664
   0.37478338  0.66641264  0.20917541
   0.23374719  0.60752967  0.13206230
   0.46244053  0.83626428  0.15740015
   0.31017542  0.79652527  0.10573402
   0.07002840  0.95689378  0.05181507
   0.58142751  0.79091409  0.23968447
   0.66061821  0.61162823  0.31927260
   0.47742743  0.62269416  0.30581366
slab_Cel1-OPT                           
           1
    13.805432    0.000000    0.000000
     0.000000   10.969220    0.000000
     0.000000    0.000000   15.000000
   C    N    Ag
    24    32     3
Direct configuration=     4
   0.07023899  0.38290947  0.23164943
   0.98008137  0.21498555  0.16762351
   0.22748919  0.39569303  0.19599392
   0.82546098  0.57623505  0.19925417
   0.14729398  0.25086289  0.12070283
   0.90763918  0.37849757  0.23042683
   0.56777162  0.39009148  0.23888611
   0.47728526  0.22393804  0.17728381
   0.72995869  0.39697249  0.21023695
   0.30786333  0.58401887  0.18492467
   0.64673528  0.25640602  0.13341600
   0.40130257  0.39135391  0.22748870
   0.81915630  0.88330482  0.04988143
   0.73421026  0.72467313  0.13232929
   0.98103334  0.89177065  0.07051780
   0.06684396  0.07899094  0.08397860
   0.90707963  0.74242303  0.14850647
   0.65709236  0.89042800  0.06951074
   0.31886322  0.89564873  0.04548206
   0.22685892  0.72045776  0.09802935
   0.47547360  0.90500275  0.08478379
   0.56673038  0.08447981  0.09972690
   0.38370040  0.76662590  0.16014232
   0.15594602  0.88866275  0.04103904
   0.98822495  0.43167123  0.26122902
   0.89913972  0.26328732  0.20089893
   0.15798594  0.42632396  0.25314265
   0.14470571  0.14983424  0.07140468
   0.98498076  0.10555181  0.12863612
   0.22680233  0.32061457  0.12644884
   0.06593965  0.28471236  0.17134618
   0.82323037  0.45254694  0.22700511
   0.48348413  0.44033605  0.25988565
   0.39571628  0.27335099  0.20646259
   0.65644301  0.42587691  0.26562725
   0.64532906  0.15362060  0.08673545
   0.48317865  0.11380555  0.14076266
   0.72632913  0.32544617  0.13974656
   0.56438482  0.29243396  0.18137509
   0.31724808  0.46174590  0.21298881
   0.73485180  0.93766124  0.02980077
   0.65201159  0.78094816  0.11014561
   0.90455273  0.92617948  0.02135806
   0.90800805  0.63821476  0.19459370
   0.73737630  0.62091020  0.17844054
   0.98630696  0.81175874  0.13690866
   0.81951913  0.77867168  0.10848816
   0.56948541  0.96069124  0.07279810
   0.23811396  0.94540950  0.01526827
   0.14960105  0.76755489  0.05919181
   0.40905763  0.93382121  0.02576339
   0.37461391  0.66637404  0.20909839
   0.23355991  0.60757962  0.13189166
   0.46195329  0.83627191  0.15752126
   0.30960663  0.79670245  0.10523314
   0.07004383  0.95682246  0.05188428
   0.58235120  0.79424682  0.24144963
   0.66283810  0.61198829  0.32218622
   0.47613160  0.62327177  0.30896427
slab_Cel1-OPT                           
           1
    13.795153    0.000000    0.000000
     0.000000   10.965992    0.000000
     0.000000    0.000000   15.000000
   C    N    Ag
    24    32     3
Direct configuration=     5
   0.07031524  0.38297824  0.23165351
   0.98017255  0.21496926  0.16758495
   0.22743796  0.39570447  0.19601812
   0.82605399  0.57758867  0.19936455
   0.14732356  0.25084862  0.12070721
   0.90833471  0.37808789  0.23041582
   0.56768782  0.38886929  0.23837426
   0.47725140  0.22399124  0.17726589
   0.72992894  0.39620224  0.20994502
   0.30717964  0.58381239  0.18441546
   0.64660673  0.25625418  0.13340540
   0.40104612  0.39058453  0.22715791
   0.81911620  0.88283091  0.05005912
   0.73509281  0.72693471  0.13113299
   0.98099876  0.89188837  0.07041663
   0.06690076  0.07909351  0.08402278
   0.90664943  0.74195473  0.14869445
   0.65721775  0.88992270  0.06952375
   0.31885793  0.89564905  0.04547443
   0.22686022  0.72058312  0.09798107
   0.47513291  0.90547884  0.08414701
   0.56675720  0.08446359  0.09978306
   0.38284344  0.76720527  0.15927955
   0.15607093  0.88866557  0.04109293
   0.98811969  0.43147068  0.26108914
   0.89927370  0.26347775  0.20089306
   0.15780694  0.42621219  0.25304625
   0.14452620  0.14985290  0.07153447
   0.98515200  0.10576855  0.12864730
   0.22658921  0.32046258  0.12652294
   0.06590553  0.28469970  0.17135704
   0.82239406  0.45257541  0.22694144
   0.48358547  0.43986693  0.26001919
   0.39579320  0.27308624  0.20628005
   0.65679398  0.42516842  0.26586312
   0.64517213  0.15364187  0.08686927
   0.48338709  0.11393180  0.14076391
   0.72632017  0.32547156  0.13973769
   0.56440815  0.29199214  0.18102908
   0.31736384  0.46178181  0.21300627
   0.73516976  0.93757565  0.02993062
   0.65180777  0.78107990  0.10935077
   0.90410543  0.92568817  0.02170838
   0.90749774  0.63751295  0.19457899
   0.73879377  0.62000313  0.17757841
   0.98589528  0.81149179  0.13687602
   0.81985424  0.77936611  0.10821052
   0.56953657  0.96061591  0.07286384
   0.23807520  0.94519920  0.01538407
   0.14979542  0.76770011  0.05926021
   0.40882137  0.93388929  0.02560489
   0.37448782  0.66634535  0.20904114
   0.23342056  0.60761677  0.13176482
   0.46159076  0.83627758  0.15761128
   0.30918344  0.79683420  0.10486084
   0.07005531  0.95676943  0.05193572
   0.58303846  0.79672497  0.24276163
   0.66448976  0.61225602  0.32435186
   0.47516747  0.62370127  0.31130606
slab_Cel1-OPT                           
           1
    13.783112    0.000000    0.000000
     0.000000   10.947551    0.000000
     0.000000    0.000000   15.000000
   C    N    Ag
    24    32     3
Direct configuration=     6
   0.07032162  0.38279005  0.23151753
   0.98037915  0.21492922  0.16751715
   0.22747333  0.39559816  0.19597170
   0.82607190  0.57739128  0.19937720
   0.14708407  0.25067381  0.12077350
   0.90786598  0.37817160  0.23022618
   0.56799527  0.38794588  0.23822507
   0.47736319  0.22342127  0.17689408
   0.73001835  0.39587147  0.20996956
   0.30726057  0.58392951  0.18409945
   0.64666092  0.25587344  0.13318902
   0.40106125  0.39040089  0.22682580
   0.81939259  0.88262352  0.05015969
   0.73569887  0.72658819  0.13060132
   0.98072390  0.89172691  0.07045029
   0.06693753  0.07892865  0.08403961
   0.90690933  0.74146640  0.14903046
   0.65698822  0.89067223  0.06895326
   0.31836176  0.89590643  0.04510834
   0.22650014  0.72062119  0.09773184
   0.47496838  0.90553584  0.08405179
   0.56678271  0.08414095  0.09985815
   0.38217563  0.76690159  0.15892256
   0.15604336  0.88867052  0.04121239
   0.98840446  0.43145182  0.26104748
   0.89962010  0.26341387  0.20077673
   0.15768497  0.42625859  0.25298707
   0.14449016  0.14996373  0.07166539
   0.98523389  0.10603486  0.12869914
   0.22651207  0.32047360  0.12673609
   0.06592477  0.28480824  0.17142187
   0.82229911  0.45267557  0.22702560
   0.48365702  0.43982519  0.26029340
   0.39553692  0.27214798  0.20582488
   0.65671854  0.42438001  0.26627637
   0.64517759  0.15354589  0.08694730
   0.48356115  0.11396281  0.14079687
   0.72608888  0.32465208  0.13907358
   0.56429891  0.29115235  0.18030961
   0.31702458  0.46129393  0.21286021
   0.73534932  0.93726218  0.03030439
   0.65153220  0.78040944  0.10854477
   0.90389883  0.92516229  0.02209176
   0.90866816  0.63797386  0.19452877
   0.73889126  0.62058441  0.17561738
   0.98499794  0.81066913  0.13687196
   0.82100202  0.78169588  0.10732443
   0.56962778  0.96055833  0.07285304
   0.23812703  0.94518168  0.01545343
   0.14983642  0.76785196  0.05935239
   0.40821050  0.93435067  0.02482781
   0.37462881  0.66638925  0.20895348
   0.23249665  0.60768889  0.13104095
   0.46160299  0.83662757  0.15749229
   0.30831885  0.79714633  0.10399567
   0.06995680  0.95681733  0.05206520
   0.58389655  0.79935936  0.24559276
   0.66608852  0.61319522  0.32732140
   0.47481271  0.62492638  0.31481675
slab_Cel1-OPT                           
           1
    13.774466    0.000000    0.000000
     0.000000   10.934310    0.000000
     0.000000    0.000000   15.000000
   C    N    Ag
    24    32     3
Direct configuration=     7
   0.07032621  0.38265470  0.23141989
   0.98052762  0.21490042  0.16746846
   0.22749874  0.39552171  0.19593838
   0.82608477  0.57724932  0.19938629
   0.14691198  0.25054808  0.12082110
   0.90752914  0.37823180  0.23009002
   0.56821621  0.38728176  0.23811795
   0.47744352  0.22301135  0.17662712
   0.73008260  0.39563358  0.20998718
   0.30731873  0.58401375  0.18387257
   0.64669986  0.25559962  0.13303366
   0.40107213  0.39026882  0.22658734
   0.81959122  0.88247437  0.05023189
   0.73613440  0.72633897  0.13021959
   0.98052638  0.89161079  0.07047445
   0.06696396  0.07881009  0.08405169
   0.90709610  0.74111520  0.14927170
   0.65682327  0.89121129  0.06854365
   0.31800521  0.89609154  0.04484550
   0.22624137  0.72064857  0.09755289
   0.47485015  0.90557682  0.08398342
   0.56680105  0.08390891  0.09991206
   0.38169574  0.76668319  0.15866625
   0.15602355  0.88867408  0.04129816
   0.98860910  0.43143826  0.26101757
   0.89986902  0.26336792  0.20069321
   0.15759733  0.42629196  0.25294458
   0.14446427  0.15004344  0.07175940
   0.98529273  0.10622639  0.12873635
   0.22645664  0.32048152  0.12688913
   0.06593860  0.28488631  0.17146842
   0.82223089  0.45274761  0.22708603
   0.48370844  0.43979517  0.26049028
   0.39535274  0.27147318  0.20549808
   0.65666432  0.42381299  0.26657307
   0.64518152  0.15347687  0.08700332
   0.48368623  0.11398512  0.14082054
   0.72592267  0.32406272  0.13859676
   0.56422040  0.29054838  0.17979304
   0.31678078  0.46094305  0.21275534
   0.73547835  0.93703674  0.03057276
   0.65133416  0.77992725  0.10796607
   0.90375036  0.92478408  0.02236702
   0.90950924  0.63830534  0.19449271
   0.73896132  0.62100246  0.17420938
   0.98435309  0.81007748  0.13686904
   0.82182684  0.78337144  0.10668823
   0.56969332  0.96051691  0.07284528
   0.23816427  0.94516909  0.01550324
   0.14986588  0.76796117  0.05941858
   0.40777152  0.93468249  0.02426987
   0.37473013  0.66642083  0.20889054
   0.23183271  0.60774075  0.13052122
   0.46161177  0.83687928  0.15740685
   0.30769754  0.79737081  0.10337449
   0.06988601  0.95685178  0.05215818
   0.58451319  0.80125402  0.24762548
   0.66723741  0.61387069  0.32945349
   0.47455777  0.62580747  0.31733738
slab_Cel1-OPT                           
           1
    13.763680    0.000000    0.000000
     0.000000   10.919716    0.000000
     0.000000    0.000000   15.000000
   C    N    Ag
    24    32     3
Direct configuration=     8
   0.07032067  0.38247704  0.23127953
   0.98082977  0.21521267  0.16752100
   0.22726559  0.39534965  0.19608232
   0.82607891  0.57683182  0.19886303
   0.14677947  0.25080380  0.12110222
   0.90715153  0.37879187  0.23001317
   0.56805859  0.38709017  0.23850418
   0.47732517  0.22259643  0.17621430
   0.72978477  0.39510510  0.20979910
   0.30723315  0.58402186  0.18340355
   0.64657066  0.25487513  0.13259776
   0.40143636  0.39015091  0.22631716
   0.81963210  0.88305393  0.05013357
   0.73603944  0.72622298  0.12898067
   0.98010120  0.89076883  0.07097169
   0.06684160  0.07860809  0.08412267
   0.90745587  0.74209345  0.14872664
   0.65655606  0.89113912  0.06810940
   0.31789983  0.89635115  0.04425324
   0.22574248  0.72064854  0.09704106
   0.47426037  0.90537373  0.08382012
   0.56700365  0.08354090  0.09988900
   0.38194010  0.76673732  0.15857958
   0.15576072  0.88884110  0.04137117
   0.98833774  0.43158585  0.26102558
   0.89980791  0.26321473  0.20054699
   0.15778902  0.42651843  0.25295005
   0.14461914  0.14983760  0.07166334
   0.98528564  0.10586449  0.12861562
   0.22644668  0.32022829  0.12685941
   0.06604119  0.28477851  0.17136975
   0.82264175  0.45299375  0.22714667
   0.48385868  0.43982177  0.26056225
   0.39496097  0.27073940  0.20497295
   0.65673091  0.42304025  0.26681409
   0.64536587  0.15234320  0.08660725
   0.48371943  0.11258759  0.14050773
   0.72625978  0.32405401  0.13831748
   0.56407967  0.29052765  0.17934319
   0.31652607  0.46082385  0.21241243
   0.73546608  0.93747044  0.03063994
   0.65138233  0.77901679  0.10731142
   0.90476575  0.92536186  0.02196796
   0.91041792  0.63750532  0.19511166
   0.73887130  0.62089366  0.17240374
   0.98483152  0.81019967  0.13669837
   0.82200304  0.78347514  0.10709277
   0.56936667  0.96081722  0.07264132
   0.23712876  0.94610290  0.01506998
   0.14878789  0.76840045  0.05912733
   0.40778610  0.93514360  0.02363524
   0.37497403  0.66620527  0.20873096
   0.23138141  0.60707923  0.13019077
   0.46141906  0.83689423  0.15715523
   0.30766461  0.79703592  0.10302948
   0.06963594  0.95667238  0.05234870
   0.58540105  0.80370972  0.25148839
   0.66848746  0.61535980  0.33290824
   0.47490504  0.62768112  0.32153376
slab_Cel1-OPT                           
           1
    13.753441    0.000000    0.000000
     0.000000   10.905863    0.000000
     0.000000    0.000000   15.000000
   C    N    Ag
    24    32     3
Direct configuration=     9
   0.07031540  0.38230818  0.23114630
   0.98111679  0.21550944  0.16757086
   0.22704411  0.39518611  0.19621896
   0.82607335  0.57643500  0.19836636
   0.14665359  0.25104684  0.12136905
   0.90679284  0.37932419  0.22994022
   0.56790887  0.38690808  0.23887078
   0.47721275  0.22220207  0.17582246
   0.72950185  0.39460281  0.20962057
   0.30715185  0.58402957  0.18295837
   0.64644793  0.25418655  0.13218401
   0.40178235  0.39003884  0.22606072
   0.81967094  0.88360477  0.05004024
   0.73594924  0.72611275  0.12780472
   0.97969732  0.88996859  0.07144366
   0.06672538  0.07841610  0.08419005
   0.90779762  0.74302323  0.14820929
   0.65630223  0.89107053  0.06769723
   0.31779974  0.89659788  0.04369109
   0.22526857  0.72064851  0.09655524
   0.47370012  0.90518070  0.08366511
   0.56719611  0.08319113  0.09986710
   0.38217222  0.76678877  0.15849732
   0.15551105  0.88899984  0.04144047
   0.98807996  0.43172613  0.26103319
   0.89974986  0.26306913  0.20040820
   0.15797111  0.42673368  0.25295524
   0.14476625  0.14964196  0.07157216
   0.98527890  0.10552053  0.12850103
   0.22643723  0.31998761  0.12683121
   0.06613864  0.28467606  0.17127609
   0.82303203  0.45322769  0.22720423
   0.48400140  0.43984706  0.26063057
   0.39458882  0.27004197  0.20447451
   0.65679416  0.42230581  0.26704285
   0.64554099  0.15126572  0.08623131
   0.48375097  0.11125932  0.14021082
   0.72658001  0.32404574  0.13805239
   0.56394599  0.29050794  0.17891621
   0.31628411  0.46071056  0.21208694
   0.73545442  0.93788263  0.03070371
   0.65142809  0.77815145  0.10669004
   0.90573029  0.92591101  0.02158918
   0.91128109  0.63674496  0.19569916
   0.73878578  0.62079025  0.17068987
   0.98528598  0.81031580  0.13653637
   0.82217042  0.78357370  0.10747674
   0.56905639  0.96110265  0.07244772
   0.23614511  0.94699044  0.01465875
   0.14776389  0.76881796  0.05885089
   0.40779995  0.93558187  0.02303287
   0.37520572  0.66600039  0.20857948
   0.23095272  0.60645049  0.12987711
   0.46123600  0.83690844  0.15691639
   0.30763332  0.79671763  0.10270201
   0.06939840  0.95650187  0.05252953
   0.58624444  0.80604373  0.25515496
   0.66967490  0.61677511  0.33618740
   0.47523492  0.62946193  0.32551685
slab_Cel1-OPT                           
           1
    13.736162    0.000000    0.000000
     0.000000   10.888657    0.000000
     0.000000    0.000000   15.000000
   C    N    Ag
    24    32     3
Direct configuration=    10
   0.07009562  0.38272181  0.23136675
   0.98095756  0.21526081  0.16749020
   0.22717557  0.39499388  0.19614519
   0.82628287  0.57697850  0.19736966
   0.14683889  0.25056706  0.12112749
   0.90698004  0.37937737  0.22989076
   0.56786424  0.38697165  0.23929303
   0.47678856  0.22131297  0.17526790
   0.72933385  0.39438373  0.20954221
   0.30706394  0.58375322  0.18259945
   0.64668658  0.25375812  0.13168223
   0.40172478  0.38984599  0.22576574
   0.82009542  0.88486289  0.04972582
   0.73565713  0.72559557  0.12653798
   0.98032776  0.89063403  0.07115415
   0.06677829  0.07819995  0.08414037
   0.90772565  0.74203152  0.14852684
   0.65582519  0.89006803  0.06765393
   0.31716771  0.89709100  0.04280503
   0.22455518  0.72022596  0.09599925
   0.47340992  0.90530031  0.08335337
   0.56706786  0.08227260  0.09962600
   0.38246786  0.76649766  0.15856594
   0.15459945  0.88977016  0.04131208
   0.98801615  0.43178614  0.26098618
   0.89948673  0.26324699  0.20035176
   0.15772041  0.42688157  0.25313411
   0.14483841  0.14961320  0.07159805
   0.98501855  0.10545723  0.12865716
   0.22647304  0.31984956  0.12682419
   0.06617426  0.28479276  0.17131850
   0.82256956  0.45321471  0.22710573
   0.48384977  0.44023255  0.26067879
   0.39451673  0.26998144  0.20403977
   0.65703738  0.42181694  0.26717655
   0.64620693  0.15061725  0.08579293
   0.48352937  0.11027533  0.14015781
   0.72668615  0.32397696  0.13789761
   0.56382055  0.29081298  0.17858974
   0.31666282  0.46089041  0.21175890
   0.73555977  0.93873650  0.03046391
   0.65102973  0.77828551  0.10584816
   0.90600544  0.92647855  0.02099941
   0.91127336  0.63693903  0.19573622
   0.73904741  0.61899775  0.16963958
   0.98652866  0.81031042  0.13694759
   0.82200484  0.78335354  0.10802712
   0.56876695  0.96042251  0.07197206
   0.23585592  0.94779755  0.01424328
   0.14688507  0.76850346  0.05862591
   0.40780634  0.93573702  0.02266036
   0.37558810  0.66547783  0.20847638
   0.23083712  0.60620928  0.12959894
   0.46150147  0.83684374  0.15680313
   0.30795730  0.79641240  0.10235786
   0.06904843  0.95617608  0.05276376
   0.58694894  0.80819917  0.25913743
   0.67058477  0.61839595  0.33961040
   0.47590811  0.63147261  0.32957553
slab_Cel1-OPT                           
           1
    13.725109    0.000000    0.000000
     0.000000   10.877652    0.000000
     0.000000    0.000000   15.000000
   C    N    Ag
    24    32     3
Direct configuration=    11
   0.06995486  0.38298679  0.23150775
   0.98085559  0.21510153  0.16743860
   0.22725976  0.39487073  0.19609802
   0.82641705  0.57732667  0.19673215
   0.14695756  0.25025970  0.12097299
   0.90709993  0.37941144  0.22985913
   0.56783567  0.38701238  0.23956310
   0.47651690  0.22074340  0.17491320
   0.72922626  0.39424338  0.20949208
   0.30700764  0.58357618  0.18236989
   0.64683941  0.25348366  0.13136129
   0.40168791  0.38972244  0.22557708
   0.82036726  0.88566886  0.04952471
   0.73547005  0.72526425  0.12572776
   0.98073151  0.89106032  0.07096897
   0.06681217  0.07806149  0.08410860
   0.90767956  0.74139620  0.14872994
   0.65551968  0.88942580  0.06762624
   0.31676295  0.89740690  0.04223830
   0.22409832  0.71995526  0.09564362
   0.47322407  0.90537694  0.08315397
   0.56698572  0.08168416  0.09947179
   0.38265719  0.76631116  0.15860982
   0.15401565  0.89026364  0.04122996
   0.98797529  0.43182458  0.26095612
   0.89931822  0.26336094  0.20031565
   0.15755987  0.42697632  0.25324852
   0.14488462  0.14959477  0.07161460
   0.98485182  0.10541667  0.12875702
   0.22649598  0.31976113  0.12681970
   0.06619708  0.28486752  0.17134562
   0.82227339  0.45320639  0.22704272
   0.48375266  0.44047950  0.26070963
   0.39447056  0.26994267  0.20376170
   0.65719315  0.42150376  0.26726206
   0.64663341  0.15020183  0.08551254
   0.48338746  0.10964497  0.14012391
   0.72675412  0.32393290  0.13779861
   0.56374022  0.29100839  0.17838093
   0.31690536  0.46100563  0.21154907
   0.73562723  0.93928351  0.03031054
   0.65077461  0.77837139  0.10530969
   0.90618165  0.92684212  0.02062218
   0.91126840  0.63706336  0.19575993
   0.73921496  0.61784944  0.16896780
   0.98732450  0.81030697  0.13721060
   0.82189880  0.78321251  0.10837916
   0.56858160  0.95998680  0.07166783
   0.23567072  0.94831460  0.01397754
   0.14632226  0.76830198  0.05848201
   0.40781044  0.93583642  0.02242211
   0.37583297  0.66514307  0.20841044
   0.23076309  0.60605476  0.12942101
   0.46167148  0.83680229  0.15673068
   0.30816478  0.79621686  0.10213774
   0.06882430  0.95596737  0.05291357
   0.58740012  0.80957999  0.26168466
   0.67116747  0.61943430  0.34179978
   0.47633923  0.63276069  0.33217150
slab_Cel1-OPT                           
           1
    13.704697    0.000000    0.000000
     0.000000   10.867541    0.000000
     0.000000    0.000000   15.000000
   C    N    Ag
    24    32     3
Direct configuration=    12
   0.07005352  0.38323825  0.23162371
   0.98036965  0.21506120  0.16751055
   0.22736405  0.39499101  0.19611937
   0.82629837  0.57673937  0.19632378
   0.14710383  0.25014724  0.12087987
   0.90698145  0.37907390  0.22980169
   0.56790953  0.38695624  0.23947218
   0.47641241  0.22072931  0.17472567
   0.72944284  0.39444621  0.20944583
   0.30727584  0.58362071  0.18232925
   0.64704895  0.25375916  0.13129773
   0.40159213  0.38988219  0.22549130
   0.82036473  0.88625984  0.04956439
   0.73504968  0.72367469  0.12560378
   0.98108639  0.89129947  0.07089526
   0.06659264  0.07834123  0.08416609
   0.90842071  0.74129760  0.14903300
   0.65581498  0.88969068  0.06719147
   0.31675403  0.89726175  0.04208545
   0.22414145  0.71976678  0.09543775
   0.47325061  0.90529295  0.08301535
   0.56713158  0.08119172  0.09902045
   0.38265926  0.76595226  0.15846416
   0.15384823  0.88997878  0.04085224
   0.98790984  0.43218511  0.26113264
   0.89915369  0.26347292  0.20030140
   0.15765965  0.42700372  0.25333261
   0.14478656  0.14903534  0.07144947
   0.98476800  0.10517042  0.12878559
   0.22672645  0.31980642  0.12676531
   0.06606359  0.28487566  0.17137736
   0.82196909  0.45329554  0.22687712
   0.48337990  0.44109471  0.26083633
   0.39454752  0.27028495  0.20357751
   0.65720973  0.42170393  0.26747261
   0.64675775  0.14993598  0.08539237
   0.48318788  0.10932343  0.14018491
   0.72662019  0.32379588  0.13773172
   0.56364491  0.29088317  0.17808893
   0.31714343  0.46083955  0.21136267
   0.73534942  0.93949297  0.03019941
   0.65036002  0.77786263  0.10507533
   0.90610060  0.92704363  0.02033788
   0.91074451  0.63762224  0.19546842
   0.73901872  0.61698841  0.16820408
   0.98729168  0.81014021  0.13745165
   0.82190336  0.78376097  0.10823961
   0.56855298  0.95884778  0.07111310
   0.23542503  0.94852407  0.01374583
   0.14620939  0.76809607  0.05820373
   0.40746139  0.93566978  0.02225997
   0.37619777  0.66448524  0.20852757
   0.23085953  0.60605002  0.12928196
   0.46243525  0.83680106  0.15687052
   0.30798626  0.79618053  0.10158666
   0.06891634  0.95680708  0.05290322
   0.58756096  0.81067211  0.26397113
   0.67146684  0.62037675  0.34377419
   0.47687941  0.63388891  0.33426303
slab_Cel1-OPT                           
           1
    13.697435    0.000000    0.000000
     0.000000   10.863945    0.000000
     0.000000    0.000000   15.000000
   C    N    Ag
    24    32     3
Direct configuration=    13
   0.07008866  0.38332778  0.23166496
   0.98019654  0.21504684  0.16753614