       N       E                     dE             d eps       ncg     rms          rms(c)
DAV:   1     0.256492786853E+04    0.25649E+04   -0.92001E+04  1520   0.102E+03
DAV:   2     0.748622236950E+02   -0.24901E+04   -0.23607E+04  1912   0.289E+02
DAV:   3    -0.478547016228E+03   -0.55341E+03   -0.54468E+03  1608   0.147E+02
DAV:   4    -0.515631197714E+03   -0.37084E+02   -0.34984E+02  1976   0.573E+01
DAV:   5    -0.516847810547E+03   -0.12166E+01   -0.11659E+01  1712   0.590E+00    0.858E+01
DAV:   6    -0.704563031984E+03   -0.18772E+03   -0.57156E+02  2192   0.130E+02    0.569E+01
DAV:   7    -0.525988340474E+03    0.17857E+03   -0.31727E+02  1608   0.555E+01    0.407E+01
DAV:   8    -0.496697206581E+03    0.29291E+02   -0.18518E+02  1776   0.306E+01    0.271E+01
DAV:   9    -0.480404932962E+03    0.16292E+02   -0.42936E+01  1992   0.389E+01    0.165E+01
DAV:  10    -0.474237922645E+03    0.61670E+01   -0.28640E+01  1968   0.545E+01    0.519E+00
DAV:  11    -0.487539460216E+03   -0.13302E+02   -0.64863E+01  2040   0.276E+01    0.751E+01
DAV:  12    -0.501678708764E+03   -0.14139E+02   -0.55117E+00  2096   0.417E+00    0.812E+01
DAV:  13    -0.501600788201E+03    0.77921E-01   -0.45942E-02  1672   0.394E-01    0.813E+01
DAV:  14    -0.501930747215E+03   -0.32996E+00   -0.81164E-03  2176   0.218E-01    0.813E+01
DAV:  15    -0.501864875379E+03    0.65872E-01   -0.41449E-04  1688   0.556E-02    0.813E+01
DAV:  16    -0.498710529977E+03    0.31543E+01   -0.10784E-01  1832   0.113E+00    0.808E+01
DAV:  17    -0.475895968135E+03    0.22815E+02   -0.10174E+00  1912   0.572E+00    0.349E+01
DAV:  18    -0.474908487810E+03    0.98748E+00   -0.89249E+00  1904   0.385E+00    0.109E+01
DAV:  19    -0.476267892641E+03   -0.13594E+01   -0.88871E+00  1804   0.107E+01    0.134E+01
DAV:  20    -0.481482607187E+03   -0.52147E+01   -0.12973E+01  1852   0.354E+01    0.189E+01
DAV:  21    -0.483086017906E+03   -0.16034E+01   -0.22883E+00  2028   0.152E+01    0.187E+01
DAV:  22    -0.484152325155E+03   -0.10663E+01   -0.84794E-01  1976   0.720E+00    0.188E+01
DAV:  23    -0.485434063131E+03   -0.12817E+01   -0.34946E-01  1904   0.727E+00    0.191E+01
DAV:  24    -0.488310461280E+03   -0.28764E+01   -0.81865E-01  1964   0.106E+01    0.199E+01
DAV:  25    -0.489690456281E+03   -0.13800E+01   -0.30301E-01  1952   0.399E+00    0.204E+01
DAV:  26    -0.489739843574E+03   -0.49387E-01   -0.54848E-02  1584   0.449E-01    0.204E+01
DAV:  27    -0.489529990632E+03    0.20985E+00   -0.33677E-03  1920   0.420E-01    0.203E+01
DAV:  28    -0.489437203898E+03    0.92787E-01   -0.14013E-03  2024   0.183E-01    0.202E+01
DAV:  29    -0.489619991359E+03   -0.18279E+00   -0.45884E-01  1588   0.243E+00    0.191E+01
DAV:  30    -0.487865224401E+03    0.17548E+01   -0.13436E+00  1864   0.529E+00    0.181E+01
DAV:  31    -0.487964812215E+03   -0.99588E-01   -0.23249E-01  1504   0.151E+00    0.178E+01
DAV:  32    -0.486101458870E+03    0.18634E+01   -0.22593E-01  1944   0.515E+00    0.169E+01
DAV:  33    -0.484840635610E+03    0.12608E+01   -0.39962E-01  1816   0.431E+00    0.154E+01
DAV:  34    -0.482951688663E+03    0.18889E+01   -0.98409E-01  2080   0.750E+00    0.131E+01
DAV:  35    -0.481392681424E+03    0.15590E+01   -0.27289E-01  1936   0.586E+00    0.125E+01
DAV:  36    -0.479842018124E+03    0.15507E+01   -0.11348E+00  1944   0.644E+00    0.112E+01
DAV:  37    -0.479640957968E+03    0.20106E+00   -0.11257E-01  1960   0.140E+00    0.108E+01
DAV:  38    -0.479615911664E+03    0.25046E-01   -0.76209E-03  1976   0.261E-01    0.108E+01
DAV:  39    -0.478755114723E+03    0.86080E+00   -0.21285E-01  1896   0.526E+00    0.991E+00
DAV:  40    -0.477428904161E+03    0.13262E+01   -0.50546E-01  1928   0.822E+00    0.830E+00
DAV:  41    -0.475494835879E+03    0.19341E+01   -0.15552E+00  2000   0.177E+01    0.551E+00
DAV:  42    -0.474594565689E+03    0.90027E+00   -0.15797E+00  2080   0.135E+01    0.297E+00
DAV:  43    -0.474603438277E+03   -0.88726E-02   -0.38198E-01  1512   0.114E+00    0.282E+00
DAV:  44    -0.474502681044E+03    0.10076E+00   -0.42948E-02  2232   0.205E+00    0.248E+00
DAV:  45    -0.474479881008E+03    0.22800E-01   -0.78790E-03  2080   0.372E-01    0.242E+00
DAV:  46    -0.474352941880E+03    0.12694E+00   -0.50059E-02  1968   0.297E+00    0.202E+00
DAV:  47    -0.474307400399E+03    0.45541E-01   -0.16395E-02  2056   0.106E+00    0.188E+00
DAV:  48    -0.474201704688E+03    0.10570E+00   -0.19446E-02  2060   0.161E+00    0.174E+00
DAV:  49    -0.473982797178E+03    0.21891E+00   -0.11316E+00  1952   0.125E+01    0.285E+00
DAV:  50    -0.473976715071E+03    0.60821E-02   -0.10827E-01  1536   0.598E-01    0.282E+00
DAV:  51    -0.473964105075E+03    0.12610E-01   -0.71341E-02  1960   0.121E+00    0.218E+00
DAV:  52    -0.473978771417E+03   -0.14666E-01   -0.86099E-02  1968   0.189E+00    0.344E+00
DAV:  53    -0.473966427691E+03    0.12344E-01   -0.18738E-02  2040   0.534E-01    0.270E+00
DAV:  54    -0.473963444808E+03    0.29829E-02   -0.34906E-03  2064   0.222E-01    0.258E+00
DAV:  55    -0.473967689639E+03   -0.42448E-02   -0.53603E-03  1936   0.339E-01    0.245E+00
DAV:  56    -0.473936283270E+03    0.31406E-01   -0.22811E-01  1932   0.248E+00    0.124E+00
DAV:  57    -0.473934875142E+03    0.14081E-02   -0.21205E-02  1864   0.755E-01    0.136E+00
DAV:  58    -0.473933273806E+03    0.16013E-02   -0.25147E-03  2104   0.214E-01    0.139E+00
DAV:  59    -0.473934749211E+03   -0.14754E-02   -0.60765E-03  1984   0.530E-01    0.156E+00
DAV:  60    -0.473940234254E+03   -0.54850E-02   -0.22621E-02  1880   0.887E-01    0.189E+00
DAV:  61    -0.475281422956E+03   -0.13412E+01   -0.90885E+00  1992   0.437E+00    0.332E+01
DAV:  62    -0.473802849618E+03    0.14786E+01   -0.63464E+00  2020   0.240E+00    0.373E+00
DAV:  63    -0.473945603137E+03   -0.14275E+00   -0.36440E-02  1616   0.565E-01    0.483E+00
DAV:  64    -0.473968808995E+03   -0.23206E-01   -0.63490E-03  1712   0.262E-01    0.517E+00
DAV:  65    -0.473941248314E+03    0.27561E-01   -0.15655E-02  1984   0.431E-01    0.284E+00
DAV:  66    -0.473910676158E+03    0.30572E-01   -0.26782E-01  2104   0.227E+00    0.131E+00
DAV:  67    -0.473911162039E+03   -0.48588E-03   -0.20966E-02  1536   0.209E-01    0.127E+00
DAV:  68    -0.473917121288E+03   -0.59592E-02   -0.12162E-02  2156   0.624E-01    0.111E+00
DAV:  69    -0.473936011137E+03   -0.18890E-01   -0.43119E-02  1932   0.134E+00    0.101E+00
DAV:  70    -0.473957763198E+03   -0.21752E-01   -0.23643E-02  2032   0.101E+00    0.116E+00
DAV:  71    -0.474001019113E+03   -0.43256E-01   -0.28113E-02  2044   0.148E+00    0.149E+00
DAV:  72    -0.474046008464E+03   -0.44989E-01   -0.31462E-02  2016   0.157E+00    0.189E+00
DAV:  73    -0.474005059786E+03    0.40949E-01   -0.12424E-02  1968   0.125E+00    0.168E+00
DAV:  74    -0.473975627084E+03    0.29433E-01   -0.84971E-03  2048   0.956E-01    0.149E+00
DAV:  75    -0.473971766630E+03    0.38605E-02   -0.16343E-03  1872   0.128E-01    0.148E+00
DAV:  76    -0.473945725339E+03    0.26041E-01   -0.60127E-03  2008   0.864E-01    0.129E+00
DAV:  77    -0.473933099124E+03    0.12626E-01   -0.30814E-03  2040   0.378E-01    0.124E+00
DAV:  78    -0.473932747217E+03    0.35191E-03   -0.80563E-04  1496   0.627E-02    0.124E+00
DAV:  79    -0.473936674891E+03   -0.39277E-02   -0.85272E-04  1552   0.196E-01    0.131E+00
DAV:  80    -0.473933468545E+03    0.32063E-02   -0.67065E-04  1596   0.953E-02    0.134E+00
DAV:  81    -0.473939222320E+03   -0.57538E-02   -0.94265E-03  1676   0.468E-01    0.159E+00
DAV:  82    -0.473934339909E+03    0.48824E-02   -0.12897E-03  1912   0.208E-01    0.153E+00
DAV:  83    -0.473932002093E+03    0.23378E-02   -0.19137E-04  1512   0.916E-02    0.151E+00
DAV:  84    -0.473927686882E+03    0.43152E-02   -0.21913E-04  1272   0.142E-01    0.146E+00
DAV:  85    -0.473913294565E+03    0.14392E-01   -0.29166E-03  1916   0.497E-01    0.131E+00
DAV:  86    -0.473902691708E+03    0.10603E-01   -0.27253E-03  2008   0.384E-01    0.119E+00
DAV:  87    -0.473900714797E+03    0.19769E-02   -0.60413E-04  1976   0.811E-02    0.116E+00
DAV:  88    -0.473895662384E+03    0.50524E-02   -0.40312E-04  1432   0.187E-01    0.110E+00
DAV:  89    -0.473889175669E+03    0.64867E-02   -0.10196E-03  1952   0.246E-01    0.103E+00
DAV:  90    -0.473885124937E+03    0.40507E-02   -0.62444E-04  1916   0.166E-01    0.968E-01
DAV:  91    -0.473880792804E+03    0.43321E-02   -0.51764E-04  1648   0.185E-01    0.906E-01
DAV:  92    -0.473877159739E+03    0.36331E-02   -0.53686E-04  1744   0.159E-01    0.848E-01
DAV:  93    -0.473873692100E+03    0.34676E-02   -0.43246E-04  1616   0.165E-01    0.791E-01
DAV:  94    -0.473872808738E+03    0.88336E-03   -0.19286E-04  1592   0.484E-02    0.777E-01
DAV:  95    -0.473868512065E+03    0.42967E-02   -0.72506E-04  1648   0.221E-01    0.700E-01
DAV:  96    -0.473863359483E+03    0.51526E-02   -0.18475E-03  1904   0.298E-01    0.589E-01
DAV:  97    -0.473861435790E+03    0.19237E-02   -0.76917E-04  1992   0.132E-01    0.537E-01
DAV:  98    -0.473860289122E+03    0.11467E-02   -0.17676E-04  1272   0.788E-02    0.506E-01
DAV:  99    -0.473859060064E+03    0.12291E-02   -0.19326E-04  1576   0.870E-02    0.472E-01
DAV: 100    -0.473856157625E+03    0.29024E-02   -0.11689E-03  1804   0.232E-01    0.379E-01
DAV: 101    -0.473854392203E+03    0.17654E-02   -0.10849E-03  2016   0.181E-01    0.299E-01
DAV: 102    -0.473853971818E+03    0.42038E-03   -0.25936E-04  1584   0.552E-02    0.276E-01
DAV: 103    -0.473853372072E+03    0.59975E-03   -0.14269E-04  1288   0.783E-02    0.242E-01
DAV: 104    -0.473852759526E+03    0.61255E-03   -0.29553E-04  1544   0.983E-02    0.199E-01
DAV: 105    -0.473852088650E+03    0.67088E-03   -0.58797E-04  1680   0.138E-01    0.135E-01
DAV: 106    -0.473851527902E+03    0.56075E-03   -0.31099E-03  1924   0.304E-01    0.225E-02
DAV: 107    -0.473851580969E+03   -0.53067E-04   -0.42956E-04  1672   0.411E-02    0.156E-02
DAV: 108    -0.473851584932E+03   -0.39630E-05   -0.23251E-05  1012   0.711E-03
   1 F= -.47385158E+03 E0= -.47381494E+03  d E =-.473852E+03
