  59  59   0   0
  0.3948347E+02  0.1375970E-08  0.1128670E-08  0.1500000E-08  0.1000000E-15
  1.000000000000000E-004
  CAR 
 slab_Cel1-OPT                           
      4.25644191    -27.69618183  301     -1.97528168      1.00000000
    -27.696  0.0000E+00  0.0000E+00
    -27.590  0.0000E+00  0.0000E+00
    -27.483  0.0000E+00  0.0000E+00
    -27.377  0.0000E+00  0.0000E+00
    -27.270  0.0000E+00  0.0000E+00
    -27.164  0.0000E+00  0.0000E+00
    -27.057  0.0000E+00  0.0000E+00
    -26.951  0.0000E+00  0.0000E+00
    -26.844  0.0000E+00  0.0000E+00
    -26.738  0.6964E-14  0.7417E-15
    -26.631  0.1083E-09  0.1153E-10
    -26.525  0.1937E-06  0.2064E-07
    -26.418  0.4365E-04  0.4669E-05
    -26.312  0.1462E-02  0.1603E-03
    -26.205  0.9625E-02  0.1185E-02
    -26.099  0.2089E-01  0.3411E-02
    -25.992  0.2676E-01  0.6261E-02
    -25.886  0.1442E-01  0.7797E-02
    -25.779  0.1862E-02  0.7995E-02
    -25.673  0.4223E-04  0.8000E-02
    -25.566  0.1381E-06  0.8000E-02
    -25.459  0.2609E-08  0.8000E-02
    -25.353  0.2102E-05  0.8000E-02
    -25.246  0.2303E-03  0.8025E-02
    -25.140  0.3941E-02  0.8444E-02
    -25.033  0.1383E-01  0.9917E-02
    -24.927  0.1564E-01  0.1158E-01
    -24.820  0.1179E-01  0.1284E-01
    -24.714  0.8872E-02  0.1378E-01
    -24.607  0.9360E-02  0.1478E-01
    -24.501  0.5917E-02  0.1541E-01
    -24.394  0.8252E-03  0.1550E-01
    -24.288  0.3552E-04  0.1550E-01
    -24.181  0.5450E-03  0.1556E-01
    -24.075  0.2561E-02  0.1583E-01
    -23.968  0.6271E-02  0.1650E-01
    -23.862  0.2392E-01  0.1905E-01
    -23.755  0.3249E-01  0.2251E-01
    -23.649  0.1569E-01  0.2418E-01
    -23.542  0.2852E-02  0.2448E-01
    -23.436  0.1636E-03  0.2450E-01
    -23.329  0.4128E-03  0.2454E-01
    -23.223  0.4613E-02  0.2504E-01
    -23.116  0.1022E-01  0.2612E-01
    -23.010  0.7996E-02  0.2698E-01
    -22.903  0.8746E-02  0.2791E-01
    -22.797  0.1262E-01  0.2925E-01
    -22.690  0.1278E-01  0.3061E-01
    -22.584  0.9740E-02  0.3165E-01
    -22.477  0.3055E-02  0.3198E-01
    -22.371  0.2295E-03  0.3200E-01
    -22.264  0.3042E-05  0.3200E-01
    -22.158  0.5476E-04  0.3201E-01
    -22.051  0.1736E-02  0.3219E-01
    -21.945  0.1285E-01  0.3356E-01
    -21.838  0.3503E-01  0.3729E-01
    -21.732  0.3922E-01  0.4147E-01
    -21.625  0.2979E-01  0.4464E-01
    -21.519  0.2269E-01  0.4706E-01
    -21.412  0.8155E-02  0.4793E-01
    -21.306  0.7461E-03  0.4801E-01
    -21.199  0.1220E-02  0.4814E-01
    -21.093  0.5378E-02  0.4871E-01
    -20.986  0.1455E-01  0.5026E-01
    -20.880  0.2176E-01  0.5258E-01
    -20.773  0.1951E-01  0.5466E-01
    -20.667  0.1028E-01  0.5575E-01
    -20.560  0.2613E-02  0.5603E-01
    -20.454  0.7360E-02  0.5681E-01
    -20.347  0.2351E-01  0.5932E-01
    -20.241  0.2516E-01  0.6200E-01
    -20.134  0.1535E-01  0.6363E-01
    -20.028  0.3295E-02  0.6398E-01
    -19.921  0.1668E-03  0.6400E-01
    -19.815  0.1474E-05  0.6400E-01
    -19.708  0.1753E-08  0.6400E-01
    -19.602  0.2443E-12  0.6400E-01
    -19.495  0.3648E-17  0.6400E-01
    -19.388  0.0000E+00  0.6400E-01
    -19.282  0.0000E+00  0.6400E-01
    -19.175  0.0000E+00  0.6400E-01
    -19.069  0.0000E+00  0.6400E-01
    -18.962  0.0000E+00  0.6400E-01
    -18.856  0.0000E+00  0.6400E-01
    -18.749  0.0000E+00  0.6400E-01
    -18.643  0.0000E+00  0.6400E-01
    -18.536  0.0000E+00  0.6400E-01
    -18.430  0.0000E+00  0.6400E-01
    -18.323  0.0000E+00  0.6400E-01
    -18.217  0.0000E+00  0.6400E-01
    -18.110  0.0000E+00  0.6400E-01
    -18.004  0.4613E-16  0.6400E-01
    -17.897  0.2126E-11  0.6400E-01
    -17.791  0.1081E-07  0.6400E-01
    -17.684  0.6323E-05  0.6400E-01
    -17.578  0.4693E-03  0.6405E-01
    -17.471  0.5386E-02  0.6462E-01
    -17.365  0.1408E-01  0.6612E-01
    -17.258  0.1537E-01  0.6776E-01
    -17.152  0.1222E-01  0.6906E-01
    -17.045  0.1811E-01  0.7099E-01
    -16.939  0.2215E-01  0.7335E-01
    -16.832  0.2029E-01  0.7551E-01
    -16.726  0.1244E-01  0.7684E-01
    -16.619  0.1054E-01  0.7796E-01
    -16.513  0.1073E-01  0.7910E-01
    -16.406  0.3550E-02  0.7948E-01
    -16.300  0.2256E-03  0.7950E-01
    -16.193  0.7214E-03  0.7958E-01
    -16.087  0.2513E-02  0.7985E-01
    -15.980  0.1329E-02  0.7999E-01
    -15.874  0.1019E-03  0.8000E-01
    -15.767  0.2896E-04  0.8000E-01
    -15.661  0.1297E-02  0.8014E-01
    -15.554  0.1208E-01  0.8143E-01
    -15.448  0.3001E-01  0.8462E-01
    -15.341  0.2239E-01  0.8701E-01
    -15.235  0.5472E-02  0.8759E-01
    -15.128  0.2873E-02  0.8790E-01
    -15.022  0.2362E-02  0.8815E-01
    -14.915  0.2659E-02  0.8843E-01
    -14.809  0.2018E-02  0.8865E-01
    -14.702  0.2546E-02  0.8892E-01
    -14.596  0.8955E-03  0.8901E-01
    -14.489  0.3659E-02  0.8940E-01
    -14.383  0.1335E-01  0.9083E-01
    -14.276  0.1274E-01  0.9218E-01
    -14.170  0.1070E-01  0.9332E-01
    -14.063  0.1175E-01  0.9458E-01
    -13.957  0.1413E-01  0.9608E-01
    -13.850  0.2510E-01  0.9875E-01
    -13.744  0.2747E-01  0.1017E+00
    -13.637  0.2982E-01  0.1049E+00
    -13.531  0.3129E-01  0.1082E+00
    -13.424  0.2207E-01  0.1105E+00
    -13.318  0.1756E-01  0.1124E+00
    -13.211  0.1536E-01  0.1140E+00
    -13.104  0.5531E-02  0.1146E+00
    -12.998  0.5839E-02  0.1153E+00
    -12.891  0.7556E-02  0.1161E+00
    -12.785  0.8445E-02  0.1170E+00
    -12.678  0.7881E-02  0.1178E+00
    -12.572  0.5546E-02  0.1184E+00
    -12.465  0.5082E-02  0.1189E+00
    -12.359  0.8646E-02  0.1199E+00
    -12.252  0.6703E-02  0.1206E+00
    -12.146  0.5846E-02  0.1212E+00
    -12.039  0.6576E-02  0.1219E+00
    -11.933  0.1295E-01  0.1233E+00
    -11.826  0.1813E-01  0.1252E+00
    -11.720  0.2156E-01  0.1275E+00
    -11.613  0.2339E-01  0.1300E+00
    -11.507  0.1977E-01  0.1321E+00
    -11.400  0.1833E-01  0.1340E+00
    -11.294  0.1857E-01  0.1360E+00
    -11.187  0.1872E-01  0.1380E+00
    -11.081  0.1153E-01  0.1392E+00
    -10.974  0.9289E-02  0.1402E+00
    -10.868  0.6068E-02  0.1409E+00
    -10.761  0.4860E-02  0.1414E+00
    -10.655  0.9807E-02  0.1424E+00
    -10.548  0.1910E-01  0.1445E+00
    -10.442  0.2093E-01  0.1467E+00
    -10.335  0.1803E-01  0.1486E+00
    -10.229  0.1613E-01  0.1503E+00
    -10.122  0.1153E-01  0.1516E+00
    -10.016  0.3813E-02  0.1520E+00
     -9.909  0.1497E-02  0.1521E+00
     -9.803  0.3564E-02  0.1525E+00
     -9.696  0.7634E-02  0.1533E+00
     -9.590  0.1069E-01  0.1545E+00
     -9.483  0.1475E-01  0.1560E+00
     -9.377  0.2144E-01  0.1583E+00
     -9.270  0.1458E-01  0.1599E+00
     -9.164  0.2098E-01  0.1621E+00
     -9.057  0.3118E-01  0.1654E+00
     -8.951  0.2072E-01  0.1676E+00
     -8.844  0.1048E-01  0.1688E+00
     -8.738  0.9521E-02  0.1698E+00
     -8.631  0.4533E-02  0.1703E+00
     -8.525  0.1001E-01  0.1713E+00
     -8.418  0.8676E-02  0.1722E+00
     -8.312  0.3245E-02  0.1726E+00
     -8.205  0.9031E-02  0.1736E+00
     -8.099  0.1707E-01  0.1754E+00
     -7.992  0.1600E-01  0.1771E+00
     -7.886  0.2416E-01  0.1796E+00
     -7.779  0.1803E-01  0.1816E+00
     -7.673  0.3859E-02  0.1820E+00
     -7.566  0.1193E-02  0.1821E+00
     -7.460  0.1245E-01  0.1834E+00
     -7.353  0.3369E-01  0.1870E+00
     -7.247  0.3412E-01  0.1907E+00
     -7.140  0.3069E-01  0.1939E+00
     -7.033  0.3538E-01  0.1977E+00
     -6.927  0.3582E-01  0.2015E+00
     -6.820  0.2135E-01  0.2038E+00
     -6.714  0.1052E-01  0.2049E+00
     -6.607  0.1051E-01  0.2060E+00
     -6.501  0.1791E-01  0.2079E+00
     -6.394  0.2645E-01  0.2107E+00
     -6.288  0.1956E-01  0.2128E+00
     -6.181  0.1488E-01  0.2144E+00
     -6.075  0.1128E-01  0.2156E+00
     -5.968  0.5381E-02  0.2162E+00
     -5.862  0.9929E-02  0.2172E+00
     -5.755  0.1623E-01  0.2190E+00
     -5.649  0.2046E-01  0.2212E+00
     -5.542  0.2399E-01  0.2237E+00
     -5.436  0.2998E-01  0.2269E+00
     -5.329  0.4375E-01  0.2316E+00
     -5.223  0.3983E-01  0.2358E+00
     -5.116  0.3491E-01  0.2395E+00
     -5.010  0.4629E-01  0.2445E+00
     -4.903  0.4292E-01  0.2490E+00
     -4.797  0.2634E-01  0.2518E+00
     -4.690  0.2730E-01  0.2547E+00
     -4.584  0.2252E-01  0.2571E+00
     -4.477  0.1388E-01  0.2586E+00
     -4.371  0.1801E-01  0.2605E+00
     -4.264  0.1973E-01  0.2626E+00
     -4.158  0.2256E-01  0.2650E+00
     -4.051  0.1904E-01  0.2671E+00
     -3.945  0.1070E-01  0.2682E+00
     -3.838  0.1556E-01  0.2699E+00
     -3.732  0.1548E-01  0.2715E+00
     -3.625  0.7118E-02  0.2723E+00
     -3.519  0.1415E-01  0.2738E+00
     -3.412  0.1697E-01  0.2756E+00
     -3.306  0.1131E-01  0.2768E+00
     -3.199  0.9482E-02  0.2778E+00
     -3.093  0.3305E-02  0.2782E+00
     -2.986  0.9080E-02  0.2791E+00
     -2.880  0.1364E-01  0.2806E+00
     -2.773  0.1638E-01  0.2823E+00
     -2.667  0.1745E-01  0.2842E+00
     -2.560  0.1340E-01  0.2856E+00
     -2.454  0.3584E-02  0.2860E+00
     -2.347  0.1712E-03  0.2860E+00
     -2.241  0.5261E-03  0.2861E+00
     -2.134  0.5891E-02  0.2867E+00
     -2.028  0.9878E-02  0.2877E+00
     -1.921  0.5073E-02  0.2883E+00
     -1.815  0.1156E-01  0.2895E+00
     -1.708  0.1348E-01  0.2909E+00
     -1.602  0.1248E-01  0.2923E+00
     -1.495  0.1255E-01  0.2936E+00
     -1.389  0.9765E-02  0.2946E+00
     -1.282  0.9370E-02  0.2956E+00
     -1.176  0.1464E-01  0.2972E+00
     -1.069  0.2241E-01  0.2996E+00
     -0.962  0.2494E-01  0.3022E+00
     -0.856  0.1366E-01  0.3037E+00
     -0.749  0.4940E-02  0.3042E+00
     -0.643  0.8520E-02  0.3051E+00
     -0.536  0.1770E-01  0.3070E+00
     -0.430  0.2079E-01  0.3092E+00
     -0.323  0.1529E-01  0.3109E+00
     -0.217  0.8960E-02  0.3118E+00
     -0.110  0.1726E-02  0.3120E+00
     -0.004  0.2276E-02  0.3122E+00
      0.103  0.9213E-02  0.3132E+00
      0.209  0.6921E-02  0.3140E+00
      0.316  0.6198E-02  0.3146E+00
      0.422  0.1000E-01  0.3157E+00
      0.529  0.2800E-02  0.3160E+00
      0.635  0.1120E-03  0.3160E+00
      0.742  0.2260E-03  0.3160E+00
      0.848  0.4300E-02  0.3165E+00
      0.955  0.1299E-01  0.3179E+00
      1.061  0.1298E-01  0.3192E+00
      1.168  0.1607E-01  0.3210E+00
      1.274  0.1320E-01  0.3224E+00
      1.381  0.1720E-01  0.3242E+00
      1.487  0.2010E-01  0.3263E+00
      1.594  0.2206E-01  0.3287E+00
      1.700  0.2347E-01  0.3312E+00
      1.807  0.2264E-01  0.3336E+00
      1.913  0.2460E-01  0.3362E+00
      2.020  0.2576E-01  0.3390E+00
      2.126  0.1769E-01  0.3408E+00
      2.233  0.1111E-01  0.3420E+00
      2.339  0.1082E-01  0.3432E+00
      2.446  0.1501E-01  0.3448E+00
      2.552  0.1927E-01  0.3468E+00
      2.659  0.2159E-01  0.3491E+00
      2.765  0.1768E-01  0.3510E+00
      2.872  0.7957E-02  0.3519E+00
      2.978  0.1214E-02  0.3520E+00
      3.085  0.3904E-04  0.3520E+00
      3.191  0.1834E-06  0.3520E+00
      3.298  0.1055E-09  0.3520E+00
      3.404  0.6877E-14  0.3520E+00
      3.511  0.0000E+00  0.3520E+00
      3.617  0.0000E+00  0.3520E+00
      3.724  0.0000E+00  0.3520E+00
      3.830  0.0000E+00  0.3520E+00
      3.937  0.0000E+00  0.3520E+00
      4.043  0.0000E+00  0.3520E+00
      4.150  0.0000E+00  0.3520E+00
      4.256  0.0000E+00  0.3520E+00
