 running on   48 total cores
 distrk:  each k-point on   48 cores,    1 groups
 distr:  one band on   12 cores,    4 groups
 vasp.6.3.2 27Jun22 (build May 04 2024 18:40:40) complex                        
  
 POSCAR found type information on POSCAR C N AgCuPd
 POSCAR found :  5 types and      59 ions
 Reading from existing POTCAR
 scaLAPACK will be used
 Reading from existing POTCAR
 LDA part: xc-table for Pade appr. of Perdew
 POSCAR found type information on POSCAR C N AgCuPd
 POSCAR found :  5 types and      59 ions
 POSCAR, INCAR and KPOINTS ok, starting setup
 FFT: planning ... GRIDC
 FFT: planning ... GRID_SOFT
 FFT: planning ... GRID
 WAVECAR not read
 entering main loop
       N       E                     dE             d eps       ncg     rms          rms(c)
DAV:   1     0.265430734288E+04    0.26543E+04   -0.10267E+05  1592   0.105E+03
DAV:   2     0.124811806142E+02   -0.26418E+04   -0.25141E+04  2024   0.298E+02
DAV:   3    -0.487288435510E+03   -0.49977E+03   -0.49162E+03  1736   0.142E+02
DAV:   4    -0.516628247398E+03   -0.29340E+02   -0.28228E+02  2120   0.527E+01
DAV:   5    -0.517410863528E+03   -0.78262E+00   -0.75285E+00  1904   0.490E+00    0.681E+01
DAV:   6    -0.594133116212E+03   -0.76722E+02   -0.76705E+02  1912   0.191E+02    0.461E+01
DAV:   7    -0.509482001574E+03    0.84651E+02   -0.20974E+02  1688   0.383E+01    0.307E+01
DAV:   8    -0.481514820757E+03    0.27967E+02   -0.97084E+01  1960   0.934E+01    0.135E+01
DAV:   9    -0.515650042950E+03   -0.34135E+02   -0.80001E+01  2160   0.108E+02    0.787E+01
DAV:  10    -0.481667678465E+03    0.33982E+02   -0.57290E+00  2072   0.169E+01    0.823E+00
DAV:  11    -0.505860887311E+03   -0.24193E+02   -0.38444E+01  2256   0.902E+01    0.761E+01
DAV:  12    -0.480862403017E+03    0.24998E+02   -0.12738E+01  2120   0.170E+01    0.819E+00
DAV:  13    -0.481867941747E+03   -0.10055E+01   -0.38630E+00  2160   0.134E+01    0.722E+00
DAV:  14    -0.481584918173E+03    0.28302E+00   -0.50719E-01  1936   0.332E+00    0.650E+00
DAV:  15    -0.481419313318E+03    0.16560E+00   -0.54738E-02  2192   0.205E+00    0.629E+00
DAV:  16    -0.481033233586E+03    0.38608E+00   -0.10430E-01  2096   0.606E+00    0.542E+00
DAV:  17    -0.480838083635E+03    0.19515E+00   -0.77228E-02  2152   0.346E+00    0.480E+00
DAV:  18    -0.480672330041E+03    0.16575E+00   -0.45007E-02  2128   0.329E+00    0.428E+00
DAV:  19    -0.480484345731E+03    0.18798E+00   -0.69820E-02  2176   0.427E+00    0.354E+00
DAV:  20    -0.480319578647E+03    0.16477E+00   -0.91671E-02  2152   0.454E+00    0.262E+00
DAV:  21    -0.480191737248E+03    0.12784E+00   -0.15219E-01  2136   0.540E+00    0.127E+00
DAV:  22    -0.480189647300E+03    0.20899E-02   -0.39468E-02  2024   0.461E-01    0.114E+00
DAV:  23    -0.480185122303E+03    0.45250E-02   -0.11969E-03  1992   0.354E-01    0.105E+00
DAV:  24    -0.480177286940E+03    0.78354E-02   -0.31291E-03  2184   0.657E-01    0.814E-01
DAV:  25    -0.480167366185E+03    0.99208E-02   -0.24717E-02  2144   0.176E+00    0.221E-01
DAV:  26    -0.480167503911E+03   -0.13773E-03   -0.61493E-03  2144   0.376E-01    0.192E-01
DAV:  27    -0.480167598162E+03   -0.94251E-04   -0.61131E-04  1888   0.663E-02    0.159E-01
DAV:  28    -0.480167683034E+03   -0.84872E-04   -0.92368E-04  1584   0.321E-01    0.111E-01
DAV:  29    -0.480167874554E+03   -0.19152E-03   -0.22630E-04  1872   0.779E-02    0.129E-01
DAV:  30    -0.480167846531E+03    0.28023E-04   -0.24457E-04  1584   0.156E-01    0.677E-02
DAV:  31    -0.480167902105E+03   -0.55574E-04   -0.10042E-04  1696   0.668E-02    0.431E-02
DAV:  32    -0.480167905716E+03   -0.36110E-05   -0.29085E-05  1256   0.370E-02
   1 F= -.48016791E+03 E0= -.48012245E+03  d E =-.480168E+03
 curvature:   0.00 expect dE= 0.000E+00 dE for cont linesearch  0.000E+00
 trial: gam= 0.00000 g(F)=  0.360E+00 g(S)=  0.884E-03 ort = 0.000E+00 (trialstep = 0.100E+01)
 search vector abs. value=  0.361E+00
 bond charge predicted
       N       E                     dE             d eps       ncg     rms          rms(c)
DAV:   1    -0.480456404335E+03   -0.28850E+00   -0.20095E+01  1408   0.878E+00    0.158E+00
DAV:   2    -0.480781966480E+03   -0.32556E+00   -0.57482E-01  1960   0.341E+00    0.610E+00
DAV:   3    -0.480484227311E+03    0.29774E+00   -0.59951E-01  1856   0.253E+00    0.127E+00
DAV:   4    -0.480484506600E+03   -0.27929E-03   -0.26828E-02  1848   0.757E-01    0.178E+00
DAV:   5    -0.480482898173E+03    0.16084E-02   -0.46264E-02  2128   0.170E+00    0.923E-01
DAV:   6    -0.480476695304E+03    0.62029E-02   -0.28841E-02  2008   0.153E+00    0.508E-01
DAV:   7    -0.480475494321E+03    0.12010E-02   -0.40311E-03  2024   0.492E-01    0.347E-01
DAV:   8    -0.480475241766E+03    0.25256E-03   -0.11074E-03  1920   0.215E-01    0.249E-01
DAV:   9    -0.480475115579E+03    0.12619E-03   -0.24017E-04  1872   0.572E-02    0.923E-02
DAV:  10    -0.480475169450E+03   -0.53871E-04   -0.67646E-05  1616   0.296E-02    0.370E-02
DAV:  11    -0.480475192925E+03   -0.23475E-04   -0.84256E-06   976   0.125E-02    0.104E-02
DAV:  12    -0.480475205891E+03   -0.12966E-04   -0.48547E-06   960   0.831E-03    0.228E-03
DAV:  13    -0.480475213769E+03   -0.78779E-05   -0.19536E-06   968   0.587E-03
   2 F= -.48047521E+03 E0= -.48043317E+03  d E =-.307308E+00
 trial-energy change:   -0.307308  1 .order   -0.307973   -0.360902   -0.255045
 step:   3.8141(harm=  3.4093)  dis= 0.09334  next Energy=  -480.819245 (dE=-0.651E+00)
 bond charge predicted
       N       E                     dE             d eps       ncg     rms          rms(c)
DAV:   1    -0.480592719233E+03   -0.11751E+00   -0.16244E+02  1408   0.250E+01    0.343E+00
DAV:   2    -0.481591648449E+03   -0.99893E+00   -0.37663E+00  1904   0.630E+00    0.941E+00
DAV:   3    -0.480860167452E+03    0.73148E+00   -0.24560E+00  1776   0.388E+00    0.254E+00
DAV:   4    -0.480843853661E+03    0.16314E-01   -0.10170E-01  1728   0.111E+00    0.253E+00
DAV:   5    -0.480835291455E+03    0.85622E-02   -0.59890E-02  1992   0.147E+00    0.102E+00
DAV:   6    -0.480831459845E+03    0.38316E-02   -0.61812E-02  1920   0.202E+00    0.655E-01
DAV:   7    -0.480827796381E+03    0.36635E-02   -0.30175E-02  2072   0.159E+00    0.437E-01
DAV:   8    -0.480826045241E+03    0.17511E-02   -0.47592E-03  2000   0.541E-01    0.238E-01
DAV:   9    -0.480825754994E+03    0.29025E-03   -0.10421E-03  1840   0.101E-01    0.136E-01
DAV:  10    -0.480825728965E+03    0.26029E-04   -0.22624E-04  1976   0.524E-02    0.402E-02
DAV:  11    -0.480825768919E+03   -0.39953E-04   -0.32507E-05  1248   0.195E-02    0.153E-02
DAV:  12    -0.480825789987E+03   -0.21068E-04   -0.63126E-06   952   0.109E-02    0.711E-03
DAV:  13    -0.480825808603E+03   -0.18616E-04   -0.38537E-06   920   0.771E-03    0.350E-03
DAV:  14    -0.480825820750E+03   -0.12147E-04   -0.20647E-06   944   0.550E-03    0.143E-03
DAV:  15    -0.480825833072E+03   -0.12322E-04   -0.16367E-06   936   0.418E-03    0.237E-03
DAV:  16    -0.480825840336E+03   -0.72636E-05   -0.12651E-06   952   0.371E-03
   3 F= -.48082584E+03 E0= -.48079416E+03  d E =-.657935E+00
 curvature:  -1.66 expect dE=-0.364E+00 dE for cont linesearch -0.125E-03
 trial: gam= 0.59497 g(F)=  0.217E+00 g(S)=  0.328E-02 ort = 0.523E-02 (trialstep = 0.156E+01)
 search vector abs. value=  0.354E+00
 bond charge predicted
       N       E                     dE             d eps       ncg     rms          rms(c)
DAV:   1    -0.481006160145E+03   -0.18033E+00   -0.43926E+01  1416   0.135E+01    0.138E+00
DAV:   2    -0.481112861160E+03   -0.10670E+00   -0.83005E-01  1976   0.297E+00    0.296E+00
DAV:   3    -0.481080945918E+03    0.31915E-01   -0.14425E-01  1744   0.108E+00    0.129E+00
DAV:   4    -0.481071770527E+03    0.91754E-02   -0.39444E-02  1856   0.148E+00    0.105E+00
DAV:   5    -0.481067411782E+03    0.43587E-02   -0.36007E-02  2000   0.167E+00    0.598E-01
DAV:   6    -0.481064727223E+03    0.26846E-02   -0.11531E-02  1992   0.864E-01    0.299E-01
DAV:   7    -0.481064352904E+03    0.37432E-03   -0.17034E-03  1808   0.143E-01    0.805E-02
DAV:   8    -0.481064367496E+03   -0.14592E-04   -0.31712E-04  1856   0.723E-02    0.632E-02
DAV:   9    -0.481064372291E+03   -0.47955E-05   -0.70284E-05  1544   0.241E-02
   4 F= -.48106437E+03 E0= -.48103078E+03  d E =-.238532E+00
 trial-energy change:   -0.238532  1 .order   -0.239242   -0.348607   -0.129877
 step:   2.5209(harm=  2.4908)  dis= 0.06102  next Energy=  -481.104019 (dE=-0.278E+00)
 bond charge predicted
       N       E                     dE             d eps       ncg     rms          rms(c)
DAV:   1    -0.481084201816E+03   -0.19834E-01   -0.16470E+01  1416   0.821E+00    0.825E-01
DAV:   2    -0.481119171889E+03   -0.34970E-01   -0.28742E-01  2000   0.173E+00    0.162E+00
DAV:   3    -0.481110519796E+03    0.86521E-02   -0.38327E-02  1800   0.632E-01    0.821E-01
DAV:   4    -0.481106662218E+03    0.38576E-02   -0.12480E-02  1824   0.708E-01    0.565E-01
DAV:   5    -0.481105904612E+03    0.75761E-03   -0.12538E-02  1984   0.974E-01    0.362E-01
DAV:   6    -0.481104565412E+03    0.13392E-02   -0.49857E-03  2008   0.622E-01    0.113E-01
DAV:   7    -0.481104590765E+03   -0.25353E-04   -0.60358E-04  1824   0.677E-02    0.452E-02
DAV:   8    -0.481104598739E+03   -0.79747E-05   -0.88966E-05  1576   0.300E-02
   5 F= -.48110460E+03 E0= -.48106921E+03  d E =-.278758E+00
 curvature:  -1.97 expect dE=-0.272E+00 dE for cont linesearch -0.826E-06
 trial: gam= 0.73011 g(F)=  0.134E+00 g(S)=  0.444E-02 ort = 0.385E-03 (trialstep = 0.175E+01)
 search vector abs. value=  0.327E+00
 bond charge predicted
       N       E                     dE             d eps       ncg     rms          rms(c)
DAV:   1    -0.481210967151E+03   -0.10638E+00   -0.53834E+01  1432   0.144E+01    0.140E+00
DAV:   2    -0.481279561227E+03   -0.68594E-01   -0.83690E-01  1904   0.281E+00    0.108E+00
DAV:   3    -0.481299083967E+03   -0.19523E-01   -0.78322E-02  1896   0.109E+00    0.174E+00
DAV:   4    -0.481279282549E+03    0.19801E-01   -0.39313E-02  1896   0.864E-01    0.109E+00
DAV:   5    -0.481275779988E+03    0.35026E-02   -0.34285E-02  2024   0.152E+00    0.566E-01
DAV:   6    -0.481272475078E+03    0.33049E-02   -0.11085E-02  2048   0.887E-01    0.162E-01
DAV:   7    -0.481272490743E+03   -0.15664E-04   -0.11608E-03  1792   0.950E-02    0.866E-02
DAV:   8    -0.481272476387E+03    0.14356E-04   -0.23170E-04  1848   0.543E-02    0.359E-02
DAV:   9    -0.481272500816E+03   -0.24429E-04   -0.65532E-05  1352   0.385E-02    0.198E-02
DAV:  10    -0.481272528102E+03   -0.27287E-04   -0.14423E-05   984   0.147E-02    0.532E-03
DAV:  11    -0.481272550431E+03   -0.22329E-04   -0.40062E-06   952   0.879E-03    0.279E-03
DAV:  12    -0.481272577310E+03   -0.26879E-04   -0.37188E-06  1000   0.580E-03    0.155E-03
DAV:  13    -0.481272596755E+03   -0.19445E-04   -0.20827E-06   960   0.477E-03    0.111E-03
DAV:  14    -0.481272613961E+03   -0.17205E-04   -0.25777E-06   984   0.398E-03    0.105E-03
DAV:  15    -0.481272619686E+03   -0.57248E-05   -0.13215E-06   976   0.390E-03
   6 F= -.48127262E+03 E0= -.48124099E+03  d E =-.168021E+00
 trial-energy change:   -0.168021  1 .order   -0.167971   -0.242522   -0.093419
 step:   2.8536(harm=  2.8536)  dis= 0.07881  next Energy=  -481.301835 (dE=-0.197E+00)
 bond charge predicted
       N       E                     dE             d eps       ncg     rms          rms(c)
DAV:   1    -0.481277110308E+03   -0.44963E-02   -0.21051E+01  1424   0.903E+00    0.859E-01
DAV:   2    -0.481305300991E+03   -0.28191E-01   -0.33451E-01  1920   0.174E+00    0.735E-01
DAV:   3    -0.481314462415E+03   -0.91614E-02   -0.33004E-02  2064   0.784E-01    0.123E+00
DAV:   4    -0.481303054432E+03    0.11408E-01   -0.16077E-02  1808   0.495E-01    0.491E-01
DAV:   5    -0.481302882918E+03    0.17151E-03   -0.76095E-03  1976   0.593E-01    0.291E-01
DAV:   6    -0.481301932018E+03    0.95090E-03   -0.52392E-03  2048   0.630E-01    0.112E-01
DAV:   7    -0.481301847664E+03    0.84354E-04   -0.59545E-04  1936   0.164E-01    0.414E-02
DAV:   8    -0.481301858398E+03   -0.10734E-04   -0.88369E-05  1536   0.360E-02    0.171E-02
DAV:   9    -0.481301875815E+03   -0.17416E-04   -0.15597E-05   992   0.138E-02    0.103E-02
DAV:  10    -0.481301889215E+03   -0.13401E-04   -0.49854E-06   952   0.934E-03    0.300E-03
DAV:  11    -0.481301901487E+03   -0.12271E-04   -0.21974E-06   944   0.654E-03    0.227E-03
DAV:  12    -0.481301914141E+03   -0.12655E-04   -0.18093E-06   976   0.499E-03    0.120E-03
DAV:  13    -0.481301922902E+03   -0.87607E-05   -0.13279E-06   952   0.393E-03
   7 F= -.48130192E+03 E0= -.48127227E+03  d E =-.197324E+00
 curvature:  -3.38 expect dE=-0.432E+00 dE for cont linesearch -0.208E-06
 trial: gam= 0.94838 g(F)=  0.128E+00 g(S)=  0.166E-03 ort = 0.142E-03 (trialstep = 0.153E+01)
 search vector abs. value=  0.422E+00
 bond charge predicted
       N       E                     dE             d eps       ncg     rms          rms(c)
DAV:   1    -0.481392337616E+03   -0.90423E-01   -0.53520E+01  1432   0.141E+01    0.140E+00
DAV:   2    -0.481521925946E+03   -0.12959E+00   -0.84133E-01  1920   0.288E+00    0.364E+00
DAV:   3    -0.481463342814E+03    0.58583E-01   -0.23354E-01  1776   0.121E+00    0.110E+00
DAV:   4    -0.481451691059E+03    0.11652E-01   -0.26170E-02  1776   0.670E-01    0.650E-01
DAV:   5    -0.481451131617E+03    0.55944E-03   -0.17520E-02  1936   0.106E+00    0.435E-01
DAV:   6    -0.481450013434E+03    0.11182E-02   -0.11750E-02  2056   0.995E-01    0.257E-01
DAV:   7    -0.481449449251E+03    0.56418E-03   -0.19695E-03  2000   0.409E-01    0.104E-01
DAV:   8    -0.481449449437E+03   -0.18612E-06   -0.50072E-04  1944   0.121E-01    0.441E-02
DAV:   9    -0.481449463579E+03   -0.14142E-04   -0.66334E-05  1312   0.281E-02    0.162E-02
DAV:  10    -0.481449484161E+03   -0.20583E-04   -0.20330E-05  1104   0.180E-02    0.768E-03
DAV:  11    -0.481449499299E+03   -0.15138E-04   -0.47402E-06   952   0.969E-03    0.267E-03
DAV:  12    -0.481449510595E+03   -0.11296E-04   -0.23917E-06   944   0.586E-03    0.190E-03
DAV:  13    -0.481449520025E+03   -0.94305E-05   -0.14171E-06   976   0.544E-03
   8 F= -.48144952E+03 E0= -.48142385E+03  d E =-.147597E+00
 trial-energy change:   -0.147597  1 .order   -0.147905   -0.195724   -0.100087
 step:   3.1296(harm=  3.1296)  dis= 0.11268  next Energy=  -481.502200 (dE=-0.200E+00)
 bond charge predicted
       N       E                     dE             d eps       ncg     rms          rms(c)
DAV:   1    -0.481441793603E+03    0.77170E-02   -0.58727E+01  1424   0.147E+01    0.141E+00
DAV:   2    -0.481549761291E+03   -0.10797E+00   -0.88683E-01  1896   0.289E+00    0.282E+00
DAV:   3    -0.481518658677E+03    0.31103E-01   -0.16243E-01  1768   0.112E+00    0.116E+00
DAV:   4    -0.481506045692E+03    0.12613E-01   -0.21781E-02  1888   0.830E-01    0.575E-01
DAV:   5    -0.481506204917E+03   -0.15923E-03   -0.22494E-02  1952   0.129E+00    0.471E-01
DAV:   6    -0.481504371711E+03    0.18332E-02   -0.10669E-02  2040   0.962E-01    0.211E-01
DAV:   7    -0.481504117830E+03    0.25388E-03   -0.12689E-03  1952   0.226E-01    0.887E-02
DAV:   8    -0.481504114420E+03    0.34101E-05   -0.37018E-04  1912   0.975E-02    0.342E-02
DAV:   9    -0.481504132743E+03   -0.18323E-04   -0.55391E-05  1288   0.286E-02    0.142E-02
DAV:  10    -0.481504152228E+03   -0.19485E-04   -0.13938E-05  1008   0.177E-02    0.635E-03
DAV:  11    -0.481504169029E+03   -0.16801E-04   -0.49004E-06   936   0.964E-03    0.231E-03
DAV:  12    -0.481504181558E+03   -0.12529E-04   -0.26663E-06   968   0.621E-03    0.183E-03
DAV:  13    -0.481504191936E+03   -0.10378E-04   -0.15835E-06   952   0.608E-03    0.128E-03
DAV:  14    -0.481504203688E+03   -0.11752E-04   -0.16640E-06   960   0.379E-03    0.644E-04
DAV:  15    -0.481504209204E+03   -0.55162E-05   -0.10826E-06   976   0.332E-03
   9 F= -.48150421E+03 E0= -.48148206E+03  d E =-.202286E+00
 curvature:  -5.16 expect dE=-0.455E+00 dE for cont linesearch -0.103E-03
 trial: gam= 0.69676 g(F)=  0.881E-01 g(S)=  0.128E-03 ort = 0.290E-02 (trialstep = 0.185E+01)
 search vector abs. value=  0.297E+00
 bond charge predicted
       N       E                     dE             d eps       ncg     rms          rms(c)
DAV:   1    -0.481546728378E+03   -0.42525E-01   -0.53323E+01  1408   0.146E+01    0.128E+00
DAV:   2    -0.481610687164E+03   -0.63959E-01   -0.81798E-01  1944   0.265E+00    0.773E-01
DAV:   3    -0.481616816097E+03   -0.61289E-02   -0.49297E-02  1760   0.742E-01    0.103E+00
DAV:   4    -0.481611090698E+03    0.57254E-02   -0.22437E-02  1800   0.588E-01    0.828E-01
DAV:   5    -0.481607648485E+03    0.34422E-02   -0.10680E-02  1928   0.604E-01    0.304E-01
DAV:   6    -0.481607275039E+03    0.37345E-03   -0.60106E-03  2032   0.685E-01    0.199E-01
DAV:   7    -0.481606958693E+03    0.31635E-03   -0.19547E-03  2080   0.401E-01    0.839E-02
DAV:   8    -0.481606928585E+03    0.30107E-04   -0.27618E-04  1816   0.925E-02    0.292E-02
DAV:   9    -0.481606955809E+03   -0.27224E-04   -0.39492E-05  1232   0.169E-02    0.145E-02
DAV:  10    -0.481606976052E+03   -0.20243E-04   -0.68966E-06   952   0.130E-02    0.480E-03
DAV:  11    -0.481606993770E+03   -0.17718E-04   -0.31232E-06   952   0.851E-03    0.270E-03
DAV:  12    -0.481607005460E+03   -0.11691E-04   -0.18342E-06   960   0.598E-03    0.180E-03
DAV:  13    -0.481607018887E+03   -0.13426E-04   -0.17881E-06   936   0.531E-03    0.116E-03
DAV:  14    -0.481607028295E+03   -0.94083E-05   -0.14567E-06   952   0.418E-03
  10 F= -.48160703E+03 E0= -.48158388E+03  d E =-.102819E+00
 trial-energy change:   -0.102819  1 .order   -0.103369   -0.166826   -0.039911
 step:   2.4516(harm=  2.4309)  dis= 0.07876  next Energy=  -481.613509 (dE=-0.109E+00)
 bond charge predicted
       N       E                     dE             d eps       ncg     rms          rms(c)
DAV:   1    -0.481606224755E+03    0.79413E-03   -0.56155E+00  1408   0.473E+00    0.409E-01
DAV:   2    -0.481613789828E+03   -0.75651E-02   -0.94590E-02  1952   0.886E-01    0.241E-01
DAV:   3    -0.481614184281E+03   -0.39445E-03   -0.48180E-03  2040   0.288E-01    0.317E-01
DAV:   4    -0.481613836475E+03    0.34781E-03   -0.24443E-03  1912   0.204E-01    0.275E-01
DAV:   5    -0.481613430581E+03    0.40589E-03   -0.10232E-03  1848   0.165E-01    0.971E-02
DAV:   6    -0.481613394921E+03    0.35660E-04   -0.81594E-04  1872   0.245E-01    0.647E-02
DAV:   7    -0.481613359824E+03    0.35097E-04   -0.13709E-04  1392   0.102E-01    0.193E-02
DAV:   8    -0.481613362671E+03   -0.28464E-05   -0.20668E-05  1040   0.176E-02
  11 F= -.48161336E+03 E0= -.48158983E+03  d E =-.109153E+00
 curvature:  -4.00 expect dE=-0.193E+00 dE for cont linesearch -0.311E-05
 trial: gam= 0.61961 g(F)=  0.479E-01 g(S)=  0.275E-03 ort =-0.481E-03 (trialstep = 0.197E+01)
 search vector abs. value=  0.162E+00
 bond charge predicted
       N       E                     dE             d eps       ncg     rms          rms(c)
DAV:   1    -0.481640407075E+03   -0.27047E-01   -0.32505E+01  1408   0.115E+01    0.933E-01
DAV:   2    -0.481680582210E+03   -0.40175E-01   -0.51672E-01  1864   0.206E+00    0.592E-01
DAV:   3    -0.481688798379E+03   -0.82162E-02   -0.35511E-02  1944   0.653E-01    0.103E+00
DAV:   4    -0.481678387852E+03    0.10411E-01   -0.13669E-02  1872   0.497E-01    0.377E-01
DAV:   5    -0.481677914971E+03    0.47288E-03   -0.36351E-03  1816   0.269E-01    0.158E-01
DAV:   6    -0.481677988411E+03   -0.73440E-04   -0.16449E-03  2096   0.321E-01    0.121E-01
DAV:   7    -0.481677892341E+03    0.96071E-04   -0.88974E-04  1624   0.276E-01    0.564E-02
DAV:   8    -0.481677875567E+03    0.16774E-04   -0.12379E-04  1344   0.915E-02    0.178E-02
DAV:   9    -0.481677890504E+03   -0.14937E-04   -0.26988E-05  1088   0.166E-02    0.672E-03
DAV:  10    -0.481677900957E+03   -0.10453E-04   -0.55998E-06   960   0.109E-02    0.324E-03
DAV:  11    -0.481677910633E+03   -0.96758E-05   -0.24013E-06   928   0.666E-03
  12 F= -.48167791E+03 E0= -.48165668E+03  d E =-.645480E-01
 trial-energy change:   -0.064548  1 .order   -0.064615   -0.094230   -0.034999
 step:   3.1337(harm=  3.1337)  dis= 0.07890  next Energy=  -481.688318 (dE=-0.750E-01)
 bond charge predicted
       N       E                     dE             d eps       ncg     rms          rms(c)
DAV:   1    -0.481674657438E+03    0.32435E-02   -0.11317E+01  1408   0.679E+00    0.544E-01
DAV:   2    -0.481689175611E+03   -0.14518E-01   -0.18523E-01  1856   0.122E+00    0.329E-01
DAV:   3    -0.481691474689E+03   -0.22991E-02   -0.11293E-02  1888   0.359E-01    0.573E-01
DAV:   4    -0.481688544364E+03    0.29303E-02   -0.45279E-03  1800   0.269E-01    0.232E-01
DAV:   5    -0.481688393754E+03    0.15061E-03   -0.14544E-03  1832   0.222E-01    0.105E-01
DAV:   6    -0.481688394892E+03   -0.11374E-05   -0.95078E-04  1976   0.268E-01    0.801E-02
DAV:   7    -0.481688343861E+03    0.51030E-04   -0.31530E-04  1472   0.164E-01    0.238E-02
DAV:   8    -0.481688348884E+03   -0.50221E-05   -0.35085E-05  1056   0.334E-02
  13 F= -.48168835E+03 E0= -.48166835E+03  d E =-.749862E-01
 curvature:  -5.30 expect dE=-0.223E+00 dE for cont linesearch -0.476E-07
 trial: gam= 0.87450 g(F)=  0.421E-01 g(S)=  0.523E-04 ort = 0.381E-04 (trialstep = 0.215E+01)
 search vector abs. value=  0.166E+00
 bond charge predicted
       N       E                     dE             d eps       ncg     rms          rms(c)
DAV:   1    -0.481698699368E+03   -0.10356E-01   -0.39084E+01  1416   0.128E+01    0.947E-01
DAV:   2    -0.481746470235E+03   -0.47771E-01   -0.57591E-01  1912   0.221E+00    0.550E-01
DAV:   3    -0.481750400869E+03   -0.39306E-02   -0.23630E-02  1928   0.555E-01    0.942E-01
DAV:   4    -0.481744781695E+03    0.56192E-02   -0.14357E-02  1800   0.394E-01    0.386E-01
DAV:   5    -0.481743950479E+03    0.83122E-03   -0.29976E-03  1936   0.302E-01    0.169E-01
DAV:   6    -0.481744114000E+03   -0.16352E-03   -0.28097E-03  2008   0.451E-01    0.146E-01
DAV:   7    -0.481743861857E+03    0.25214E-03   -0.95067E-04  1752   0.286E-01    0.329E-02
DAV:   8    -0.481743883270E+03   -0.21412E-04   -0.75357E-05  1376   0.255E-02    0.179E-02
DAV:   9    -0.481743903864E+03   -0.20594E-04   -0.13803E-05   968   0.126E-02    0.676E-03
DAV:  10    -0.481743920009E+03   -0.16145E-04   -0.48868E-06   960   0.101E-02    0.294E-03
DAV:  11    -0.481743936510E+03   -0.16501E-04   -0.28011E-06   952   0.585E-03    0.173E-03
DAV:  12    -0.481743949084E+03   -0.12574E-04   -0.17654E-06   976   0.487E-03    0.124E-03
DAV:  13    -0.481743958116E+03   -0.90320E-05   -0.12881E-06   960   0.404E-03
  14 F= -.48174396E+03 E0= -.48172560E+03  d E =-.556092E-01
 trial-energy change:   -0.055609  1 .order   -0.055696   -0.090514   -0.020878
 step:   2.7913(harm=  2.7913)  dis= 0.07310  next Energy=  -481.747175 (dE=-0.588E-01)
 bond charge predicted
       N       E                     dE             d eps       ncg     rms          rms(c)
DAV:   1    -0.481742635230E+03    0.13139E-02   -0.34934E+00  1424   0.382E+00    0.279E-01
DAV:   2    -0.481747297279E+03   -0.46620E-02   -0.55146E-02  1928   0.674E-01    0.175E-01
DAV:   3    -0.481747835854E+03   -0.53858E-03   -0.25486E-03  1840   0.188E-01    0.312E-01
DAV:   4    -0.481747064905E+03    0.77095E-03   -0.13788E-03  1776   0.129E-01    0.107E-01
DAV:   5    -0.481747074889E+03   -0.99847E-05   -0.43486E-04  1952   0.153E-01    0.750E-02
DAV:   6    -0.481747040691E+03    0.34198E-04   -0.36215E-04  1600   0.167E-01    0.363E-02
DAV:   7    -0.481747033082E+03    0.76091E-05   -0.53537E-05  1096   0.648E-02
  15 F= -.48174703E+03 E0= -.48172910E+03  d E =-.586842E-01
 curvature:  -5.49 expect dE=-0.187E+00 dE for cont linesearch -0.310E-06
 trial: gam= 0.82789 g(F)=  0.332E-01 g(S)=  0.893E-03 ort =-0.968E-04 (trialstep = 0.228E+01)
 search vector abs. value=  0.148E+00
 bond charge predicted
       N       E                     dE             d eps       ncg     rms          rms(c)
DAV:   1    -0.481751426533E+03   -0.43858E-02   -0.39417E+01  1440   0.132E+01    0.810E-01
DAV:   2    -0.481797401083E+03   -0.45975E-01   -0.52916E-01  2008   0.242E+00    0.652E-01
DAV:   3    -0.481798354697E+03   -0.95361E-03   -0.34471E-02  2128   0.110E+00    0.686E-01
DAV:   4    -0.481795354027E+03    0.30007E-02   -0.90904E-03  1816   0.392E-01    0.514E-01
DAV:   5    -0.481794313752E+03    0.10403E-02   -0.79431E-03  1952   0.703E-01    0.324E-01
DAV:   6    -0.481793599731E+03    0.71402E-03   -0.34828E-03  1968   0.472E-01    0.966E-02
DAV:   7    -0.481793664269E+03   -0.64538E-04   -0.59119E-04  1768   0.677E-02    0.324E-02
DAV:   8    -0.481793665046E+03   -0.77718E-06   -0.64072E-05  1504   0.314E-02
  16 F= -.48179367E+03 E0= -.48177589E+03  d E =-.466320E-01
 trial-energy change:   -0.046632  1 .order   -0.046569   -0.077418   -0.015720
 step:   2.8562(harm=  2.8562)  dis= 0.07173  next Energy=  -481.795605 (dE=-0.486E-01)
 bond charge predicted
       N       E                     dE             d eps       ncg     rms          rms(c)
DAV:   1    -0.481793132396E+03    0.53187E-03   -0.25457E+00  1440   0.334E+00    0.202E-01
DAV:   2    -0.481796060275E+03   -0.29279E-02   -0.32853E-02  2000   0.595E-01    0.188E-01
DAV:   3    -0.481796276839E+03   -0.21656E-03   -0.24193E-03  2112   0.236E-01    0.231E-01
DAV:   4    -0.481795803697E+03    0.47314E-03   -0.70034E-04  1808   0.106E-01    0.939E-02
DAV:   5    -0.481795832381E+03   -0.28684E-04   -0.51804E-04  1928   0.182E-01    0.785E-02
DAV:   6    -0.481795778970E+03    0.53412E-04   -0.26892E-04  1488   0.143E-01    0.205E-02
DAV:   7    -0.481795789274E+03   -0.10304E-04   -0.39678E-05  1080   0.256E-02    0.784E-03
DAV:   8    -0.481795793350E+03   -0.40760E-05   -0.76172E-06   968   0.145E-02
  17 F= -.48179579E+03 E0= -.48177806E+03  d E =-.487603E-01
 curvature:  -6.20 expect dE=-0.169E+00 dE for cont linesearch -0.273E-05
 trial: gam= 0.79772 g(F)=  0.268E-01 g(S)=  0.479E-03 ort = 0.255E-03 (trialstep = 0.239E+01)
 search vector abs. value=  0.122E+00
 bond charge predicted
       N       E                     dE             d eps       ncg     rms          rms(c)
DAV:   1    -0.481793674910E+03    0.21144E-02   -0.35207E+01  1432   0.126E+01    0.817E-01
DAV:   2    -0.481854778730E+03   -0.61104E-01   -0.52552E-01  1928   0.246E+00    0.165E+00
DAV:   3    -0.481839447419E+03    0.15331E-01   -0.61460E-02  1744   0.794E-01    0.750E-01
DAV:   4    -0.481834641576E+03    0.48058E-02   -0.12493E-02  1976   0.785E-01    0.388E-01
DAV:   5    -0.481834113375E+03    0.52820E-03   -0.92346E-03  2056   0.845E-01    0.318E-01
DAV:   6    -0.481833457482E+03    0.65589E-03   -0.38237E-03  1984   0.452E-01    0.993E-02
DAV:   7    -0.481833481597E+03   -0.24115E-04   -0.62887E-04  1664   0.711E-02    0.410E-02
DAV:   8    -0.481833487274E+03   -0.56776E-05   -0.73511E-05  1640   0.328E-02
  18 F= -.48183349E+03 E0= -.48181687E+03  d E =-.376939E-01
 trial-energy change:   -0.037694  1 .order   -0.037663   -0.065839   -0.009486
 step:   2.7949(harm=  2.7949)  dis= 0.06390  next Energy=  -481.834254 (dE=-0.385E-01)
 bond charge predicted
       N       E                     dE             d eps       ncg     rms          rms(c)
DAV:   1    -0.481833310121E+03    0.17148E-03   -0.99312E-01  1432   0.210E+00    0.140E-01
DAV:   2    -0.481834928763E+03   -0.16186E-02   -0.13395E-02  1976   0.383E-01    0.258E-01
DAV:   3    -0.481834430464E+03    0.49830E-03   -0.13848E-03  1768   0.134E-01    0.121E-01
DAV:   4    -0.481834336905E+03    0.93559E-04   -0.31059E-04  1728   0.115E-01    0.601E-02
DAV:   5    -0.481834339522E+03   -0.26173E-05   -0.26869E-04  1848   0.144E-01    0.532E-02
DAV:   6    -0.481834319257E+03    0.20265E-04   -0.10553E-04  1288   0.878E-02    0.101E-02
DAV:   7    -0.481834325339E+03   -0.60824E-05   -0.17584E-05  1056   0.133E-02
  19 F= -.48183433E+03 E0= -.48181795E+03  d E =-.385320E-01
 curvature:  -6.18 expect dE=-0.170E+00 dE for cont linesearch -0.204E-06
 trial: gam= 1.03545 g(F)=  0.271E-01 g(S)=  0.437E-03 ort = 0.634E-04 (trialstep = 0.190E+01)
 search vector abs. value=  0.158E+00
 bond charge predicted
       N       E                     dE             d eps       ncg     rms          rms(c)
DAV:   1    -0.481842399915E+03   -0.80807E-02   -0.29054E+01  1416   0.112E+01    0.671E-01
DAV:   2    -0.481875582836E+03   -0.33183E-01   -0.36610E-01  1984   0.188E+00    0.615E-01
DAV:   3    -0.481877507695E+03   -0.19249E-02   -0.23102E-02  2200   0.822E-01    0.803E-01
DAV:   4    -0.481872890969E+03    0.46167E-02   -0.86079E-03  1776   0.323E-01    0.331E-01
DAV:   5    -0.481872874641E+03    0.16328E-04   -0.55461E-03  2040   0.598E-01    0.263E-01
DAV:   6    -0.481872258002E+03    0.61664E-03   -0.29069E-03  2008   0.462E-01    0.802E-02
DAV:   7    -0.481872297842E+03   -0.39840E-04   -0.42314E-04  1920   0.787E-02    0.290E-02
DAV:   8    -0.481872300298E+03   -0.24564E-05   -0.48445E-05  1304   0.261E-02
  20 F= -.48187230E+03 E0= -.48185650E+03  d E =-.379750E-01
 trial-energy change:   -0.037975  1 .order   -0.037834   -0.052502   -0.023167
 step:   3.3333(harm=  3.4055)  dis= 0.08810  next Energy=  -481.881068 (dE=-0.467E-01)
 bond charge predicted
       N       E                     dE             d eps       ncg     rms          rms(c)
DAV:   1    -0.481865216387E+03    0.70815E-02   -0.16392E+01  1408   0.837E+00    0.499E-01
DAV:   2    -0.481883097804E+03   -0.17881E-01   -0.19740E-01  1992   0.134E+00    0.441E-01
DAV:   3    -0.481884563533E+03   -0.14657E-02   -0.11711E-02  2088   0.465E-01    0.617E-01
DAV:   4    -0.481881594556E+03    0.29690E-02   -0.46734E-03  1816   0.250E-01    0.216E-01
DAV:   5    -0.481881674901E+03   -0.80345E-04   -0.20328E-03  2008   0.311E-01    0.160E-01
DAV:   6    -0.481881494765E+03    0.18014E-03   -0.15495E-03  2008   0.343E-01    0.777E-02
DAV:   7    -0.481881471770E+03    0.22995E-04   -0.25802E-04  1664   0.125E-01    0.200E-02
DAV:   8    -0.481881481309E+03   -0.95383E-05   -0.35321E-05  1104   0.181E-02
  21 F= -.48188148E+03 E0= -.48186606E+03  d E =-.471560E-01
 curvature:  -9.73 expect dE=-0.245E+00 dE for cont linesearch -0.151E-04
 trial: gam= 0.89758 g(F)=  0.247E-01 g(S)=  0.416E-03 ort = 0.495E-03 (trialstep = 0.219E+01)
 search vector abs. value=  0.153E+00
 bond charge predicted
       N       E                     dE             d eps       ncg     rms          rms(c)
DAV:   1    -0.481882112091E+03   -0.64032E-03   -0.38119E+01  1424   0.126E+01    0.900E-01
DAV:   2    -0.481950252705E+03   -0.68141E-01   -0.51207E-01  1968   0.219E+00    0.162E+00
DAV:   3    -0.481920505035E+03    0.29748E-01   -0.58145E-02  2048   0.103E+00    0.565E-01
DAV:   4    -0.481918332639E+03    0.21724E-02   -0.78963E-03  1752   0.304E-01    0.311E-01
DAV:   5    -0.481918601418E+03   -0.26878E-03   -0.41469E-03  1936   0.287E-01    0.291E-01
DAV:   6    -0.481917996274E+03    0.60514E-03   -0.22658E-03  2008   0.327E-01    0.106E-01
DAV:   7    -0.481917943394E+03    0.52881E-04   -0.70634E-04  1952   0.219E-01    0.515E-02
DAV:   8    -0.481917943405E+03   -0.10943E-07   -0.85343E-05  1424   0.640E-02
  22 F= -.48191794E+03 E0= -.48190361E+03  d E =-.364621E-01
 trial-energy change:   -0.036462  1 .order   -0.036209   -0.056037   -0.016381
 step:   3.0474(harm=  3.0931)  dis= 0.08089  next Energy=  -481.921171 (dE=-0.397E-01)
 bond charge predicted
       N       E                     dE             d eps       ncg     rms          rms(c)
DAV:   1    -0.481915848708E+03    0.20947E-02   -0.58268E+00  1408   0.490E+00    0.344E-01
DAV:   2    -0.481926304491E+03   -0.10456E-01   -0.77287E-02  1936   0.832E-01    0.685E-01
DAV:   3    -0.481921870425E+03    0.44341E-02   -0.91810E-03  1960   0.374E-01    0.248E-01
DAV:   4    -0.481921456225E+03    0.41420E-03   -0.14285E-03  1856   0.165E-01    0.119E-01
DAV:   5    -0.481921505550E+03   -0.49325E-04   -0.87635E-04  2056   0.226E-01    0.105E-01
DAV:   6    -0.481921415689E+03    0.89860E-04   -0.52972E-04  1648   0.204E-01    0.419E-02
DAV:   7    -0.481921413950E+03    0.17399E-05   -0.68202E-05  1184   0.507E-02
  23 F= -.48192141E+03 E0= -.48190767E+03  d E =-.399326E-01
 curvature:  -9.24 expect dE=-0.247E+00 dE for cont linesearch -0.987E-05
 trial: gam= 1.07619 g(F)=  0.267E-01 g(S)=  0.140E-04 ort = 0.405E-03 (trialstep = 0.176E+01)
 search vector abs. value=  0.205E+00
 bond charge predicted
       N       E                     dE             d eps       ncg     rms          rms(c)
DAV:   1    -0.481924245157E+03   -0.28295E-02   -0.33766E+01  1408   0.115E+01    0.853E-01
DAV:   2    -0.481984985163E+03   -0.60740E-01   -0.44932E-01  1936   0.204E+00    0.158E+00
DAV:   3    -0.481957776182E+03    0.27209E-01   -0.51359E-02  1952   0.941E-01    0.520E-01
DAV:   4    -0.481956038161E+03    0.17380E-02   -0.75089E-03  1832   0.333E-01    0.302E-01
DAV:   5    -0.481956083125E+03   -0.44964E-04   -0.34117E-03  2048   0.358E-01    0.247E-01
DAV:   6    -0.481955679968E+03    0.40316E-03   -0.20113E-03  2032   0.349E-01    0.842E-02
DAV:   7    -0.481955653041E+03    0.26927E-04   -0.46262E-04  1744   0.172E-01    0.467E-02
DAV:   8    -0.481955658192E+03   -0.51513E-05   -0.69217E-05  1272   0.529E-02
  24 F= -.48195566E+03 E0= -.48194355E+03  d E =-.342442E-01
 trial-energy change:   -0.034244  1 .order   -0.034259   -0.047833   -0.020686
 step:   3.1092(harm=  3.1092)  dis= 0.09794  next Energy=  -481.963554 (dE=-0.421E-01)
 bond charge predicted
       N       E                     dE             d eps       ncg     rms          rms(c)
DAV:   1    -0.481945131002E+03    0.10522E-01   -0.19545E+01  1408   0.877E+00    0.646E-01
DAV:   2    -0.481980874140E+03   -0.35743E-01   -0.25910E-01  1912   0.156E+00    0.126E+00
DAV:   3    -0.481964604231E+03    0.16270E-01   -0.30279E-02  1864   0.701E-01    0.404E-01
DAV:   4    -0.481963559509E+03    0.10447E-02   -0.48019E-03  1864   0.302E-01    0.231E-01
DAV:   5    -0.481963660667E+03   -0.10116E-03   -0.28317E-03  2080   0.422E-01    0.201E-01
DAV:   6    -0.481963342200E+03    0.31847E-03   -0.17880E-03  2032   0.367E-01    0.792E-02
DAV:   7    -0.481963319594E+03    0.22606E-04   -0.24795E-04  1712   0.920E-02    0.292E-02
DAV:   8    -0.481963334658E+03   -0.15064E-04   -0.35688E-05  1160   0.189E-02    0.139E-02
DAV:   9    -0.481963346563E+03   -0.11905E-04   -0.82340E-06   920   0.140E-02    0.595E-03
DAV:  10    -0.481963353550E+03   -0.69865E-05   -0.31872E-06   968   0.109E-02
  25 F= -.48196335E+03 E0= -.48195268E+03  d E =-.419396E-01
 curvature: -11.77 expect dE=-0.338E+00 dE for cont linesearch -0.136E-04
 trial: gam= 1.09532 g(F)=  0.283E-01 g(S)=  0.442E-03 ort =-0.488E-03 (trialstep = 0.152E+01)
 search vector abs. value=  0.274E+00
 bond charge predicted
       N       E                     dE             d eps       ncg     rms          rms(c)
DAV:   1    -0.481964987914E+03   -0.16414E-02   -0.34105E+01  1408   0.112E+01    0.930E-01
DAV:   2    -0.482043304459E+03   -0.78317E-01   -0.48266E-01  1960   0.214E+00    0.195E+00
DAV:   3    -0.481996713650E+03    0.46591E-01   -0.66283E-02  1912   0.109E+00    0.438E-01
DAV:   4    -0.481995600977E+03    0.11127E-02   -0.97421E-03  1896   0.404E-01    0.290E-01
DAV:   5    -0.481995858162E+03   -0.25719E-03   -0.48459E-03  2088   0.558E-01    0.253E-01
DAV:   6    -0.481995332606E+03    0.52556E-03   -0.28604E-03  2040   0.467E-01    0.869E-02
DAV:   7    -0.481995344251E+03   -0.11645E-04   -0.41370E-04  1928   0.110E-01    0.501E-02
DAV:   8    -0.481995353285E+03   -0.90337E-05   -0.69947E-05  1320   0.296E-02
  26 F= -.48199535E+03 E0= -.48198542E+03  d E =-.319997E-01
 trial-energy change:   -0.032000  1 .order   -0.031973   -0.042970   -0.020975
 step:   2.9769(harm=  2.9769)  dis= 0.11205  next Energy=  -482.005327 (dE=-0.420E-01)
 bond charge predicted
       N       E                     dE             d eps       ncg     rms          rms(c)
DAV:   1    -0.481977411908E+03    0.17932E-01   -0.30992E+01  1408   0.107E+01    0.890E-01
DAV:   2    -0.482049296420E+03   -0.71885E-01   -0.43765E-01  1952   0.203E+00    0.190E+00
DAV:   3    -0.482006197565E+03    0.43099E-01   -0.60661E-02  1912   0.104E+00    0.418E-01
DAV:   4    -0.482005162668E+03    0.10349E-02   -0.87256E-03  1896   0.386E-01    0.283E-01
DAV:   5    -0.482005368368E+03   -0.20570E-03   -0.43840E-03  2104   0.531E-01    0.241E-01
DAV:   6    -0.482004910245E+03    0.45812E-03   -0.26023E-03  2032   0.444E-01    0.848E-02
DAV:   7    -0.482004919001E+03   -0.87564E-05   -0.37584E-04  1872   0.108E-01    0.463E-02
DAV:   8    -0.482004934046E+03   -0.15045E-04   -0.61681E-05  1288   0.279E-02    0.225E-02
DAV:   9    -0.482004950149E+03   -0.16102E-04   -0.12614E-05  1000   0.174E-02    0.977E-03
DAV:  10    -0.482004962722E+03   -0.12573E-04   -0.41938E-06   976   0.124E-02    0.274E-03
DAV:  11    -0.482004973856E+03   -0.11134E-04   -0.24553E-06   952   0.583E-03    0.184E-03
DAV:  12    -0.482004985166E+03   -0.11311E-04   -0.16332E-06   968   0.565E-03    0.117E-03
DAV:  13    -0.482004993157E+03   -0.79902E-05   -0.10596E-06   968   0.398E-03
  27 F= -.48200499E+03 E0= -.48199595E+03  d E =-.416396E-01
 curvature: -14.45 expect dE=-0.403E+00 dE for cont linesearch -0.137E-04
 trial: gam= 0.88594 g(F)=  0.274E-01 g(S)=  0.410E-03 ort =-0.510E-03 (trialstep = 0.181E+01)
 search vector abs. value=  0.242E+00
 bond charge predicted
       N       E                     dE             d eps       ncg     rms          rms(c)
DAV:   1    -0.482002842991E+03    0.21422E-02   -0.43468E+01  1408   0.123E+01    0.104E+00
DAV:   2    -0.482099485050E+03   -0.96642E-01   -0.58646E-01  1960   0.236E+00    0.219E+00
DAV:   3    -0.482040259372E+03    0.59226E-01   -0.82759E-02  1936   0.125E+00    0.457E-01
DAV:   4    -0.482038768594E+03    0.14908E-02   -0.12304E-02  1888   0.428E-01    0.296E-01
DAV:   5    -0.482039022686E+03   -0.25409E-03   -0.55398E-03  2080   0.570E-01    0.258E-01
DAV:   6    -0.482038485436E+03    0.53725E-03   -0.30050E-03  2040   0.476E-01    0.901E-02
DAV:   7    -0.482038500625E+03   -0.15189E-04   -0.44464E-04  1928   0.121E-01    0.533E-02
DAV:   8    -0.482038512097E+03   -0.11472E-04   -0.76330E-05  1368   0.317E-02    0.281E-02
DAV:   9    -0.482038521082E+03   -0.89846E-05   -0.16208E-05  1024   0.198E-02
  28 F= -.48203852E+03 E0= -.48203061E+03  d E =-.335279E-01
 trial-energy change:   -0.033528  1 .order   -0.033318   -0.049726   -0.016911
 step:   2.6990(harm=  2.7494)  dis= 0.09828  next Energy=  -482.042668 (dE=-0.377E-01)
 bond charge predicted
       N       E                     dE             d eps       ncg     rms          rms(c)
DAV:   1    -0.482034326658E+03    0.41854E-02   -0.10248E+01  1408   0.599E+00    0.495E-01
DAV:   2    -0.482057788197E+03   -0.23462E-01   -0.13666E-01  1944   0.112E+00    0.118E+00
DAV:   3    -0.482043291580E+03    0.14497E-01   -0.19173E-02  1880   0.580E-01    0.250E-01
DAV:   4    -0.482042892293E+03    0.39929E-03   -0.28812E-03  1872   0.232E-01    0.162E-01
DAV:   5    -0.482042902338E+03   -0.10045E-04   -0.14893E-03  2096   0.299E-01    0.130E-01
DAV:   6    -0.482042770034E+03    0.13230E-03   -0.80135E-04  1704   0.246E-01    0.494E-02
DAV:   7    -0.482042770506E+03   -0.47175E-06   -0.11077E-04  1432   0.590E-02    0.202E-02
DAV:   8    -0.482042781298E+03   -0.10791E-04   -0.17106E-05  1048   0.142E-02    0.808E-03
DAV:   9    -0.482042790315E+03   -0.90172E-05   -0.44674E-06   944   0.904E-03
  29 F= -.48204279E+03 E0= -.48203519E+03  d E =-.377972E-01
 curvature: -12.10 expect dE=-0.276E+00 dE for cont linesearch -0.687E-05
 trial: gam= 0.76149 g(F)=  0.226E-01 g(S)=  0.186E-03 ort = 0.371E-03 (trialstep = 0.199E+01)
 search vector abs. value=  0.164E+00
 bond charge predicted
       N       E                     dE             d eps       ncg     rms          rms(c)
DAV:   1    -0.482043800159E+03   -0.10189E-02   -0.36260E+01  1408   0.109E+01    0.765E-01
DAV:   2    -0.482096966916E+03   -0.53167E-01   -0.42814E-01  1912   0.193E+00    0.141E+00
DAV:   3    -0.482077333186E+03    0.19634E-01   -0.37845E-02  1984   0.802E-01    0.478E-01
DAV:   4    -0.482075499142E+03    0.18340E-02   -0.60888E-03  1848   0.331E-01    0.275E-01
DAV:   5    -0.482075358786E+03    0.14036E-03   -0.36054E-03  2056   0.389E-01    0.213E-01
DAV:   6    -0.482075055332E+03    0.30345E-03   -0.19686E-03  2032   0.365E-01    0.862E-02
DAV:   7    -0.482075012399E+03    0.42932E-04   -0.33456E-04  1720   0.136E-01    0.326E-02
DAV:   8    -0.482075033435E+03   -0.21035E-04   -0.40937E-05  1184   0.239E-02    0.155E-02
DAV:   9    -0.482075054163E+03   -0.20728E-04   -0.14162E-05   984   0.162E-02    0.652E-03
DAV:  10    -0.482075063976E+03   -0.98132E-05   -0.39762E-06   968   0.127E-02
  30 F= -.48207506E+03 E0= -.48206817E+03  d E =-.322737E-01
 trial-energy change:   -0.032274  1 .order   -0.032003   -0.045994   -0.018012
 step:   3.1649(harm=  3.2732)  dis= 0.09702  next Energy=  -482.080427 (dE=-0.376E-01)
 bond charge predicted
       N       E                     dE             d eps       ncg     rms          rms(c)
DAV:   1    -0.482069745424E+03    0.53087E-02   -0.12518E+01  1408   0.642E+00    0.440E-01
DAV:   2    -0.482087891256E+03   -0.18146E-01   -0.14831E-01  1928   0.116E+00    0.847E-01
DAV:   3    -0.482081549011E+03    0.63422E-02   -0.12511E-02  1880   0.443E-01    0.302E-01
DAV:   4    -0.482080854766E+03    0.69424E-03   -0.25059E-03  1920   0.282E-01    0.172E-01
DAV:   5    -0.482080833958E+03    0.20808E-04   -0.20939E-03  2080   0.387E-01    0.148E-01
DAV:   6    -0.482080630272E+03    0.20369E-03   -0.10621E-03  1976   0.272E-01    0.463E-02
DAV:   7    -0.482080639557E+03   -0.92847E-05   -0.13178E-04  1520   0.374E-02    0.183E-02
DAV:   8    -0.482080651641E+03   -0.12084E-04   -0.13435E-05   992   0.116E-02    0.775E-03
DAV:   9    -0.482080664724E+03   -0.13082E-04   -0.45147E-06   952   0.743E-03    0.345E-03
DAV:  10    -0.482080671965E+03   -0.72413E-05   -0.16964E-06   976   0.560E-03
  31 F= -.48208067E+03 E0= -.48207410E+03  d E =-.378816E-01
 curvature: -11.51 expect dE=-0.316E+00 dE for cont linesearch -0.229E-04
 trial: gam= 1.20458 g(F)=  0.273E-01 g(S)=  0.220E-03 ort = 0.571E-03 (trialstep = 0.137E+01)
 search vector abs. value=  0.266E+00
 bond charge predicted
       N       E                     dE             d eps       ncg     rms          rms(c)
DAV:   1    -0.482087897669E+03   -0.72329E-02   -0.28452E+01  1416   0.937E+00    0.544E-01
DAV:   2    -0.482118821896E+03   -0.30924E-01   -0.30720E-01  1976   0.155E+00    0.768E-01
DAV:   3    -0.482115209752E+03    0.36121E-02   -0.16111E-02  2080   0.512E-01    0.484E-01
DAV:   4    -0.482113349239E+03    0.18605E-02   -0.29912E-03  1704   0.208E-01    0.217E-01
DAV:   5    -0.482113316524E+03    0.32715E-04   -0.23919E-03  1976   0.229E-01    0.143E-01
DAV:   6    -0.482113204367E+03    0.11216E-03   -0.11194E-03  2016   0.266E-01    0.726E-02
DAV:   7    -0.482113172240E+03    0.32127E-04   -0.23405E-04  1344   0.127E-01    0.241E-02
DAV:   8    -0.482113189591E+03   -0.17350E-04   -0.36092E-05  1112   0.221E-02    0.107E-02
DAV:   9    -0.482113206221E+03   -0.16630E-04   -0.10042E-05   968   0.133E-02    0.423E-03
DAV:  10    -0.482113214958E+03   -0.87364E-05   -0.33599E-06   984   0.923E-03
  32 F= -.48211321E+03 E0= -.48210649E+03  d E =-.325430E-01
 trial-energy change:   -0.032543  1 .order   -0.032345   -0.038526   -0.026164
 step:   3.6698(harm=  4.2629)  dis= 0.14565  next Energy=  -482.136172 (dE=-0.555E-01)
 bond charge predicted
       N       E                     dE             d eps       ncg     rms          rms(c)
DAV:   1    -0.482055850382E+03    0.57356E-01   -0.81537E+01  1408   0.158E+01    0.995E-01
DAV:   2    -0.482162279605E+03   -0.10643E+00   -0.10431E+00  2000   0.307E+00    0.145E+00
DAV:   3    -0.482145933820E+03    0.16346E-01   -0.64222E-02  2184   0.140E+00    0.830E-01
DAV:   4    -0.482141447133E+03    0.44867E-02   -0.11842E-02  1856   0.538E-01    0.475E-01
DAV:   5    -0.482140170762E+03    0.12764E-02   -0.97384E-03  2040   0.765E-01    0.305E-01
DAV:   6    -0.482139579717E+03    0.59104E-03   -0.45642E-03  2016   0.477E-01    0.993E-02
DAV:   7    -0.482139647071E+03   -0.67354E-04   -0.64634E-04  1896   0.848E-02    0.353E-02
DAV:   8    -0.482139676832E+03   -0.29761E-04   -0.73893E-05  1376   0.244E-02    0.183E-02
DAV:   9    -0.482139712816E+03   -0.35983E-04   -0.15970E-05  1016   0.139E-02    0.687E-03
DAV:  10    -0.482139733966E+03   -0.21150E-04   -0.43608E-06   968   0.895E-03    0.290E-03
DAV:  11    -0.482139758762E+03   -0.24796E-04   -0.28520E-06   960   0.680E-03    0.164E-03
DAV:  12    -0.482139784118E+03   -0.25356E-04   -0.24769E-06   992   0.577E-03    0.118E-03
DAV:  13    -0.482139799019E+03   -0.14901E-04   -0.19029E-06   984   0.464E-03    0.104E-03
DAV:  14    -0.482139810949E+03   -0.11930E-04   -0.19022E-06   936   0.421E-03    0.703E-04
DAV:  15    -0.482139815475E+03   -0.45256E-05   -0.12534E-06   976   0.352E-03
  33 F= -.48213982E+03 E0= -.48213267E+03  d E =-.591435E-01
 curvature: -19.31 expect dE=-0.565E+00 dE for cont linesearch -0.109E-02
 trial: gam= 0.96344 g(F)=  0.290E-01 g(S)=  0.296E-03 ort = 0.388E-02 (trialstep = 0.171E+01)
 search vector abs. value=  0.284E+00
 bond charge predicted
       N       E                     dE             d eps       ncg     rms          rms(c)
DAV:   1    -0.482131134369E+03    0.86766E-02   -0.48094E+01  1424   0.122E+01    0.737E-01
DAV:   2    -0.482187525417E+03   -0.56391E-01   -0.61318E-01  1992   0.258E+00    0.813E-01
DAV:   3    -0.482183893301E+03    0.36321E-02   -0.36003E-02  2176   0.133E+00    0.663E-01
DAV:   4    -0.482181514938E+03    0.23784E-02   -0.73112E-03  1728   0.323E-01    0.425E-01
DAV:   5    -0.482180300125E+03    0.12148E-02   -0.49506E-03  2032   0.514E-01    0.239E-01
DAV:   6    -0.482180020068E+03    0.28006E-03   -0.27843E-03  1984   0.295E-01    0.545E-02
DAV:   7    -0.482180079454E+03   -0.59386E-04   -0.29528E-04  1832   0.507E-02    0.298E-02
DAV:   8    -0.482180087160E+03   -0.77054E-05   -0.34527E-05  1160   0.192E-02
  34 F= -.48218009E+03 E0= -.48217318E+03  d E =-.402717E-01
 trial-energy change:   -0.040272  1 .order   -0.040269   -0.056594   -0.023943
 step:   2.9722(harm=  2.9722)  dis= 0.12105  next Energy=  -482.188862 (dE=-0.490E-01)
 bond charge predicted
       N       E                     dE             d eps       ncg     rms          rms(c)
DAV:   1    -0.482165038369E+03    0.15041E-01   -0.25727E+01  1424   0.894E+00    0.518E-01
DAV:   2    -0.482191789608E+03   -0.26751E-01   -0.29402E-01  1984   0.172E+00    0.516E-01
DAV:   3    -0.482191043562E+03    0.74605E-03   -0.15835E-02  2192   0.828E-01    0.492E-01
DAV:   4    -0.482189529812E+03    0.15137E-02   -0.33535E-03  1784   0.223E-01    0.287E-01
DAV:   5    -0.482189124485E+03    0.40533E-03   -0.28257E-03  2056   0.399E-01    0.179E-01
DAV:   6    -0.482188943699E+03    0.18079E-03   -0.15394E-03  2024   0.249E-01    0.403E-02
DAV:   7    -0.482188986510E+03   -0.42811E-04   -0.16363E-04  1800   0.403E-02    0.214E-02
DAV:   8    -0.482188999431E+03   -0.12921E-04   -0.19097E-05  1072   0.137E-02    0.101E-02
DAV:   9    -0.482189017105E+03   -0.17673E-04   -0.60208E-06   936   0.103E-02    0.351E-03
DAV:  10    -0.482189029430E+03   -0.12325E-04   -0.29027E-06   960   0.649E-03    0.230E-03
DAV:  11    -0.482189043012E+03   -0.13582E-04   -0.17777E-06   912   0.551E-03    0.112E-03
DAV:  12    -0.482189052073E+03   -0.90613E-05   -0.12835E-06   968   0.389E-03
  35 F= -.48218905E+03 E0= -.48218222E+03  d E =-.492366E-01
 curvature: -12.79 expect dE=-0.388E+00 dE for cont linesearch -0.355E-05
 trial: gam= 1.24763 g(F)=  0.303E-01 g(S)=  0.915E-04 ort = 0.281E-03 (trialstep = 0.118E+01)
 search vector abs. value=  0.473E+00
 bond charge predicted
       N       E                     dE             d eps       ncg     rms          rms(c)
DAV:   1    -0.482182678978E+03    0.63640E-02   -0.38220E+01  1440   0.107E+01    0.600E-01
DAV:   2    -0.482222481208E+03   -0.39802E-01   -0.43381E-01  1976   0.202E+00    0.609E-01
DAV:   3    -0.482221218210E+03    0.12630E-02   -0.22080E-02  2184   0.999E-01    0.570E-01
DAV:   4    -0.482219279166E+03    0.19390E-02   -0.44997E-03  1728   0.248E-01    0.332E-01
DAV:   5    -0.482218777395E+03    0.50177E-03   -0.34408E-03  2040   0.430E-01    0.213E-01
DAV:   6    -0.482218587038E+03    0.19036E-03   -0.21243E-03  1976   0.274E-01    0.461E-02
DAV:   7    -0.482218637894E+03   -0.50856E-04   -0.22353E-04  1904   0.483E-02    0.265E-02
DAV:   8    -0.482218642240E+03   -0.43459E-05   -0.24291E-05  1104   0.156E-02
  36 F= -.48221864E+03 E0= -.48221173E+03  d E =-.295902E-01
 trial-energy change:   -0.029590  1 .order   -0.029638   -0.036269   -0.023008
 step:   3.2279(harm=  3.2279)  dis= 0.17111  next Energy=  -482.238650 (dE=-0.496E-01)
 bond charge predicted
       N       E                     dE             d eps       ncg     rms          rms(c)
DAV:   1    -0.482108620442E+03    0.11002E+00   -0.11717E+02  1424   0.187E+01    0.115E+00
DAV:   2    -0.482257239260E+03   -0.14862E+00   -0.15984E+00  2000   0.402E+00    0.125E+00
DAV:   3    -0.482248010285E+03    0.92290E-02   -0.89380E-02  2176   0.217E+00    0.104E+00
DAV:   4    -0.482242584188E+03    0.54261E-02   -0.17015E-02  1720   0.458E-01    0.635E-01
DAV:   5    -0.482240023869E+03    0.25603E-02   -0.96800E-03  2008   0.690E-01    0.390E-01
DAV:   6    -0.482239261891E+03    0.76198E-03   -0.71391E-03  1976   0.469E-01    0.916E-02
DAV:   7    -0.482239429108E+03   -0.16722E-03   -0.81527E-04  1936   0.100E-01    0.495E-02
DAV:   8    -0.482239451601E+03   -0.22493E-04   -0.82370E-05  1520   0.322E-02    0.230E-02
DAV:   9    -0.482239493722E+03   -0.42121E-04   -0.30069E-05  1152   0.205E-02    0.679E-03
DAV:  10    -0.482239519647E+03   -0.25925E-04   -0.51601E-06   960   0.966E-03    0.371E-03
DAV:  11    -0.482239552478E+03   -0.32830E-04   -0.36544E-06   984   0.685E-03    0.181E-03
DAV:  12    -0.482239584038E+03   -0.31560E-04   -0.25908E-06   992   0.522E-03    0.125E-03
DAV:  13    -0.482239604337E+03   -0.20299E-04   -0.22378E-06  1000   0.434E-03    0.923E-04
DAV:  14    -0.482239617898E+03   -0.13561E-04   -0.16208E-06   960   0.387E-03    0.575E-04
DAV:  15    -0.482239621726E+03   -0.38281E-05   -0.87660E-07   992   0.305E-03
  37 F= -.48223962E+03 E0= -.48223246E+03  d E =-.505697E-01
 curvature: -24.84 expect dE=-0.772E+00 dE for cont linesearch -0.403E-04
 trial: gam= 0.79019 g(F)=  0.306E-01 g(S)=  0.485E-03 ort = 0.876E-03 (trialstep = 0.159E+01)
 search vector abs. value=  0.328E+00
 bond charge predicted
       N       E                     dE             d eps       ncg     rms          rms(c)
DAV:   1    -0.482229187686E+03    0.10430E-01   -0.47461E+01  1424   0.120E+01    0.735E-01
DAV:   2    -0.482277696911E+03   -0.48509E-01   -0.52518E-01  1976   0.204E+00    0.718E-01
DAV:   3    -0.482277998441E+03   -0.30153E-03   -0.27204E-02  2168   0.846E-01    0.815E-01
DAV:   4    -0.482273159674E+03    0.48388E-02   -0.69649E-03  1728   0.322E-01    0.328E-01
DAV:   5    -0.482272967033E+03    0.19264E-03   -0.59048E-03  1968   0.588E-01    0.253E-01
DAV:   6    -0.482272375881E+03    0.59115E-03   -0.32433E-03  2008   0.449E-01    0.713E-02
DAV:   7    -0.482272434336E+03   -0.58456E-04   -0.52862E-04  1960   0.751E-02    0.321E-02
DAV:   8    -0.482272440371E+03   -0.60342E-05   -0.51273E-05  1224   0.188E-02
  38 F= -.48227244E+03 E0= -.48226491E+03  d E =-.328186E-01
 trial-energy change:   -0.032819  1 .order   -0.032690   -0.050477   -0.014902
 step:   2.2359(harm=  2.2557)  dis= 0.09723  next Energy=  -482.275478 (dE=-0.359E-01)
 bond charge predicted
       N       E                     dE             d eps       ncg     rms          rms(c)
DAV:   1    -0.482269127427E+03    0.33069E-02   -0.77644E+00  1424   0.487E+00    0.285E-01
DAV:   2    -0.482276375582E+03   -0.72482E-02   -0.81256E-02  1944   0.868E-01    0.236E-01
DAV:   3    -0.482276564373E+03   -0.18879E-03   -0.48346E-03  1968   0.309E-01    0.277E-01
DAV:   4    -0.482276091651E+03    0.47272E-03   -0.11430E-03  1856   0.133E-01    0.153E-01
DAV:   5    -0.482276018913E+03    0.72738E-04   -0.96985E-04  1928   0.257E-01    0.115E-01
DAV:   6    -0.482275917114E+03    0.10180E-03   -0.61850E-04  1912   0.180E-01    0.227E-02
DAV:   7    -0.482275939074E+03   -0.21960E-04   -0.81781E-05  1376   0.255E-02    0.132E-02
DAV:   8    -0.482275948060E+03   -0.89856E-05   -0.96603E-06   976   0.114E-02
  39 F= -.48227595E+03 E0= -.48226824E+03  d E =-.363263E-01
 curvature: -11.63 expect dE=-0.179E+00 dE for cont linesearch -0.305E-04
 trial: gam= 0.47448 g(F)=  0.151E-01 g(S)=  0.235E-03 ort = 0.928E-03 (trialstep = 0.172E+01)
 search vector abs. value=  0.901E-01
 bond charge predicted
       N       E                     dE             d eps       ncg     rms          rms(c)
DAV:   1    -0.482281981248E+03   -0.60422E-02   -0.14659E+01  1408   0.689E+00    0.458E-01
DAV:   2    -0.482297804206E+03   -0.15823E-01   -0.16154E-01  1936   0.116E+00    0.585E-01
DAV:   3    -0.482296281206E+03    0.15230E-02   -0.11657E-02  1912   0.395E-01    0.436E-01
DAV:   4    -0.482294735122E+03    0.15461E-02   -0.27891E-03  1840   0.240E-01    0.172E-01
DAV:   5    -0.482294662669E+03    0.72453E-04   -0.17059E-03  2048   0.267E-01    0.129E-01
DAV:   6    -0.482294546920E+03    0.11575E-03   -0.97712E-04  1928   0.251E-01    0.541E-02
DAV:   7    -0.482294536369E+03    0.10551E-04   -0.14613E-04  1472   0.853E-02    0.201E-02
DAV:   8    -0.482294550089E+03   -0.13720E-04   -0.24294E-05  1080   0.157E-02    0.950E-03
DAV:   9    -0.482294563080E+03   -0.12991E-04   -0.73652E-06   968   0.105E-02    0.351E-03
DAV:  10    -0.482294569640E+03   -0.65603E-05   -0.24459E-06   976   0.841E-03
  40 F= -.48229457E+03 E0= -.48228674E+03  d E =-.186216E-01
 trial-energy change:   -0.018622  1 .order   -0.018550   -0.027179   -0.009922
 step:   2.6707(harm=  2.7073)  dis= 0.05812  next Energy=  -482.297328 (dE=-0.214E-01)
 bond charge predicted
       N       E                     dE             d eps       ncg     rms          rms(c)
DAV:   1    -0.482293458616E+03    0.11045E-02   -0.44820E+00  1408   0.381E+00    0.251E-01
DAV:   2    -0.482298419638E+03   -0.49610E-02   -0.51510E-02  1968   0.688E-01    0.317E-01
DAV:   3    -0.482297983954E+03    0.43568E-03   -0.34498E-03  1736   0.219E-01    0.238E-01
DAV:   4    -0.482297551810E+03    0.43214E-03   -0.10165E-03  1928   0.174E-01    0.108E-01
DAV:   5    -0.482297523912E+03    0.27898E-04   -0.80243E-04  1984   0.236E-01    0.904E-02
DAV:   6    -0.482297448118E+03    0.75795E-04   -0.41281E-04  1584   0.155E-01    0.209E-02
DAV:   7    -0.482297457491E+03   -0.93732E-05   -0.56837E-05  1232   0.222E-02
  41 F= -.48229746E+03 E0= -.48228955E+03  d E =-.215094E-01
 curvature:  -7.70 expect dE=-0.111E+00 dE for cont linesearch -0.866E-06
 trial: gam= 0.95634 g(F)=  0.144E-01 g(S)=  0.512E-05 ort = 0.101E-03 (trialstep = 0.177E+01)
 search vector abs. value=  0.970E-01
 bond charge predicted
       N       E                     dE             d eps       ncg     rms          rms(c)
DAV:   1    -0.482303123692E+03   -0.56756E-02   -0.16700E+01  1424   0.742E+00    0.473E-01
DAV:   2    -0.482321627471E+03   -0.18504E-01   -0.18566E-01  1992   0.127E+00    0.655E-01
DAV:   3    -0.482319222476E+03    0.24050E-02   -0.12599E-02  2008   0.474E-01    0.435E-01
DAV:   4    -0.482317789691E+03    0.14328E-02   -0.24152E-03  1584   0.194E-01    0.189E-01
DAV:   5    -0.482317851504E+03   -0.61813E-04   -0.22913E-03  1944   0.350E-01    0.152E-01
DAV:   6    -0.482317623730E+03    0.22777E-03   -0.12947E-03  1984   0.298E-01    0.530E-02
DAV:   7    -0.482317632586E+03   -0.88563E-05   -0.18919E-04  1504   0.600E-02    0.205E-02
DAV:   8    -0.482317640308E+03   -0.77214E-05   -0.28749E-05  1152   0.159E-02
  42 F= -.48231764E+03 E0= -.48230949E+03  d E =-.201828E-01
 trial-energy change:   -0.020183  1 .order   -0.020190   -0.025786   -0.014595
 step:   4.0842(harm=  4.0842)  dis= 0.08826  next Energy=  -482.327165 (dE=-0.297E-01)
 bond charge predicted
       N       E                     dE             d eps       ncg     rms          rms(c)
DAV:   1    -0.482302021771E+03    0.15611E-01   -0.28472E+01  1424   0.968E+00    0.640E-01
DAV:   2    -0.482335937836E+03   -0.33916E-01   -0.33612E-01  2000   0.185E+00    0.935E-01
DAV:   3    -0.482330044821E+03    0.58930E-02   -0.26491E-02  2080   0.800E-01    0.561E-01
DAV:   4    -0.482327917648E+03    0.21272E-02   -0.52959E-03  1872   0.362E-01    0.294E-01
DAV:   5    -0.482327448906E+03    0.46874E-03   -0.40554E-03  1992   0.488E-01    0.183E-01
DAV:   6    -0.482327260298E+03    0.18861E-03   -0.16749E-03  2000   0.274E-01    0.571E-02
DAV:   7    -0.482327287954E+03   -0.27656E-04   -0.21918E-04  1760   0.433E-02    0.235E-02
DAV:   8    -0.482327299700E+03   -0.11746E-04   -0.31859E-05  1136   0.156E-02    0.116E-02
DAV:   9    -0.482327316718E+03   -0.17017E-04   -0.78659E-06   960   0.101E-02    0.416E-03
DAV:  10    -0.482327328021E+03   -0.11303E-04   -0.22997E-06   960   0.646E-03    0.208E-03
DAV:  11    -0.482327341960E+03   -0.13939E-04   -0.16072E-06   920   0.467E-03    0.116E-03
DAV:  12    -0.482327354736E+03   -0.12777E-04   -0.13045E-06   952   0.365E-03    0.704E-04
DAV:  13    -0.482327363848E+03   -0.91118E-05   -0.10813E-06   952   0.322E-03
  43 F= -.48232736E+03 E0= -.48231887E+03  d E =-.299064E-01
 curvature: -13.62 expect dE=-0.273E+00 dE for cont linesearch -0.629E-06
 trial: gam= 1.36068 g(F)=  0.199E-01 g(S)=  0.673E-04 ort = 0.670E-04 (trialstep = 0.109E+01)
 search vector abs. value=  0.200E+00
 bond charge predicted
       N       E                     dE             d eps       ncg     rms          rms(c)
DAV:   1    -0.482332967016E+03   -0.56123E-02   -0.12885E+01  1424   0.660E+00    0.408E-01
DAV:   2    -0.482346376900E+03   -0.13410E-01   -0.14766E-01  1992   0.120E+00    0.410E-01
DAV:   3    -0.482346451290E+03   -0.74390E-04   -0.92051E-03  2152   0.500E-01    0.441E-01
DAV:   4    -0.482345043081E+03    0.14082E-02   -0.21345E-03  1632   0.182E-01    0.195E-01
DAV:   5    -0.482344927505E+03    0.11558E-03   -0.17725E-03  1960   0.321E-01    0.134E-01
DAV:   6    -0.482344797627E+03    0.12988E-03   -0.82414E-04  1952   0.208E-01    0.327E-02
DAV:   7    -0.482344820694E+03   -0.23067E-04   -0.14225E-04  1608   0.341E-02    0.163E-02
DAV:   8    -0.482344822254E+03   -0.15601E-05   -0.14879E-05  1040   0.145E-02
  44 F= -.48234482E+03 E0= -.48233615E+03  d E =-.174584E-01
 trial-energy change:   -0.017458  1 .order   -0.017484   -0.021817   -0.013151
 step:   2.7315(harm=  2.7315)  dis= 0.08167  next Energy=  -482.354825 (dE=-0.275E-01)
 bond charge predicted
       N       E                     dE             d eps       ncg     rms          rms(c)
DAV:   1    -0.482325600399E+03    0.19220E-01   -0.29752E+01  1424   0.101E+01    0.652E-01
DAV:   2    -0.482360846739E+03   -0.35246E-01   -0.38316E-01  2000   0.212E+00    0.754E-01
DAV:   3    -0.482358457147E+03    0.23896E-02   -0.27537E-02  2192   0.100E+00    0.646E-01
DAV:   4    -0.482355907696E+03    0.25495E-02   -0.59476E-03  1720   0.338E-01    0.349E-01
DAV:   5    -0.482355035897E+03    0.87180E-03   -0.39110E-03  2000   0.460E-01    0.192E-01
DAV:   6    -0.482354874059E+03    0.16184E-03   -0.17076E-03  1984   0.226E-01    0.448E-02
DAV:   7    -0.482354917894E+03   -0.43835E-04   -0.19262E-04  1704   0.402E-02    0.234E-02
DAV:   8    -0.482354924938E+03   -0.70436E-05   -0.24222E-05  1040   0.170E-02
  45 F= -.48235492E+03 E0= -.48234597E+03  d E =-.275611E-01
 curvature: -13.57 expect dE=-0.202E+00 dE for cont linesearch -0.396E-06
 trial: gam= 0.72815 g(F)=  0.146E-01 g(S)=  0.287E-03 ort = 0.763E-04 (trialstep = 0.141E+01)
 search vector abs. value=  0.121E+00
 bond charge predicted
       N       E                     dE             d eps       ncg     rms          rms(c)
DAV:   1    -0.482359465448E+03   -0.45476E-02   -0.13224E+01  1440   0.678E+00    0.388E-01
DAV:   2    -0.482372922218E+03   -0.13457E-01   -0.14763E-01  2000   0.117E+00    0.367E-01
DAV:   3    -0.482373366937E+03   -0.44472E-03   -0.84959E-03  2168   0.443E-01    0.443E-01
DAV:   4    -0.482371959599E+03    0.14073E-02   -0.19473E-03  1664   0.168E-01    0.176E-01
DAV:   5    -0.482371938653E+03    0.20946E-04   -0.17238E-03  2008   0.311E-01    0.132E-01
DAV:   6    -0.482371818815E+03    0.11984E-03   -0.88595E-04  1976   0.223E-01    0.340E-02
DAV:   7    -0.482371839536E+03   -0.20721E-04   -0.10458E-04  1528   0.398E-02    0.152E-02
DAV:   8    -0.482371846027E+03   -0.64909E-05   -0.15431E-05  1048   0.127E-02
  46 F= -.48237185E+03 E0= -.48236271E+03  d E =-.169211E-01
 trial-energy change:   -0.016921  1 .order   -0.016805   -0.021107   -0.012502
 step:   3.1538(harm=  3.4691)  dis= 0.06931  next Energy=  -482.379751 (dE=-0.248E-01)
 bond charge predicted
       N       E                     dE             d eps       ncg     rms          rms(c)
DAV:   1    -0.482361523124E+03    0.10316E-01   -0.20026E+01  1440   0.834E+00    0.491E-01
DAV:   2    -0.482382997190E+03   -0.21474E-01   -0.23379E-01  1984   0.155E+00    0.515E-01
DAV:   3    -0.482382817820E+03    0.17937E-03   -0.15462E-02  2200   0.672E-01    0.531E-01
DAV:   4    -0.482380967652E+03    0.18502E-02   -0.32199E-03  1648   0.231E-01    0.244E-01
DAV:   5    -0.482380643833E+03    0.32382E-03   -0.25129E-03  1992   0.371E-01    0.152E-01
DAV:   6    -0.482380555760E+03    0.88072E-04   -0.10787E-03  1992   0.201E-01    0.334E-02
DAV:   7    -0.482380583964E+03   -0.28203E-04   -0.11921E-04  1640   0.326E-02    0.175E-02
DAV:   8    -0.482380591430E+03   -0.74661E-05   -0.15622E-05  1000   0.128E-02
  47 F= -.48238059E+03 E0= -.48237122E+03  d E =-.256665E-01
 curvature: -13.72 expect dE=-0.214E+00 dE for cont linesearch -0.154E-03
 trial: gam= 0.97514 g(F)=  0.155E-01 g(S)=  0.628E-04 ort = 0.117E-02 (trialstep = 0.160E+01)
 search vector abs. value=  0.133E+00
 bond charge predicted
       N       E                     dE             d eps       ncg     rms          rms(c)
DAV:   1    -0.482381023501E+03   -0.43954E-03   -0.18516E+01  1424   0.814E+00    0.476E-01
DAV:   2    -0.482402268520E+03   -0.21245E-01   -0.23930E-01  2016   0.166E+00    0.415E-01
DAV:   3    -0.482401222363E+03    0.10462E-02   -0.16163E-02  2168   0.882E-01    0.324E-01
DAV:   4    -0.482401068284E+03    0.15408E-03   -0.28121E-03  2008   0.265E-01    0.306E-01
DAV:   5    -0.482400577465E+03    0.49082E-03   -0.16219E-03  1848   0.210E-01    0.183E-01
DAV:   6    -0.482400439046E+03    0.13842E-03   -0.10525E-03  1904   0.168E-01    0.483E-02
DAV:   7    -0.482400455785E+03   -0.16739E-04   -0.13850E-04  1768   0.390E-02    0.235E-02
DAV:   8    -0.482400456719E+03   -0.93447E-06   -0.13854E-05  1040   0.138E-02
  48 F= -.48240046E+03 E0= -.48239084E+03  d E =-.198653E-01
 trial-energy change:   -0.019865  1 .order   -0.019726   -0.026786   -0.012666
 step:   2.9044(harm=  3.0436)  dis= 0.06255  next Energy=  -482.405662 (dE=-0.251E-01)
 bond charge predicted
       N       E                     dE             d eps       ncg     rms          rms(c)
DAV:   1    -0.482393764030E+03    0.66918E-02   -0.12144E+01  1424   0.659E+00    0.381E-01
DAV:   2    -0.482407225891E+03   -0.13462E-01   -0.15132E-01  2016   0.129E+00    0.321E-01
DAV:   3    -0.482406806197E+03    0.41969E-03   -0.92984E-03  2168   0.657E-01    0.291E-01
DAV:   4    -0.482406545881E+03    0.26032E-03   -0.17553E-03  1944   0.196E-01    0.241E-01
DAV:   5    -0.482406244327E+03    0.30155E-03   -0.11485E-03  1904   0.208E-01    0.140E-01
DAV:   6    -0.482406163836E+03    0.80491E-04   -0.71860E-04  1976   0.152E-01    0.374E-02
DAV:   7    -0.482406179583E+03   -0.15748E-04   -0.91218E-05  1608   0.323E-02    0.185E-02
DAV:   8    -0.482406182529E+03   -0.29457E-05   -0.10143E-05   992   0.118E-02
  49 F= -.48240618E+03 E0= -.48239631E+03  d E =-.255911E-01
 curvature: -11.99 expect dE=-0.156E+00 dE for cont linesearch -0.394E-04
 trial: gam= 0.93735 g(F)=  0.125E-01 g(S)=  0.520E-03 ort = 0.660E-03 (trialstep = 0.186E+01)
 search vector abs. value=  0.131E+00
 bond charge predicted
       N       E                     dE             d eps       ncg     rms          rms(c)
DAV:   1    -0.482394413809E+03    0.11766E-01   -0.24735E+01  1424   0.944E+00    0.533E-01
DAV:   2    -0.482429310685E+03   -0.34897E-01   -0.35770E-01  1976   0.186E+00    0.726E-01
DAV:   3    -0.482427234281E+03    0.20764E-02   -0.17402E-02  1888   0.575E-01    0.514E-01
DAV:   4    -0.482425323891E+03    0.19104E-02   -0.47596E-03  2000   0.400E-01    0.293E-01
DAV:   5    -0.482424934416E+03    0.38948E-03   -0.32741E-03  2040   0.460E-01    0.200E-01
DAV:   6    -0.482424753883E+03    0.18053E-03   -0.21180E-03  2008   0.253E-01    0.447E-02
DAV:   7    -0.482424784049E+03   -0.30166E-04   -0.20764E-04  1880   0.463E-02    0.253E-02
DAV:   8    -0.482424785604E+03   -0.15554E-05   -0.24290E-05  1152   0.164E-02
  50 F= -.48242479E+03 E0= -.48241474E+03  d E =-.186031E-01
 trial-energy change:   -0.018603  1 .order   -0.018352   -0.025418   -0.011287
 step:   3.1277(harm=  3.3535)  dis= 0.06369  next Energy=  -482.428688 (dE=-0.225E-01)
 bond charge predicted
       N       E                     dE             d eps       ncg     rms          rms(c)
DAV:   1    -0.482416099652E+03    0.86844E-02   -0.11329E+01  1424   0.639E+00    0.360E-01
DAV:   2    -0.482431615454E+03   -0.15516E-01   -0.15891E-01  1992   0.127E+00    0.496E-01
DAV:   3    -0.482430492834E+03    0.11226E-02   -0.78484E-03  1888   0.395E-01    0.345E-01
DAV:   4    -0.482429695967E+03    0.79687E-03   -0.22351E-03  2000   0.279E-01    0.202E-01
DAV:   5    -0.482429502627E+03    0.19334E-03   -0.14889E-03  2016   0.311E-01    0.133E-01
DAV:   6    -0.482429436395E+03    0.66233E-04   -0.94876E-04  1992   0.166E-01    0.273E-02
DAV:   7    -0.482429451935E+03   -0.15540E-04   -0.83122E-05  1408   0.318E-02    0.169E-02
DAV:   8    -0.482429455462E+03   -0.35270E-05   -0.16475E-05  1080   0.164E-02
  51 F= -.48242946E+03 E0= -.48241933E+03  d E =-.232729E-01
 curvature: -15.73 expect dE=-0.179E+00 dE for cont linesearch -0.149E-03
 trial: gam= 0.80186 g(F)=  0.112E-01 g(S)=  0.973E-04 ort = 0.111E-02 (trialstep = 0.212E+01)
 search vector abs. value=  0.973E-01
 bond charge predicted
       N       E                     dE             d eps       ncg     rms          rms(c)
DAV:   1    -0.482417126951E+03    0.12325E-01   -0.23472E+01  1408   0.931E+00    0.525E-01
DAV:   2    -0.482450021682E+03   -0.32895E-01   -0.34786E-01  2008   0.180E+00    0.581E-01
DAV:   3    -0.482449228098E+03    0.79358E-03   -0.15270E-02  2008   0.594E-01    0.505E-01
DAV:   4    -0.482447528302E+03    0.16998E-02   -0.39872E-03  2000   0.305E-01    0.304E-01
DAV:   5    -0.482447132615E+03    0.39569E-03   -0.31994E-03  1984   0.454E-01    0.205E-01
DAV:   6    -0.482446895597E+03    0.23702E-03   -0.20737E-03  1992   0.268E-01    0.450E-02
DAV:   7    -0.482446929055E+03   -0.33458E-04   -0.22878E-04  1840   0.437E-02    0.254E-02
DAV:   8    -0.482446929251E+03   -0.19566E-06   -0.23704E-05  1128   0.155E-02
  52 F= -.48244693E+03 E0= -.48243665E+03  d E =-.174738E-01
 trial-energy change:   -0.017474  1 .order   -0.017269   -0.025910   -0.008628
 step:   3.0753(harm=  3.1741)  dis= 0.05121  next Energy=  -482.448901 (dE=-0.194E-01)
 bond charge predicted
       N       E                     dE             d eps       ncg     rms          rms(c)
DAV:   1    -0.482443469692E+03    0.34594E-02   -0.47919E+00  1408   0.420E+00    0.236E-01
DAV:   2    -0.482449815594E+03   -0.63459E-02   -0.67414E-02  2016   0.825E-01    0.264E-01
DAV:   3    -0.482449574258E+03    0.24134E-03   -0.31071E-03  2008   0.280E-01    0.224E-01
DAV:   4    -0.482449281181E+03    0.29308E-03   -0.83021E-04  1968   0.143E-01    0.142E-01
DAV:   5    -0.482449187673E+03    0.93508E-04   -0.65483E-04  1920   0.206E-01    0.905E-02
DAV:   6    -0.482449152288E+03    0.35385E-04   -0.40558E-04  1872   0.116E-01    0.179E-02
DAV:   7    -0.482449161011E+03   -0.87224E-05   -0.36747E-05  1232   0.195E-02
  53 F= -.48244916E+03 E0= -.48243886E+03  d E =-.197055E-01
 curvature: -12.51 expect dE=-0.140E+00 dE for cont linesearch -0.279E-04
 trial: gam= 1.03563 g(F)=  0.109E-01 g(S)=  0.242E-03 ort = 0.466E-03 (trialstep = 0.193E+01)
 search vector abs. value=  0.117E+00
 bond charge predicted
       N       E                     dE             d eps       ncg     rms          rms(c)
DAV:   1    -0.482435898855E+03    0.13253E-01   -0.23240E+01  1408   0.928E+00    0.533E-01
DAV:   2    -0.482470096652E+03   -0.34198E-01   -0.35174E-01  2024   0.199E+00    0.740E-01
DAV:   3    -0.482466784011E+03    0.33126E-02   -0.18734E-02  2192   0.779E-01    0.508E-01
DAV:   4    -0.482465243844E+03    0.15402E-02   -0.42017E-03  1880   0.321E-01    0.299E-01
DAV:   5    -0.482464740834E+03    0.50301E-03   -0.27895E-03  2024   0.383E-01    0.175E-01
DAV:   6    -0.482464624215E+03    0.11662E-03   -0.16130E-03  2000   0.223E-01    0.361E-02
DAV:   7    -0.482464660458E+03   -0.36243E-04   -0.17368E-04  1656   0.351E-02    0.211E-02
DAV:   8    -0.482464662951E+03   -0.24936E-05   -0.17104E-05  1080   0.138E-02
  54 F= -.48246466E+03 E0= -.48245364E+03  d E =-.155019E-01
 trial-energy change:   -0.015502  1 .order   -0.015359   -0.022509   -0.008210
 step:   2.9423(harm=  3.0350)  dis= 0.05172  next Energy=  -482.466843 (dE=-0.177E-01)
 bond charge predicted
       N       E                     dE             d eps       ncg     rms          rms(c)
DAV:   1    -0.482459736932E+03    0.49235E-02   -0.64158E+00  1408   0.486E+00    0.274E-01
DAV:   2    -0.482468458280E+03   -0.87213E-02   -0.89543E-02  2000   0.100E+00    0.386E-01
DAV:   3    -0.482467650301E+03    0.80798E-03   -0.51854E-03  2176   0.378E-01    0.263E-01
DAV:   4    -0.482467223510E+03    0.42679E-03   -0.11255E-03  1896   0.172E-01    0.151E-01
DAV:   5    -0.482467109011E+03    0.11450E-03   -0.81086E-04  2024   0.208E-01    0.912E-02
DAV:   6    -0.482467082712E+03    0.26299E-04   -0.43129E-04  1936   0.119E-01    0.182E-02
DAV:   7    -0.482467095165E+03   -0.12453E-04   -0.45505E-05  1272   0.179E-02    0.108E-02
DAV:   8    -0.482467098501E+03   -0.33368E-05   -0.50214E-06   944   0.867E-03
  55 F= -.48246710E+03 E0= -.48245567E+03  d E =-.179375E-01
 curvature: -15.04 expect dE=-0.163E+00 dE for cont linesearch -0.276E-04
 trial: gam= 0.94385 g(F)=  0.105E-01 g(S)=  0.307E-03 ort = 0.463E-03 (trialstep = 0.213E+01)
 search vector abs. value=  0.116E+00
 bond charge predicted
       N       E                     dE             d eps       ncg     rms          rms(c)
DAV:   1    -0.482450451638E+03    0.16644E-01   -0.27998E+01  1408   0.102E+01    0.704E-01
DAV:   2    -0.482507926755E+03   -0.57475E-01   -0.45950E-01  2016   0.240E+00    0.151E+00
DAV:   3    -0.482486043133E+03    0.21884E-01   -0.41078E-02  2016   0.104E+00    0.455E-01
DAV:   4    -0.482484865902E+03    0.11772E-02   -0.77040E-03  1936   0.530E-01    0.344E-01
DAV:   5    -0.482484065189E+03    0.80071E-03   -0.38813E-03  2048   0.445E-01    0.178E-01
DAV:   6    -0.482484019027E+03    0.46161E-04   -0.17086E-03  1992   0.226E-01    0.547E-02
DAV:   7    -0.482484041029E+03   -0.22002E-04   -0.19759E-04  1760   0.450E-02    0.236E-02
DAV:   8    -0.482484043416E+03   -0.23871E-05   -0.22070E-05  1088   0.148E-02
  56 F= -.48248404E+03 E0= -.48247218E+03  d E =-.169449E-01
 trial-energy change:   -0.016945  1 .order   -0.016900   -0.024015   -0.009785
 step:   3.5510(harm=  3.5960)  dis= 0.06012  next Energy=  -482.487317 (dE=-0.202E-01)
 bond charge predicted
       N       E                     dE             d eps       ncg     rms          rms(c)
DAV:   1    -0.482473506263E+03    0.10535E-01   -0.12410E+01  1408   0.679E+00    0.456E-01
DAV:   2    -0.482497428625E+03   -0.23922E-01   -0.18806E-01  2016   0.150E+00    0.102E+00
DAV:   3    -0.482488255550E+03    0.91731E-02   -0.16669E-02  2000   0.625E-01    0.310E-01
DAV:   4    -0.482487739481E+03    0.51607E-03   -0.35409E-03  1952   0.349E-01    0.220E-01
DAV:   5    -0.482487444955E+03    0.29453E-03   -0.18505E-03  2056   0.311E-01    0.117E-01
DAV:   6    -0.482487429967E+03    0.14989E-04   -0.73886E-04  1976   0.156E-01    0.301E-02
DAV:   7    -0.482487445362E+03   -0.15395E-04   -0.80369E-05  1376   0.268E-02    0.149E-02
DAV:   8    -0.482487449221E+03   -0.38585E-05   -0.10565E-05   952   0.116E-02
  57 F= -.48248745E+03 E0= -.48247532E+03  d E =-.203507E-01
 curvature: -18.41 expect dE=-0.178E+00 dE for cont linesearch -0.149E-05
 trial: gam= 0.91117 g(F)=  0.965E-02 g(S)=  0.418E-04 ort = 0.968E-04 (trialstep = 0.241E+01)
 search vector abs. value=  0.106E+00
 bond charge predicted
       N       E                     dE             d eps       ncg     rms          rms(c)
DAV:   1    -0.482457613308E+03    0.29832E-01   -0.32642E+01  1408   0.111E+01    0.746E-01
DAV:   2    -0.482524302824E+03   -0.66690E-01   -0.56831E-01  2000   0.262E+00    0.150E+00
DAV:   3    -0.482503976029E+03    0.20327E-01   -0.44629E-02  1992   0.109E+00    0.533E-01
DAV:   4    -0.482502228919E+03    0.17471E-02   -0.85970E-03  1960   0.551E-01    0.378E-01
DAV:   5    -0.482501297457E+03    0.93146E-03   -0.45792E-03  2056   0.490E-01    0.211E-01
DAV:   6    -0.482501149199E+03    0.14826E-03   -0.22936E-03  1992   0.272E-01    0.680E-02
DAV:   7    -0.482501177372E+03   -0.28174E-04   -0.28571E-04  1872   0.541E-02    0.265E-02
DAV:   8    -0.482501179072E+03   -0.16999E-05   -0.32872E-05  1152   0.173E-02
  58 F= -.48250118E+03 E0= -.48248891E+03  d E =-.137299E-01
 trial-energy change:   -0.013730  1 .order   -0.013591   -0.023612   -0.003570
 step:   2.8252(harm=  2.8451)  dis= 0.04402  next Energy=  -482.501483 (dE=-0.140E-01)
 bond charge predicted
       N       E                     dE             d eps       ncg     rms          rms(c)
DAV:   1    -0.482500473852E+03    0.70352E-03   -0.93899E-01  1408   0.188E+00    0.115E-01
DAV:   2    -0.482501927045E+03   -0.14532E-02   -0.12555E-02  2008   0.363E-01    0.226E-01
DAV:   3    -0.482501571315E+03    0.35573E-03   -0.92673E-04  1952   0.126E-01    0.938E-02
DAV:   4    -0.482501518495E+03    0.52820E-04   -0.15800E-04  1560   0.603E-02    0.505E-02
DAV:   5    -0.482501522559E+03   -0.40640E-05   -0.15672E-04  1456   0.960E-02    0.380E-02
DAV:   6    -0.482501513525E+03    0.90337E-05   -0.79332E-05  1264   0.742E-02
  59 F= -.48250151E+03 E0= -.48248920E+03  d E =-.140643E-01
 curvature: -15.36 expect dE=-0.144E+00 dE for cont linesearch -0.967E-05
 trial: gam= 0.94118 g(F)=  0.930E-02 g(S)=  0.507E-04 ort = 0.258E-03 (trialstep = 0.250E+01)
 search vector abs. value=  0.104E+00
 bond charge predicted
       N       E                     dE             d eps       ncg     rms          rms(c)
DAV:   1    -0.482466761683E+03    0.34761E-01   -0.33657E+01  1408   0.114E+01    0.724E-01
DAV:   2    -0.482533113994E+03   -0.66352E-01   -0.59600E-01  2000   0.255E+00    0.137E+00
DAV:   3    -0.482517790827E+03    0.15323E-01   -0.39697E-02  2032   0.997E-01    0.568E-01
DAV:   4    -0.482515786796E+03    0.20040E-02   -0.76005E-03  1968   0.504E-01    0.382E-01
DAV:   5    -0.482514972458E+03    0.81434E-03   -0.47994E-03  2040   0.520E-01    0.232E-01
DAV:   6    -0.482514729662E+03    0.24280E-03   -0.27586E-03  1984   0.318E-01    0.758E-02
DAV:   7    -0.482514760233E+03   -0.30571E-04   -0.39098E-04  1808   0.571E-02    0.289E-02
DAV:   8    -0.482514765092E+03   -0.48595E-05   -0.43923E-05  1272   0.187E-02
  60 F= -.48251477E+03 E0= -.48250158E+03  d E =-.132516E-01
 trial-energy change:   -0.013252  1 .order   -0.013355   -0.023959   -0.002751
 step:   2.8320(harm=  2.8209)  dis= 0.04131  next Energy=  -482.514949 (dE=-0.134E-01)
 bond charge predicted
       N       E                     dE             d eps       ncg     rms          rms(c)
DAV:   1    -0.482514290330E+03    0.46990E-03   -0.60360E-01  1408   0.152E+00    0.910E-02
DAV:   2    -0.482515197357E+03   -0.90703E-03   -0.84630E-03  2024   0.305E-01    0.161E-01
DAV:   3    -0.482515033794E+03    0.16356E-03   -0.53730E-04  1912   0.104E-01    0.808E-02
DAV:   4    -0.482514995819E+03    0.37975E-04   -0.11343E-04  1400   0.601E-02    0.445E-02
DAV:   5    -0.482514993807E+03    0.20116E-05   -0.96243E-05  1336   0.799E-02
  61 F= -.48251499E+03 E0= -.48250163E+03  d E =-.134803E-01
 curvature: -15.20 expect dE=-0.108E+00 dE for cont linesearch -0.122E-04
 trial: gam= 0.72481 g(F)=  0.707E-02 g(S)=  0.270E-04 ort = 0.289E-03 (trialstep = 0.256E+01)
 search vector abs. value=  0.619E-01
 bond charge predicted
       N       E                     dE             d eps       ncg     rms          rms(c)
DAV:   1    -0.482494610249E+03    0.20386E-01   -0.20798E+01  1408   0.910E+00    0.539E-01
DAV:   2    -0.482528454944E+03   -0.33845E-01   -0.36273E-01  2008   0.189E+00    0.546E-01
DAV:   3    -0.482528024015E+03    0.43093E-03   -0.18095E-02  2128   0.813E-01    0.561E-01
DAV:   4    -0.482526326040E+03    0.16980E-02   -0.36960E-03  1768   0.225E-01    0.336E-01
DAV:   5    -0.482525779955E+03    0.54608E-03   -0.27496E-03  2008   0.393E-01    0.202E-01
DAV:   6    -0.482525566550E+03    0.21341E-03   -0.18773E-03  1960   0.260E-01    0.454E-02
DAV:   7    -0.482525608275E+03   -0.41725E-04   -0.26690E-04  1752   0.433E-02    0.287E-02
DAV:   8    -0.482525607306E+03    0.96838E-06   -0.31247E-05  1128   0.194E-02
  62 F= -.48252561E+03 E0= -.48251194E+03  d E =-.106135E-01
 trial-energy change:   -0.010613  1 .order   -0.010775   -0.018725   -0.002825
 step:   3.0553(harm=  3.0196)  dis= 0.03136  next Energy=  -482.525877 (dE=-0.109E-01)
 bond charge predicted
       N       E                     dE             d eps       ncg     rms          rms(c)
DAV:   1    -0.482524950224E+03    0.65805E-03   -0.76235E-01  1408   0.173E+00    0.101E-01
DAV:   2    -0.482525984964E+03   -0.10347E-02   -0.11239E-02  2000   0.345E-01    0.971E-02
DAV:   3    -0.482525990002E+03   -0.50373E-05   -0.58262E-04  2016   0.140E-01    0.108E-01
DAV:   4    -0.482525921834E+03    0.68168E-04   -0.12576E-04  1360   0.434E-02    0.607E-02
DAV:   5    -0.482525912114E+03    0.97203E-05   -0.10567E-04  1336   0.794E-02    0.382E-02
DAV:   6    -0.482525908203E+03    0.39103E-05   -0.68248E-05  1272   0.562E-02
  63 F= -.48252591E+03 E0= -.48251216E+03  d E =-.109144E-01
 curvature: -12.72 expect dE=-0.844E-01 dE for cont linesearch -0.429E-05
 trial: gam= 0.93134 g(F)=  0.651E-02 g(S)=  0.125E-03 ort = 0.144E-03 (trialstep = 0.266E+01)
 search vector abs. value=  0.606E-01
 bond charge predicted
       N       E                     dE             d eps       ncg     rms          rms(c)
DAV:   1    -0.482502649456E+03    0.23263E-01   -0.21894E+01  1408   0.947E+00    0.589E-01
DAV:   2    -0.482539688307E+03   -0.37039E-01   -0.40434E-01  2024   0.218E+00    0.607E-01
DAV:   3    -0.482538300162E+03    0.13881E-02   -0.24659E-02  2144   0.105E+00    0.584E-01
DAV:   4    -0.482536615381E+03    0.16848E-02   -0.44771E-03  1728   0.240E-01    0.361E-01
DAV:   5    -0.482535814300E+03    0.80108E-03   -0.28416E-03  2024   0.378E-01    0.199E-01
DAV:   6    -0.482535654578E+03    0.15972E-03   -0.16901E-03  1944   0.209E-01    0.462E-02
[...]
DAV:   2    -0.482580360330E+03   -0.10531E-01   -0.66950E-02  1992   0.875E-01    0.825E-01
DAV:   3    -0.482574642394E+03    0.57179E-02   -0.86850E-03  1904   0.388E-01    0.221E-01
DAV:   4    -0.482574363388E+03    0.27901E-03   -0.12997E-03  1840   0.175E-01    0.145E-01
DAV:   5    -0.482574310213E+03    0.53175E-04   -0.11708E-03  2056   0.256E-01    0.909E-02
DAV:   6    -0.482574224413E+03    0.85800E-04   -0.46218E-04  1656   0.180E-01    0.335E-02
DAV:   7    -0.482574227101E+03   -0.26884E-05   -0.64551E-05  1224   0.286E-02
  76 F= -.48257423E+03 E0= -.48256094E+03  d E =-.371916E-02
 trial-energy change:   -0.003719  1 .order   -0.003720   -0.005786   -0.001654
 step:   3.3510(harm=  3.3510)  dis= 0.01521  next Energy=  -482.574559 (dE=-0.405E-02)
 bond charge predicted
       N       E                     dE             d eps       ncg     rms          rms(c)
DAV:   1    -0.482573818264E+03    0.40615E-03   -0.64890E-01  1408   0.175E+00    0.133E-01
DAV:   2    -0.482575538367E+03   -0.17201E-02   -0.10762E-02  1992   0.338E-01    0.339E-01
DAV:   3    -0.482574619872E+03    0.91849E-03   -0.11958E-03  1776   0.133E-01    0.913E-02
DAV:   4    -0.482574583027E+03    0.36846E-04   -0.22133E-04  1776   0.830E-02    0.556E-02
DAV:   5    -0.482574578096E+03    0.49307E-05   -0.16822E-04  1536   0.108E-01    0.400E-02
DAV:   6    -0.482574566964E+03    0.11132E-04   -0.86641E-05  1304   0.783E-02    0.135E-02
DAV:   7    -0.482574568443E+03   -0.14790E-05   -0.12553E-05  1040   0.142E-02
  77 F= -.48257457E+03 E0= -.48256132E+03  d E =-.406050E-02
 curvature: -10.47 expect dE=-0.261E-01 dE for cont linesearch -0.716E-06
 trial: gam= 1.03250 g(F)=  0.233E-02 g(S)=  0.160E-03 ort = 0.321E-04 (trialstep = 0.209E+01)
 search vector abs. value=  0.187E-01
 bond charge predicted
       N       E                     dE             d eps       ncg     rms          rms(c)
DAV:   1    -0.482572828639E+03    0.17383E-02   -0.38293E+00  1408   0.431E+00    0.261E-01
DAV:   2    -0.482579437098E+03   -0.66085E-02   -0.64741E-02  2040   0.875E-01    0.415E-01
DAV:   3    -0.482578419936E+03    0.10172E-02   -0.38131E-03  2096   0.298E-01    0.237E-01
DAV:   4    -0.482578094640E+03    0.32530E-03   -0.10358E-03  1960   0.186E-01    0.141E-01
DAV:   5    -0.482578002785E+03    0.91855E-04   -0.80950E-04  1992   0.225E-01    0.853E-02
DAV:   6    -0.482577961898E+03    0.40888E-04   -0.33525E-04  1952   0.124E-01    0.181E-02
DAV:   7    -0.482577968770E+03   -0.68726E-05   -0.45843E-05  1224   0.170E-02
  78 F= -.48257797E+03 E0= -.48256469E+03  d E =-.340033E-02
 trial-energy change:   -0.003400  1 .order   -0.003410   -0.005289   -0.001530
 step:   2.9436(harm=  2.9436)  dis= 0.01442  next Energy=  -482.578290 (dE=-0.372E-02)
 bond charge predicted
       N       E                     dE             d eps       ncg     rms          rms(c)
DAV:   1    -0.482577523176E+03    0.43872E-03   -0.63586E-01  1408   0.176E+00    0.104E-01
DAV:   2    -0.482578479026E+03   -0.95585E-03   -0.94816E-03  2032   0.316E-01    0.152E-01
DAV:   3    -0.482578369652E+03    0.10937E-03   -0.50481E-04  2024   0.951E-02    0.975E-02
DAV:   4    -0.482578306884E+03    0.62768E-04   -0.11465E-04  1552   0.501E-02    0.480E-02
DAV:   5    -0.482578312505E+03   -0.56211E-05   -0.13139E-04  1376   0.923E-02    0.367E-02
DAV:   6    -0.482578299518E+03    0.12987E-04   -0.73705E-05  1232   0.752E-02    0.907E-03
DAV:   7    -0.482578301805E+03   -0.22865E-05   -0.13341E-05  1000   0.130E-02
  79 F= -.48257830E+03 E0= -.48256501E+03  d E =-.373336E-02
 curvature: -10.87 expect dE=-0.244E-01 dE for cont linesearch -0.400E-05
 trial: gam= 0.88395 g(F)=  0.222E-02 g(S)=  0.293E-04 ort = 0.829E-04 (trialstep = 0.226E+01)
 search vector abs. value=  0.170E-01
 bond charge predicted
       N       E                     dE             d eps       ncg     rms          rms(c)
DAV:   1    -0.482575395106E+03    0.29044E-02   -0.40068E+00  1424   0.447E+00    0.266E-01
DAV:   2    -0.482582431912E+03   -0.70368E-02   -0.73243E-02  2016   0.925E-01    0.353E-01
DAV:   3    -0.482581927935E+03    0.50398E-03   -0.38930E-03  2120   0.331E-01    0.271E-01
DAV:   4    -0.482581470885E+03    0.45705E-03   -0.98433E-04  1896   0.163E-01    0.150E-01
DAV:   5    -0.482581385837E+03    0.85047E-04   -0.87593E-04  2000   0.229E-01    0.984E-02
DAV:   6    -0.482581327329E+03    0.58509E-04   -0.42310E-04  1952   0.139E-01    0.202E-02
DAV:   7    -0.482581335401E+03   -0.80728E-05   -0.57937E-05  1304   0.190E-02
  80 F= -.48258134E+03 E0= -.48256834E+03  d E =-.303360E-02
 trial-energy change:   -0.003034  1 .order   -0.003038   -0.005250   -0.000825
 step:   2.6841(harm=  2.6841)  dis= 0.01190  next Energy=  -482.581416 (dE=-0.311E-02)
 bond charge predicted
       N       E                     dE             d eps       ncg     rms          rms(c)
DAV:   1    -0.482581236846E+03    0.90483E-04   -0.13970E-01  1424   0.834E-01    0.504E-02
DAV:   2    -0.482581448876E+03   -0.21203E-03   -0.22225E-03  2040   0.159E-01    0.597E-02
DAV:   3    -0.482581450852E+03   -0.19765E-05   -0.11991E-04  1584   0.534E-02    0.557E-02
DAV:   4    -0.482581429374E+03    0.21479E-04   -0.30866E-05  1120   0.280E-02    0.241E-02
DAV:   5    -0.482581430680E+03   -0.13062E-05   -0.32920E-05  1040   0.475E-02
  81 F= -.48258143E+03 E0= -.48256845E+03  d E =-.312888E-02
 curvature:  -9.82 expect dE=-0.150E-01 dE for cont linesearch -0.486E-05
 trial: gam= 0.69193 g(F)=  0.151E-02 g(S)=  0.127E-04 ort = 0.917E-04 (trialstep = 0.235E+01)
 search vector abs. value=  0.978E-02
 bond charge predicted
       N       E                     dE             d eps       ncg     rms          rms(c)
DAV:   1    -0.482580621839E+03    0.80753E-03   -0.24514E+00  1424   0.348E+00    0.212E-01
DAV:   2    -0.482584138493E+03   -0.35167E-02   -0.38854E-02  2000   0.646E-01    0.185E-01
DAV:   3    -0.482584298737E+03   -0.16024E-03   -0.20496E-03  2184   0.250E-01    0.240E-01
DAV:   4    -0.482583930555E+03    0.36818E-03   -0.55102E-04  1776   0.906E-02    0.113E-01
DAV:   5    -0.482583912446E+03    0.18110E-04   -0.49044E-04  1928   0.170E-01    0.756E-02
DAV:   6    -0.482583868840E+03    0.43605E-04   -0.24964E-04  1632   0.126E-01    0.178E-02
DAV:   7    -0.482583874926E+03   -0.60859E-05   -0.36611E-05  1128   0.224E-02
  82 F= -.48258387E+03 E0= -.48257145E+03  d E =-.244425E-02
 trial-energy change:   -0.002444  1 .order   -0.002474   -0.003722   -0.001226
 step:   3.4991(harm=  3.4991)  dis= 0.01098  next Energy=  -482.584206 (dE=-0.277E-02)
 bond charge predicted
       N       E                     dE             d eps       ncg     rms          rms(c)
DAV:   1    -0.482583364560E+03    0.50428E-03   -0.59180E-01  1408   0.171E+00    0.104E-01
DAV:   2    -0.482584198422E+03   -0.83386E-03   -0.92261E-03  2016   0.313E-01    0.837E-02
DAV:   3    -0.482584248346E+03   -0.49925E-04   -0.44423E-04  2136   0.111E-01    0.116E-01
DAV:   4    -0.482584159267E+03    0.89080E-04   -0.12871E-04  1376   0.458E-02    0.537E-02
DAV:   5    -0.482584161076E+03   -0.18088E-05   -0.10864E-04  1296   0.792E-02    0.373E-02
DAV:   6    -0.482584149800E+03    0.11276E-04   -0.69115E-05  1240   0.707E-02    0.955E-03
DAV:   7    -0.482584152138E+03   -0.23380E-05   -0.12758E-05  1024   0.164E-02
  83 F= -.48258415E+03 E0= -.48257198E+03  d E =-.272146E-02
 curvature: -10.79 expect dE=-0.197E-01 dE for cont linesearch -0.609E-07
 trial: gam= 1.20538 g(F)=  0.177E-02 g(S)=  0.519E-04 ort = 0.743E-05 (trialstep = 0.157E+01)
 search vector abs. value=  0.160E-01
 bond charge predicted
       N       E                     dE             d eps       ncg     rms          rms(c)
DAV:   1    -0.482583871732E+03    0.27807E-03   -0.18266E+00  1424   0.300E+00    0.186E-01
DAV:   2    -0.482586994628E+03   -0.31229E-02   -0.28965E-02  1976   0.530E-01    0.305E-01
DAV:   3    -0.482586441134E+03    0.55349E-03   -0.18441E-03  1968   0.165E-01    0.168E-01
DAV:   4    -0.482586253272E+03    0.18786E-03   -0.30345E-04  1720   0.703E-02    0.755E-02
DAV:   5    -0.482586251847E+03    0.14251E-05   -0.19954E-04  1936   0.482E-02    0.455E-02
DAV:   6    -0.482586240741E+03    0.11106E-04   -0.36318E-05  1288   0.292E-02    0.101E-02
DAV:   7    -0.482586242292E+03   -0.15515E-05   -0.10841E-05  1024   0.259E-02
  84 F= -.48258624E+03 E0= -.48257416E+03  d E =-.209015E-02
 trial-energy change:   -0.002090  1 .order   -0.002116   -0.002876   -0.001355
 step:   2.9694(harm=  2.9694)  dis= 0.01210  next Energy=  -482.586872 (dE=-0.272E-02)
 bond charge predicted
       N       E                     dE             d eps       ncg     rms          rms(c)
DAV:   1    -0.482584991040E+03    0.12497E-02   -0.14510E+00  1424   0.268E+00    0.167E-01
DAV:   2    -0.482587481784E+03   -0.24907E-02   -0.22899E-02  2000   0.474E-01    0.276E-01
DAV:   3    -0.482587015623E+03    0.46616E-03   -0.14769E-03  1960   0.148E-01    0.149E-01
DAV:   4    -0.482586870454E+03    0.14517E-03   -0.23775E-04  1720   0.619E-02    0.670E-02
DAV:   5    -0.482586869477E+03    0.97711E-06   -0.15600E-04  1880   0.411E-02    0.396E-02
DAV:   6    -0.482586861218E+03    0.82586E-05   -0.27750E-05  1192   0.205E-02
  85 F= -.48258686E+03 E0= -.48257491E+03  d E =-.270908E-02
 curvature: -13.01 expect dE=-0.177E-01 dE for cont linesearch -0.236E-06
 trial: gam= 0.65063 g(F)=  0.133E-02 g(S)=  0.233E-04 ort = 0.170E-04 (trialstep = 0.185E+01)
 search vector abs. value=  0.817E-02
 bond charge predicted
       N       E                     dE             d eps       ncg     rms          rms(c)
DAV:   1    -0.482586800121E+03    0.69355E-04   -0.13027E+00  1440   0.256E+00    0.158E-01
DAV:   2    -0.482588748851E+03   -0.19487E-02   -0.21179E-02  2000   0.462E-01    0.164E-01
DAV:   3    -0.482588807206E+03   -0.58355E-04   -0.11193E-03  2048   0.134E-01    0.184E-01
DAV:   4    -0.482588554812E+03    0.25239E-03   -0.29226E-04  1800   0.683E-02    0.690E-02
DAV:   5    -0.482588556244E+03   -0.14313E-05   -0.15788E-04  1904   0.742E-02    0.450E-02
DAV:   6    -0.482588547051E+03    0.91923E-05   -0.12383E-04  1392   0.905E-02    0.222E-02
DAV:   7    -0.482588543639E+03    0.34121E-05   -0.27305E-05  1016   0.459E-02
  86 F= -.48258854E+03 E0= -.48257671E+03  d E =-.168242E-02
 trial-energy change:   -0.001682  1 .order   -0.001700   -0.002533   -0.000867
 step:   2.8122(harm=  2.8122)  dis= 0.00859  next Energy=  -482.588786 (dE=-0.193E-02)
 bond charge predicted
       N       E                     dE             d eps       ncg     rms          rms(c)
DAV:   1    -0.482588256218E+03    0.29083E-03   -0.35200E-01  1440   0.133E+00    0.824E-02
DAV:   2    -0.482588772399E+03   -0.51618E-03   -0.56743E-03  1984   0.240E-01    0.781E-02
DAV:   3    -0.482588804540E+03   -0.32141E-04   -0.29821E-04  1824   0.634E-02    0.976E-02
DAV:   4    -0.482588732185E+03    0.72355E-04   -0.82146E-05  1328   0.402E-02    0.364E-02
DAV:   5    -0.482588733607E+03   -0.14215E-05   -0.46492E-05  1048   0.519E-02
  87 F= -.48258873E+03 E0= -.48257688E+03  d E =-.187239E-02
 curvature:  -8.40 expect dE=-0.110E-01 dE for cont linesearch -0.915E-06
 trial: gam= 1.01687 g(F)=  0.129E-02 g(S)=  0.152E-04 ort = 0.298E-04 (trialstep = 0.170E+01)
 search vector abs. value=  0.982E-02
 bond charge predicted
       N       E                     dE             d eps       ncg     rms          rms(c)
DAV:   1    -0.482588606319E+03    0.12587E-03   -0.13063E+00  1424   0.255E+00    0.165E-01
DAV:   2    -0.482590782244E+03   -0.21759E-02   -0.21636E-02  1992   0.488E-01    0.237E-01
DAV:   3    -0.482590516785E+03    0.26546E-03   -0.13751E-03  1984   0.165E-01    0.159E-01
DAV:   4    -0.482590350501E+03    0.16628E-03   -0.30327E-04  1736   0.796E-02    0.743E-02
DAV:   5    -0.482590360358E+03   -0.98576E-05   -0.31325E-04  1896   0.138E-01    0.579E-02
DAV:   6    -0.482590333740E+03    0.26618E-04   -0.15819E-04  1336   0.103E-01    0.158E-02
DAV:   7    -0.482590336772E+03   -0.30323E-05   -0.24715E-05  1072   0.174E-02
  88 F= -.48259034E+03 E0= -.48257881E+03  d E =-.160317E-02
 trial-energy change:   -0.001603  1 .order   -0.001684   -0.002276   -0.001091
 step:   3.2653(harm=  3.2653)  dis= 0.01146  next Energy=  -482.590920 (dE=-0.219E-02)
 bond charge predicted
       N       E                     dE             d eps       ncg     rms          rms(c)
DAV:   1    -0.482589357164E+03    0.97658E-03   -0.11090E+00  1424   0.235E+00    0.147E-01
DAV:   2    -0.482591106117E+03   -0.17490E-02   -0.17953E-02  1944   0.426E-01    0.185E-01
DAV:   3    -0.482591010934E+03    0.95183E-04   -0.99703E-04  1736   0.118E-01    0.151E-01
DAV:   4    -0.482590849461E+03    0.16147E-03   -0.25910E-04  1768   0.795E-02    0.664E-02
DAV:   5    -0.482590859335E+03   -0.98745E-05   -0.22809E-04  1784   0.121E-01    0.526E-02
DAV:   6    -0.482590837197E+03    0.22138E-04   -0.13800E-04  1352   0.983E-02    0.154E-02
DAV:   7    -0.482590839409E+03   -0.22114E-05   -0.19009E-05  1072   0.206E-02
  89 F= -.48259084E+03 E0= -.48257951E+03  d E =-.210580E-02
 curvature: -11.97 expect dE=-0.137E-01 dE for cont linesearch -0.395E-05
 trial: gam= 0.76493 g(F)=  0.112E-02 g(S)=  0.252E-04 ort = 0.569E-04 (trialstep = 0.201E+01)
 search vector abs. value=  0.698E-02
 bond charge predicted
       N       E                     dE             d eps       ncg     rms          rms(c)
DAV:   1    -0.482590476581E+03    0.36062E-03   -0.13046E+00  1424   0.255E+00    0.162E-01
DAV:   2    -0.482592315371E+03   -0.18388E-02   -0.21253E-02  1960   0.477E-01    0.115E-01
DAV:   3    -0.482592311663E+03    0.37078E-05   -0.97242E-04  2208   0.191E-01    0.123E-01
DAV:   4    -0.482592270152E+03    0.41511E-04   -0.29689E-04  1864   0.878E-02    0.104E-01
DAV:   5    -0.482592234825E+03    0.35327E-04   -0.22925E-04  1600   0.998E-02    0.604E-02
DAV:   6    -0.482592204280E+03    0.30545E-04   -0.17442E-04  1464   0.105E-01    0.162E-02
DAV:   7    -0.482592206350E+03   -0.20696E-05   -0.20816E-05  1120   0.257E-02
  90 F= -.48259221E+03 E0= -.48258100E+03  d E =-.136694E-02
 trial-energy change:   -0.001367  1 .order   -0.001398   -0.002393   -0.000403
 step:   2.4204(harm=  2.4204)  dis= 0.00753  next Energy=  -482.592278 (dE=-0.144E-02)
 bond charge predicted
       N       E                     dE             d eps       ncg     rms          rms(c)
DAV:   1    -0.482592155839E+03    0.48441E-04   -0.53327E-02  1424   0.517E-01    0.332E-02
DAV:   2    -0.482592235150E+03   -0.79311E-04   -0.89754E-04  2040   0.100E-01    0.213E-02
DAV:   3    -0.482592232605E+03    0.25441E-05   -0.26592E-05  1224   0.296E-02
  91 F= -.48259223E+03 E0= -.48258112E+03  d E =-.139320E-02
 curvature:  -7.11 expect dE=-0.522E-02 dE for cont linesearch -0.957E-06
 trial: gam= 0.71570 g(F)=  0.725E-03 g(S)=  0.989E-05 ort =-0.307E-04 (trialstep = 0.209E+01)
 search vector abs. value=  0.427E-02
 bond charge predicted
       N       E                     dE             d eps       ncg     rms          rms(c)
DAV:   1    -0.482592247324E+03   -0.12175E-04   -0.88044E-01  1424   0.203E+00    0.132E-01
DAV:   2    -0.482593465539E+03   -0.12182E-02   -0.13285E-02  1944   0.358E-01    0.142E-01
DAV:   3    -0.482593480124E+03   -0.14585E-04   -0.78208E-04  1960   0.104E-01    0.151E-01
DAV:   4    -0.482593309629E+03    0.17049E-03   -0.20296E-04  1680   0.599E-02    0.540E-02
DAV:   5    -0.482593314077E+03   -0.44478E-05   -0.10642E-04  1856   0.562E-02    0.363E-02
DAV:   6    -0.482593309752E+03    0.43242E-05   -0.61758E-05  1192   0.647E-02
  92 F= -.48259331E+03 E0= -.48258218E+03  d E =-.107715E-02
 trial-energy change:   -0.001077  1 .order   -0.001078   -0.001494   -0.000663
 step:   3.7649(harm=  3.7649)  dis= 0.00990  next Energy=  -482.593575 (dE=-0.134E-02)
 bond charge predicted
       N       E                     dE             d eps       ncg     rms          rms(c)
DAV:   1    -0.482592795406E+03    0.51867E-03   -0.55892E-01  1408   0.162E+00    0.105E-01
DAV:   2    -0.482593631339E+03   -0.83593E-03   -0.96091E-03  1984   0.343E-01    0.816E-02
DAV:   3    -0.482593608673E+03    0.22666E-04   -0.58961E-04  2096   0.157E-01    0.704E-02
DAV:   4    -0.482593604882E+03    0.37906E-05   -0.12144E-04  1568   0.538E-02    0.700E-02
DAV:   5    -0.482593586267E+03    0.18615E-04   -0.83562E-05  1264   0.647E-02    0.465E-02
DAV:   6    -0.482593574336E+03    0.11931E-04   -0.61747E-05  1240   0.572E-02    0.950E-03
DAV:   7    -0.482593576641E+03   -0.23044E-05   -0.12476E-05  1000   0.133E-02
  93 F= -.48259358E+03 E0= -.48258253E+03  d E =-.134404E-02
 curvature: -11.26 expect dE=-0.106E-01 dE for cont linesearch -0.238E-05
 trial: gam= 1.15464 g(F)=  0.930E-03 g(S)=  0.913E-05 ort = 0.300E-04 (trialstep = 0.155E+01)
 search vector abs. value=  0.670E-02
 bond charge predicted
       N       E                     dE             d eps       ncg     rms          rms(c)
DAV:   1    -0.482593695511E+03   -0.12117E-03   -0.77265E-01  1408   0.187E+00    0.118E-01
DAV:   2    -0.482594756105E+03   -0.10606E-02   -0.12316E-02  1936   0.369E-01    0.918E-02
DAV:   3    -0.482594722879E+03    0.33225E-04   -0.77602E-04  2160   0.179E-01    0.758E-02
DAV:   4    -0.482594718336E+03    0.45430E-05   -0.15680E-04  1576   0.665E-02    0.765E-02
DAV:   5    -0.482594701138E+03    0.17198E-04   -0.11087E-04  1376   0.685E-02    0.576E-02
DAV:   6    -0.482594679452E+03    0.21686E-04   -0.86892E-05  1320   0.661E-02    0.100E-02
DAV:   7    -0.482594681627E+03   -0.21742E-05   -0.14394E-05   944   0.144E-02
  94 F= -.48259468E+03 E0= -.48258383E+03  d E =-.110499E-02
 trial-energy change:   -0.001105  1 .order   -0.001144   -0.001506   -0.000782
 step:   3.2173(harm=  3.2173)  dis= 0.01121  next Energy=  -482.595142 (dE=-0.157E-02)
 bond charge predicted
       N       E                     dE             d eps       ncg     rms          rms(c)
DAV:   1    -0.482593915087E+03    0.76437E-03   -0.89988E-01  1408   0.202E+00    0.127E-01
DAV:   2    -0.482595151383E+03   -0.12363E-02   -0.14341E-02  1936   0.400E-01    0.988E-02
DAV:   3    -0.482595109816E+03    0.41567E-04   -0.90202E-04  2168   0.194E-01    0.798E-02
DAV:   4    -0.482595104330E+03    0.54860E-05   -0.18520E-04  1664   0.764E-02    0.805E-02
DAV:   5    -0.482595089778E+03    0.14552E-04   -0.12387E-04  1392   0.695E-02    0.643E-02
DAV:   6    -0.482595062051E+03    0.27727E-04   -0.10369E-04  1456   0.709E-02    0.111E-02
DAV:   7    -0.482595064588E+03   -0.25366E-05   -0.15190E-05   976   0.144E-02
  95 F= -.48259506E+03 E0= -.48258442E+03  d E =-.148795E-02
 curvature: -11.07 expect dE=-0.944E-02 dE for cont linesearch -0.753E-07
 trial: gam= 0.94760 g(F)=  0.852E-03 g(S)=  0.869E-06 ort =-0.675E-05 (trialstep = 0.184E+01)
 search vector abs. value=  0.685E-02
 bond charge predicted
       N       E                     dE             d eps       ncg     rms          rms(c)
DAV:   1    -0.482594722086E+03    0.33997E-03   -0.11251E+00  1408   0.221E+00    0.137E-01
DAV:   2    -0.482596157247E+03   -0.14352E-02   -0.16575E-02  1920   0.430E-01    0.107E-01
DAV:   3    -0.482596116416E+03    0.40831E-04   -0.10847E-03  2192   0.209E-01    0.878E-02
DAV:   4    -0.482596111004E+03    0.54122E-05   -0.21655E-04  1752   0.800E-02    0.875E-02
DAV:   5    -0.482596090236E+03    0.20768E-04   -0.13870E-04  1424   0.759E-02    0.665E-02
DAV:   6    -0.482596062765E+03    0.27471E-04   -0.11608E-04  1480   0.738E-02    0.120E-02
DAV:   7    -0.482596065814E+03   -0.30490E-05   -0.17046E-05  1040   0.153E-02
  96 F= -.48259607E+03 E0= -.48258558E+03  d E =-.100123E-02
 trial-energy change:   -0.001001  1 .order   -0.001038   -0.001556   -0.000519
 step:   2.7591(harm=  2.7591)  dis= 0.01025  next Energy=  -482.596232 (dE=-0.117E-02)
 reached required accuracy - stopping structural energy minimisation
