<?xml version="1.0" encoding="ISO-8859-1"?>
<modeling>
 <generator>
  <i name="program" type="string">vasp </i>
  <i name="version" type="string">6.3.2  </i>
  <i name="subversion" type="string">27Jun22 (build May 04 2024 18:40:40) complex                          parallel </i>
  <i name="platform" type="string">LinuxIFC </i>
  <i name="date" type="string">2024 09 03 </i>
  <i name="time" type="string">03:29:02 </i>
 </generator>
 <incar>
  <i type="string" name="SYSTEM">slab_Cel1-OPT</i>
  <i type="int" name="ISTART">     0</i>
  <i type="string" name="PREC">N</i>
  <i type="string" name="ALGO">N</i>
  <i type="int" name="ICHARG">     2</i>
  <i type="int" name="NELM">   200</i>
  <i type="int" name="IBRION">     2</i>
  <i name="EDIFF">      0.00001000</i>
  <i name="EDIFFG">     -0.05000000</i>
  <i type="int" name="NSW">  1000</i>
  <i type="int" name="ISIF">     3</i>
  <i name="ENCUT">    400.00000000</i>
  <i name="POTIM">      0.10000000</i>
  <i type="string" name="LREAL">AUTO</i>
  <i type="int" name="ISMEAR">     0</i>
  <i name="SIGMA">      0.10000000</i>
  <i type="logical" name="LWAVE"> F  </i>
  <i type="logical" name="LCHARG"> F  </i>
  <i type="logical" name="LELF"> F  </i>
  <i type="logical" name="LAECHG"> F  </i>
  <i type="logical" name="LDIPOL"> T  </i>
  <i type="int" name="IDIPOL">     3</i>
 </incar>
 <primitive_cell>
  <structure name="primitive_cell" >
   <crystal>
    <varray name="basis" >
     <v>      13.75970367       0.00000000       0.00000000 </v>
     <v>       0.00000000      11.28669971       0.00000000 </v>
     <v>       0.00000000       0.00000000      15.00000000 </v>
    </varray>
    <i name="volume">   2329.52465126 </i>
    <varray name="rec_basis" >
     <v>       0.07267598       0.00000000       0.00000000 </v>
     <v>       0.00000000       0.08859986       0.00000000 </v>
     <v>       0.00000000       0.00000000       0.06666667 </v>
    </varray>
   </crystal>
   <varray name="positions" >
    <v>       0.07054120       0.38816457       0.22227495 </v>
    <v>       0.98151180       0.21832942       0.16785344 </v>
    <v>       0.22877304       0.39667288       0.18904348 </v>
    <v>       0.82472337       0.57572318       0.18403191 </v>
    <v>       0.14970601       0.24663792       0.12277753 </v>
    <v>       0.90758628       0.38434512       0.21811946 </v>
    <v>       0.56886571       0.39316130       0.23173729 </v>
    <v>       0.47768100       0.22391730       0.18017943 </v>
    <v>       0.73035049       0.39802658       0.19909345 </v>
    <v>       0.31101118       0.58132963       0.17977696 </v>
    <v>       0.64681854       0.25040749       0.13377315 </v>
    <v>       0.40275100       0.39355427       0.22106508 </v>
    <v>       0.81808056       0.88988957       0.05647519 </v>
    <v>       0.73319531       0.72568325       0.12448457 </v>
    <v>       0.97932824       0.89597624       0.07999408 </v>
    <v>       0.06867909       0.07698375       0.09423854 </v>
    <v>       0.90528082       0.74258583       0.14719628 </v>
    <v>       0.65472406       0.89333727       0.07691603 </v>
    <v>       0.31825350       0.89473226       0.05377466 </v>
    <v>       0.22716619       0.72126926       0.10084126 </v>
    <v>       0.47498917       0.90396535       0.09489577 </v>
    <v>       0.56592959       0.08075138       0.11024766 </v>
    <v>       0.38612516       0.76037560       0.16363174 </v>
    <v>       0.15509033       0.88950396       0.05271529 </v>
    <v>       0.98784551       0.43883046       0.24713656 </v>
    <v>       0.89991795       0.26975381       0.19549767 </v>
    <v>       0.15759857       0.43325808       0.24240148 </v>
    <v>       0.14788829       0.14353661       0.08017307 </v>
    <v>       0.98633649       0.10796021       0.13653167 </v>
    <v>       0.22915942       0.31533454       0.12527490 </v>
    <v>       0.06735802       0.28598388       0.16888911 </v>
    <v>       0.82274912       0.45552252       0.21014877 </v>
    <v>       0.48493735       0.44793349       0.25146232 </v>
    <v>       0.39648714       0.27665554       0.20625030 </v>
    <v>       0.65756919       0.43524210       0.25419888 </v>
    <v>       0.64488604       0.14640144       0.09374788 </v>
    <v>       0.48286722       0.11321356       0.15081376 </v>
    <v>       0.72606390       0.31870920       0.13454719 </v>
    <v>       0.56470606       0.29135323       0.18008364 </v>
    <v>       0.31888640       0.46086995       0.20329135 </v>
    <v>       0.73287748       0.94248397       0.03965616 </v>
    <v>       0.64891188       0.78317499       0.11254597 </v>
    <v>       0.90382696       0.93469024       0.03189926 </v>
    <v>       0.90701680       0.63807548       0.18754912 </v>
    <v>       0.73647441       0.61699787       0.15934394 </v>
    <v>       0.98321706       0.81212363       0.14197152 </v>
    <v>       0.81925020       0.78400528       0.10639513 </v>
    <v>       0.56804185       0.96074410       0.08520074 </v>
    <v>       0.23699719       0.94478449       0.02657725 </v>
    <v>       0.14820250       0.77173059       0.06843984 </v>
    <v>       0.40793432       0.93556381       0.03646331 </v>
    <v>       0.38047481       0.65838217       0.20939239 </v>
    <v>       0.23501053       0.60894863       0.12850628 </v>
    <v>       0.46527775       0.83024755       0.16578047 </v>
    <v>       0.31113112       0.79334051       0.10891910 </v>
    <v>       0.06990262       0.95754122       0.06514651 </v>
    <v>       0.57736557       0.77647674       0.24193941 </v>
    <v>       0.65582252       0.60772566       0.29790490 </v>
    <v>       0.48700699       0.61617049       0.29396059 </v>
   </varray>
  </structure>
  <varray name="primitive_index" >
   <v type="int" >        1 </v>
   <v type="int" >        2 </v>
   <v type="int" >        3 </v>
   <v type="int" >        4 </v>
   <v type="int" >        5 </v>
   <v type="int" >        6 </v>
   <v type="int" >        7 </v>
   <v type="int" >        8 </v>
   <v type="int" >        9 </v>
   <v type="int" >       10 </v>
   <v type="int" >       11 </v>
   <v type="int" >       12 </v>
   <v type="int" >       13 </v>
   <v type="int" >       14 </v>
   <v type="int" >       15 </v>
   <v type="int" >       16 </v>
   <v type="int" >       17 </v>
   <v type="int" >       18 </v>
   <v type="int" >       19 </v>
   <v type="int" >       20 </v>
   <v type="int" >       21 </v>
   <v type="int" >       22 </v>
   <v type="int" >       23 </v>
   <v type="int" >       24 </v>
   <v type="int" >       25 </v>
   <v type="int" >       26 </v>
   <v type="int" >       27 </v>
   <v type="int" >       28 </v>
   <v type="int" >       29 </v>
   <v type="int" >       30 </v>
   <v type="int" >       31 </v>
   <v type="int" >       32 </v>
   <v type="int" >       33 </v>
   <v type="int" >       34 </v>
   <v type="int" >       35 </v>
   <v type="int" >       36 </v>
   <v type="int" >       37 </v>
   <v type="int" >       38 </v>
   <v type="int" >       39 </v>
   <v type="int" >       40 </v>
   <v type="int" >       41 </v>
   <v type="int" >       42 </v>
   <v type="int" >       43 </v>
   <v type="int" >       44 </v>
   <v type="int" >       45 </v>
   <v type="int" >       46 </v>
   <v type="int" >       47 </v>
   <v type="int" >       48 </v>
   <v type="int" >       49 </v>
   <v type="int" >       50 </v>
   <v type="int" >       51 </v>
   <v type="int" >       52 </v>
   <v type="int" >       53 </v>
   <v type="int" >       54 </v>
   <v type="int" >       55 </v>
   <v type="int" >       56 </v>
   <v type="int" >       57 </v>
   <v type="int" >       58 </v>
   <v type="int" >       59 </v>
  </varray>
 </primitive_cell>
 <kpoints>
  <generation param="Gamma">
   <v type="int" name="divisions">       2        2        1 </v>
   <v name="usershift">      0.00000000       0.00000000       0.00000000 </v>
   <v name="genvec1">      0.50000000       0.00000000       0.00000000 </v>
   <v name="genvec2">      0.00000000       0.50000000       0.00000000 </v>
   <v name="genvec3">      0.00000000       0.00000000       1.00000000 </v>
   <v name="shift">      0.00000000       0.00000000       0.00000000 </v>
  </generation>
  <varray name="kpointlist" >
   <v>       0.00000000       0.00000000       0.00000000 </v>
   <v>       0.50000000       0.00000000       0.00000000 </v>
   <v>       0.00000000       0.50000000       0.00000000 </v>
   <v>       0.50000000       0.50000000       0.00000000 </v>
  </varray>
  <varray name="weights" >
   <v>       0.25000000 </v>
   <v>       0.25000000 </v>
   <v>       0.25000000 </v>
   <v>       0.25000000 </v>
  </varray>
 </kpoints>
 <parameters>
  <separator name="general" >
   <i type="string" name="SYSTEM">slab_Cel1-OPT</i>
   <i type="logical" name="LCOMPAT"> F  </i>
  </separator>
  <separator name="electronic" >
   <i type="string" name="PREC">n</i>
   <i name="ENMAX">    400.00000000</i>
   <i name="ENAUG">    644.87300000</i>
   <i name="EDIFF">      0.00001000</i>
   <i type="int" name="IALGO">    38</i>
   <i type="int" name="IWAVPR">    11</i>
   <i type="int" name="NBANDS">   176</i>
   <i type="int" name="NBANDSLOW">    -1</i>
   <i type="int" name="NBANDSHIGH">    -1</i>
   <i name="NELECT">    288.00000000</i>
   <i type="int" name="TURBO">     0</i>
   <i type="int" name="IRESTART">     0</i>
   <i type="int" name="NREBOOT">     0</i>
   <i type="int" name="NMIN">     0</i>
   <i name="EREF">      0.00000000</i>
   <separator name="electronic smearing" >
    <i type="int" name="ISMEAR">     0</i>
    <i name="SIGMA">      0.10000000</i>
    <i name="KSPACING">      0.50000000</i>
    <i type="logical" name="KGAMMA"> T  </i>
    <i type="logical" name="KBLOWUP"> T  </i>
   </separator>
   <separator name="electronic projectors" >
    <i type="logical" name="LREAL"> T  </i>
    <v name="ROPT">     -0.00050000     -0.00050000     -0.00050000     -0.00050000     -0.00050000</v>
    <i type="int" name="LMAXPAW">  -100</i>
    <i type="int" name="LMAXMIX">     2</i>
    <i type="logical" name="NLSPLINE"> F  </i>
   </separator>
   <separator name="electronic startup" >
    <i type="int" name="ISTART">     0</i>
    <i type="int" name="ICHARG">     2</i>
    <i type="int" name="INIWAV">     1</i>
   </separator>
   <separator name="electronic spin" >
    <i type="int" name="ISPIN">     1</i>
    <i type="logical" name="LNONCOLLINEAR"> F  </i>
    <v name="MAGMOM">      1.00000000      1.00000000      1.00000000      1.00000000      1.00000000      1.00000000      1.00000000      1.00000000      1.00000000      1.00000000      1.00000000      1.00000000      1.00000000      1.00000000      1.00000000      1.00000000      1.00000000      1.00000000      1.00000000      1.00000000
      1.00000000      1.00000000      1.00000000      1.00000000      1.00000000      1.00000000      1.00000000      1.00000000      1.00000000      1.00000000      1.00000000      1.00000000      1.00000000      1.00000000      1.00000000      1.00000000      1.00000000      1.00000000      1.00000000      1.00000000
      1.00000000      1.00000000      1.00000000      1.00000000      1.00000000      1.00000000      1.00000000      1.00000000      1.00000000      1.00000000      1.00000000      1.00000000      1.00000000      1.00000000      1.00000000      1.00000000      1.00000000      1.00000000      1.00000000</v>
    <i name="NUPDOWN">     -1.00000000</i>
    <i type="logical" name="LSORBIT"> F  </i>
    <v name="SAXIS">      0.00000000      0.00000000      1.00000000</v>
    <i type="logical" name="LSPIRAL"> F  </i>
    <v name="QSPIRAL">      0.00000000      0.00000000      0.00000000</v>
    <i type="logical" name="LZEROZ"> F  </i>
   </separator>
   <separator name="electronic exchange-correlation" >
    <i type="logical" name="LASPH"> F  </i>
    <i type="logical" name="LMETAGGA"> F  </i>
   </separator>
   <separator name="electronic convergence" >
    <i type="int" name="NELM">   200</i>
    <i type="int" name="NELMDL">    -5</i>
    <i type="int" name="NELMIN">     2</i>
    <i name="ENINI">    400.00000000</i>
    <separator name="electronic convergence detail" >
     <i type="logical" name="LDIAG"> T  </i>
     <i type="logical" name="LSUBROT"> F  </i>
     <i name="WEIMIN">      0.00100000</i>
     <i name="EBREAK">      0.00000001</i>
     <i name="DEPER">      0.30000000</i>
     <i type="int" name="NRMM">     4</i>
     <i name="TIME">      0.40000000</i>
    </separator>
   </separator>
   <separator name="electronic mixer" >
    <i name="AMIX">      0.40000000</i>
    <i name="BMIX">      1.00000000</i>
    <i name="AMIN">      0.10000000</i>
    <i name="AMIX_MAG">      1.60000000</i>
    <i name="BMIX_MAG">      1.00000000</i>
    <separator name="electronic mixer details" >
     <i type="int" name="IMIX">     4</i>
     <i type="logical" name="MIXFIRST"> F  </i>
     <i type="int" name="MAXMIX">   -45</i>
     <i name="WC">    100.00000000</i>
     <i type="int" name="INIMIX">     1</i>
     <i type="int" name="MIXPRE">     1</i>
     <i type="int" name="MREMOVE">     5</i>
    </separator>
   </separator>
   <separator name="electronic dipolcorrection" >
    <i type="logical" name="LDIPOL"> T  </i>
    <i type="logical" name="LMONO"> F  </i>
    <i type="int" name="IDIPOL">     3</i>
    <i name="EPSILON">      1.00000000</i>
    <v name="DIPOL">   -100.00000000   -100.00000000   -100.00000000</v>
    <i name="EFIELD">      0.00000000</i>
   </separator>
  </separator>
  <separator name="grids" >
   <i type="int" name="NGX">    70</i>
   <i type="int" name="NGY">    56</i>
   <i type="int" name="NGZ">    80</i>
   <i type="int" name="NGXF">   140</i>
   <i type="int" name="NGYF">   112</i>
   <i type="int" name="NGZF">   160</i>
   <i type="logical" name="ADDGRID"> F  </i>
  </separator>
  <separator name="ionic" >
   <i type="int" name="NSW">  1000</i>
   <i type="int" name="IBRION">     2</i>
   <i type="int" name="MDALGO">     0</i>
   <i type="int" name="ISIF">     3</i>
   <i name="PSTRESS">      0.00000000</i>
   <i name="EDIFFG">     -0.05000000</i>
   <i type="int" name="NFREE">     1</i>
   <i name="POTIM">      0.10000000</i>
   <i name="SMASS">     -3.00000000</i>
   <i name="SCALEE">      1.00000000</i>
  </separator>
  <separator name="ionic md" >
   <i name="TEBEG">      0.00010000</i>
   <i name="TEEND">      0.00010000</i>
   <i type="int" name="NBLOCK">     1</i>
   <i type="int" name="KBLOCK">  1000</i>
   <i type="int" name="NPACO">   256</i>
   <i name="APACO">     10.00000000</i>
  </separator>
  <separator name="symmetry" >
   <i type="int" name="ISYM">     2</i>
   <i name="SYMPREC">      0.00001000</i>
  </separator>
  <separator name="dos" >
   <i type="int" name="LORBIT">     0</i>
   <v name="RWIGS">     -1.00000000     -1.00000000     -1.00000000     -1.00000000     -1.00000000</v>
   <i type="int" name="NEDOS">   301</i>
   <i name="EMIN">     10.00000000</i>
   <i name="EMAX">    -10.00000000</i>
   <i name="EFERMI">      0.00000000</i>
  </separator>
  <separator name="writing" >
   <i type="int" name="NWRITE">     2</i>
   <i type="logical" name="LWAVE"> F  </i>
   <i type="logical" name="LDOWNSAMPLE"> F  </i>
   <i type="logical" name="LCHARG"> F  </i>
   <i type="logical" name="LPARD"> F  </i>
   <i type="logical" name="LVTOT"> F  </i>
   <i type="logical" name="LVHAR"> F  </i>
   <i type="logical" name="LELF"> F  </i>
   <i type="logical" name="LOPTICS"> F  </i>
   <v name="STM">      0.00000000      0.00000000      0.00000000      0.00000000      0.00000000      0.00000000      0.00000000</v>
  </separator>
  <separator name="performance" >
   <i type="int" name="NPAR">     4</i>
   <i type="int" name="NSIM">     4</i>
   <i type="int" name="NBLK">    -1</i>
   <i type="logical" name="LPLANE"> T  </i>
   <i type="logical" name="LSCALAPACK"> T  </i>
   <i type="logical" name="LSCAAWARE"> F  </i>
   <i type="logical" name="LSCALU"> F  </i>
   <i type="logical" name="LASYNC"> F  </i>
   <i type="logical" name="LORBITALREAL"> F  </i>
  </separator>
  <separator name="miscellaneous" >
   <i type="int" name="IDIOT">     3</i>
   <i type="int" name="PHON_NSTRUCT">    -1</i>
   <i type="logical" name="LMUSIC"> F  </i>
   <v name="POMASS">     12.01100000     14.00100000    107.86800000     63.54600000    106.42000000</v>
   <v name="DARWINR">      0.00000000      0.00000000      0.00000000      0.00000000      0.00000000</v>
   <v name="DARWINV">      1.00000000      1.00000000      1.00000000      1.00000000      1.00000000</v>
   <i type="logical" name="LCORR"> T  </i>
  </separator>
  <i type="logical" name="GGA_COMPAT"> T  </i>
  <i type="logical" name="LBERRY"> F  </i>
  <i type="int" name="ICORELEVEL">     0</i>
  <i type="logical" name="LDAU"> F  </i>
  <i type="int" name="I_CONSTRAINED_M">     0</i>
  <separator name="electronic exchange-correlation" >
   <i type="string" name="GGA">--</i>
   <i type="int" name="VOSKOWN">     0</i>
   <i type="logical" name="LHFCALC"> F  </i>
   <i type="string" name="PRECFOCK"></i>
   <i type="logical" name="LSYMGRAD"> F  </i>
   <i type="logical" name="LHFONE"> F  </i>
   <i type="logical" name="LRHFCALC"> F  </i>
   <i type="logical" name="LTHOMAS"> F  </i>
   <i type="logical" name="LMODELHF"> F  </i>
   <i type="logical" name="LFOCKACE"> F  </i>
   <i name="ENCUT4O">     -1.00000000</i>
   <i type="int" name="EXXOEP">     0</i>
   <i type="int" name="FOURORBIT">     0</i>
   <i name="AEXX">      0.00000000</i>
   <i name="HFALPHA">      0.00000000</i>
   <i name="MCALPHA">      0.00000000</i>
   <i name="ALDAX">      1.00000000</i>
   <i name="AGGAX">      1.00000000</i>
   <i name="ALDAC">      1.00000000</i>
   <i name="AGGAC">      1.00000000</i>
   <i type="int" name="NKREDX">     1</i>
   <i type="int" name="NKREDY">     1</i>
   <i type="int" name="NKREDZ">     1</i>
   <i type="logical" name="SHIFTRED"> F  </i>
   <i type="logical" name="ODDONLY"> F  </i>
   <i type="logical" name="EVENONLY"> F  </i>
   <i type="int" name="LMAXFOCK">     0</i>
   <i type="int" name="NMAXFOCKAE">     0</i>
   <i type="logical" name="LFOCKAEDFT"> F  </i>
   <i name="HFSCREEN">      0.00000000</i>
   <i name="HFSCREENC">      0.00000000</i>
   <i type="int" name="NBANDSGWLOW">     0</i>
  </separator>
  <separator name="vdW DFT" >
   <i type="logical" name="LUSE_VDW"> F  </i>
   <i name="Zab_VDW">     -0.84910000</i>
   <i name="PARAM1">      0.12340000</i>
   <i name="PARAM2">      1.00000000</i>
   <i name="PARAM3">      0.00000000</i>
  </separator>
  <separator name="model GW" >
   <i type="int" name="MODEL_GW">     0</i>
   <i name="MODEL_EPS0">     23.69008120</i>
   <i name="MODEL_ALPHA">      1.00000000</i>
  </separator>
  <separator name="linear response parameters" >
   <i type="logical" name="LEPSILON"> F  </i>
   <i type="logical" name="LRPA"> F  </i>
   <i type="logical" name="LNABLA"> F  </i>
   <i type="logical" name="LVEL"> F  </i>
   <i name="CSHIFT">      0.10000000</i>
   <i name="OMEGAMAX">     -1.00000000</i>
   <i name="DEG_THRESHOLD">      0.00200000</i>
   <i name="RTIME">     -0.10000000</i>
   <i name="WPLASMAI">      0.00000000</i>
   <v name="DFIELD">      0.00000000      0.00000000      0.00000000</v>
   <v name="WPLASMA">      0.00000000      0.00000000      0.00000000      0.00000000      0.00000000      0.00000000      0.00000000      0.00000000      0.00000000</v>
  </separator>
  <separator name="orbital magnetization" >
   <i type="logical" name="NUCIND"> F  </i>
   <v name="MAGPOS">      0.00000000      0.00000000      0.00000000</v>
   <i type="logical" name="LNICSALL"> T  </i>
   <i type="logical" name="ORBITALMAG"> F  </i>
   <i type="logical" name="LMAGBLOCH"> F  </i>
   <i type="logical" name="LCHIMAG"> F  </i>
   <i type="logical" name="LGAUGE"> T  </i>
   <i type="int" name="MAGATOM">     0</i>
   <v name="MAGDIPOL">      0.00000000      0.00000000      0.00000000</v>
   <v name="AVECCONST">      0.00000000      0.00000000      0.00000000</v>
  </separator>
  <separator name="response functions" >
   <i type="logical" name="LFINITE_TEMPERATURE"> F  </i>
   <i type="logical" name="LADDER"> F  </i>
   <i type="logical" name="LRPAFORCE"> F  </i>
   <i type="logical" name="LFXC"> F  </i>
   <i type="logical" name="LHARTREE"> T  </i>
   <i type="int" name="IBSE">     0</i>
   <v type="int" name="KPOINT">    -1     0     0     0</v>
   <i type="logical" name="LTCTC"> F  </i>
   <i type="logical" name="LTCTE"> F  </i>
   <i type="logical" name="LTETE"> F  </i>
   <i type="logical" name="LTRIPLET"> F  </i>
   <i type="logical" name="LFXCEPS"> F  </i>
   <i type="logical" name="LFXHEG"> F  </i>
   <i type="int" name="NATURALO">     2</i>
   <i type="logical" name="LHOLEGF"> F  </i>
   <i type="logical" name="L2ORDER"> F  </i>
   <i type="logical" name="LDMP1"> F  </i>
   <i type="logical" name="LMP2LT"> F  </i>
   <i type="logical" name="LSMP2LT"> F  </i>
   <i type="logical" name="LGWLF"> F  </i>
   <i name="ENCUTGW">     -2.00000000</i>
   <i name="ENCUTGWSOFT">     -2.00000000</i>
   <i name="ENCUTLF">     -1.00000000</i>
   <i type="logical" name="LESF_SPLINES"> F  </i>
   <i type="int" name="LMAXMP2">    -1</i>
   <i name="SCISSOR">      0.00000000</i>
   <i type="int" name="NOMEGA">     0</i>
   <i type="int" name="NOMEGAR">     0</i>
   <i type="int" name="NBANDSGW">    -1</i>
   <i type="int" name="NBANDSO">    -1</i>
   <i type="int" name="NBANDSV">    -1</i>
   <i type="int" name="NELMGW">     1</i>
   <i type="int" name="NELMHF">     1</i>
   <i type="int" name="DIM">     3</i>
   <i type="int" name="IESPILON">     4</i>
   <i type="int" name="ANTIRES">     0</i>
   <i name="OMEGAMAX">    -30.00000000</i>
   <i name="OMEGAMIN">    -30.00000000</i>
   <i name="OMEGATL">   -200.00000000</i>
   <i type="int" name="OMEGAGRID">     0</i>
   <i name="CSHIFT">     -0.10000000</i>
   <i type="logical" name="LSELFENERGY"> F  </i>
   <i type="logical" name="LSPECTRAL"> F  </i>
   <i type="logical" name="LSPECTRALGW"> F  </i>
   <i type="logical" name="LSINGLES"> F  </i>
   <i type="logical" name="LFERMIGW"> F  </i>
   <i type="logical" name="ODDONLYGW"> F  </i>
   <i type="logical" name="EVENONLYGW"> F  </i>
   <i type="int" name="NKREDLFX">     1</i>
   <i type="int" name="NKREDLFY">     1</i>
   <i type="int" name="NKREDLFZ">     1</i>
   <i type="int" name="MAXMEM">  2800</i>
   <i type="int" name="TELESCOPE">     0</i>
   <i type="int" name="NTAUPAR">    -1</i>
   <i type="int" name="NOMEGAPAR">    -1</i>
   <i name="DAMP_NEWTON">      0.80000001</i>
   <i name="LAMBDA">      1.00000000</i>
  </separator>
  <separator name="External order field" >
   <i name="OFIELD_KAPPA">      0.00000000</i>
   <v name="OFIELD_K">      0.00000000      0.00000000      0.00000000</v>
   <i name="OFIELD_Q6_NEAR">      0.00000000</i>
   <i name="OFIELD_Q6_FAR">      0.00000000</i>
   <i name="OFIELD_A">      0.00000000</i>
  </separator>
  <separator name="optional k-points parameters" >
   <i type="int" name="KPOINTS_OPT_MODE">     1</i>
   <i type="logical" name="LKPOINTS_OPT"> F  </i>
  </separator>
  <separator name="solvation model" >
   <i type="logical" name="LSOL"> F  </i>
  </separator>
 </parameters>
 <atominfo>
  <atoms>      59 </atoms>
  <types>       5 </types>
  <array name="atoms" >
   <dimension dim="1">ion</dimension>
   <field type="string">element</field>
   <field type="int">atomtype</field>
   <set>
    <rc><c>C </c><c>   1</c></rc>
    <rc><c>C </c><c>   1</c></rc>
    <rc><c>C </c><c>   1</c></rc>
    <rc><c>C </c><c>   1</c></rc>
    <rc><c>C </c><c>   1</c></rc>
    <rc><c>C </c><c>   1</c></rc>
    <rc><c>C </c><c>   1</c></rc>
    <rc><c>C </c><c>   1</c></rc>
    <rc><c>C </c><c>   1</c></rc>
    <rc><c>C </c><c>   1</c></rc>
    <rc><c>C </c><c>   1</c></rc>
    <rc><c>C </c><c>   1</c></rc>
    <rc><c>C </c><c>   1</c></rc>
    <rc><c>C </c><c>   1</c></rc>
    <rc><c>C </c><c>   1</c></rc>
    <rc><c>C </c><c>   1</c></rc>
    <rc><c>C </c><c>   1</c></rc>
    <rc><c>C </c><c>   1</c></rc>
    <rc><c>C </c><c>   1</c></rc>
    <rc><c>C </c><c>   1</c></rc>
    <rc><c>C </c><c>   1</c></rc>
    <rc><c>C </c><c>   1</c></rc>
    <rc><c>C </c><c>   1</c></rc>
    <rc><c>C </c><c>   1</c></rc>
    <rc><c>N </c><c>   2</c></rc>
    <rc><c>N </c><c>   2</c></rc>
    <rc><c>N </c><c>   2</c></rc>
    <rc><c>N </c><c>   2</c></rc>
    <rc><c>N </c><c>   2</c></rc>
    <rc><c>N </c><c>   2</c></rc>
    <rc><c>N </c><c>   2</c></rc>
    <rc><c>N </c><c>   2</c></rc>
    <rc><c>N </c><c>   2</c></rc>
    <rc><c>N </c><c>   2</c></rc>
    <rc><c>N </c><c>   2</c></rc>
    <rc><c>N </c><c>   2</c></rc>
    <rc><c>N </c><c>   2</c></rc>
    <rc><c>N </c><c>   2</c></rc>
    <rc><c>N </c><c>   2</c></rc>
    <rc><c>N </c><c>   2</c></rc>
    <rc><c>N </c><c>   2</c></rc>
    <rc><c>N </c><c>   2</c></rc>
    <rc><c>N </c><c>   2</c></rc>
    <rc><c>N </c><c>   2</c></rc>
    <rc><c>N </c><c>   2</c></rc>
    <rc><c>N </c><c>   2</c></rc>
    <rc><c>N </c><c>   2</c></rc>
    <rc><c>N </c><c>   2</c></rc>
    <rc><c>N </c><c>   2</c></rc>
    <rc><c>N </c><c>   2</c></rc>
    <rc><c>N </c><c>   2</c></rc>
    <rc><c>N </c><c>   2</c></rc>
    <rc><c>N </c><c>   2</c></rc>
    <rc><c>N </c><c>   2</c></rc>
    <rc><c>N </c><c>   2</c></rc>
    <rc><c>N </c><c>   2</c></rc>
    <rc><c>Ag</c><c>   3</c></rc>
    <rc><c>Cu</c><c>   4</c></rc>
    <rc><c>Pd</c><c>   5</c></rc>
   </set>
  </array>
  <array name="atomtypes" >
   <dimension dim="1">type</dimension>
   <field type="int">atomspertype</field>
   <field type="string">element</field>
   <field>mass</field>
   <field>valence</field>
   <field type="string">pseudopotential</field>
   <set>
    <rc><c>  24</c><c>C </c><c>     12.01100000</c><c>      4.00000000</c><c>  PAW_PBE C 08Apr2002                   </c></rc>
    <rc><c>  32</c><c>N </c><c>     14.00100000</c><c>      5.00000000</c><c>  PAW_PBE N 08Apr2002                   </c></rc>
    <rc><c>   1</c><c>Ag</c><c>    107.86800000</c><c>     11.00000000</c><c>  PAW_PBE Ag 02Apr2005                  </c></rc>
    <rc><c>   1</c><c>Cu</c><c>     63.54600000</c><c>     11.00000000</c><c>  PAW_PBE Cu 22Jun2005                  </c></rc>
    <rc><c>   1</c><c>Pd</c><c>    106.42000000</c><c>     10.00000000</c><c>  PAW_PBE Pd 04Jan2005                  </c></rc>
   </set>
  </array>
 </atominfo>
 <structure name="initialpos" >
  <crystal>
   <varray name="basis" >
    <v>      13.75970367       0.00000000       0.00000000 </v>
    <v>       0.00000000      11.28669971       0.00000000 </v>
    <v>       0.00000000       0.00000000      15.00000000 </v>
   </varray>
   <i name="volume">   2329.52465126 </i>
   <varray name="rec_basis" >
    <v>       0.07267598       0.00000000       0.00000000 </v>
    <v>       0.00000000       0.08859986       0.00000000 </v>
    <v>       0.00000000       0.00000000       0.06666667 </v>
   </varray>
  </crystal>
  <varray name="positions" >
   <v>       0.07054120       0.38816457       0.22227495 </v>
   <v>       0.98151180       0.21832942       0.16785344 </v>
   <v>       0.22877304       0.39667288       0.18904348 </v>
   <v>       0.82472337       0.57572318       0.18403191 </v>
   <v>       0.14970601       0.24663792       0.12277753 </v>
   <v>       0.90758628       0.38434512       0.21811946 </v>
   <v>       0.56886571       0.39316130       0.23173729 </v>
   <v>       0.47768100       0.22391730       0.18017943 </v>
   <v>       0.73035049       0.39802658       0.19909345 </v>
   <v>       0.31101118       0.58132963       0.17977696 </v>
   <v>       0.64681854       0.25040749       0.13377315 </v>
   <v>       0.40275100       0.39355427       0.22106508 </v>
   <v>       0.81808056       0.88988957       0.05647519 </v>
   <v>       0.73319531       0.72568325       0.12448457 </v>
   <v>       0.97932824       0.89597624       0.07999408 </v>
   <v>       0.06867909       0.07698375       0.09423854 </v>
   <v>       0.90528082       0.74258583       0.14719628 </v>
   <v>       0.65472406       0.89333727       0.07691603 </v>
   <v>       0.31825350       0.89473226       0.05377466 </v>
   <v>       0.22716619       0.72126926       0.10084126 </v>
   <v>       0.47498917       0.90396535       0.09489577 </v>
   <v>       0.56592959       0.08075138       0.11024766 </v>
   <v>       0.38612516       0.76037560       0.16363174 </v>
   <v>       0.15509033       0.88950396       0.05271529 </v>
   <v>       0.98784551       0.43883046       0.24713656 </v>
   <v>       0.89991795       0.26975381       0.19549767 </v>
   <v>       0.15759857       0.43325808       0.24240148 </v>
   <v>       0.14788829       0.14353661       0.08017307 </v>
   <v>       0.98633649       0.10796021       0.13653167 </v>
   <v>       0.22915942       0.31533454       0.12527490 </v>
   <v>       0.06735802       0.28598388       0.16888911 </v>
   <v>       0.82274912       0.45552252       0.21014877 </v>
   <v>       0.48493735       0.44793349       0.25146232 </v>
   <v>       0.39648714       0.27665554       0.20625030 </v>
   <v>       0.65756919       0.43524210       0.25419888 </v>
   <v>       0.64488604       0.14640144       0.09374788 </v>
   <v>       0.48286722       0.11321356       0.15081376 </v>
   <v>       0.72606390       0.31870920       0.13454719 </v>
   <v>       0.56470606       0.29135323       0.18008364 </v>
   <v>       0.31888640       0.46086995       0.20329135 </v>
   <v>       0.73287748       0.94248397       0.03965616 </v>
   <v>       0.64891188       0.78317499       0.11254597 </v>
   <v>       0.90382696       0.93469024       0.03189926 </v>
   <v>       0.90701680       0.63807548       0.18754912 </v>
   <v>       0.73647441       0.61699787       0.15934394 </v>
   <v>       0.98321706       0.81212363       0.14197152 </v>
   <v>       0.81925020       0.78400528       0.10639513 </v>
   <v>       0.56804185       0.96074410       0.08520074 </v>
   <v>       0.23699719       0.94478449       0.02657725 </v>
   <v>       0.14820250       0.77173059       0.06843984 </v>
   <v>       0.40793432       0.93556381       0.03646331 </v>
   <v>       0.38047481       0.65838217       0.20939239 </v>
   <v>       0.23501053       0.60894863       0.12850628 </v>
   <v>       0.46527775       0.83024755       0.16578047 </v>
   <v>       0.31113112       0.79334051       0.10891910 </v>
   <v>       0.06990262       0.95754122       0.06514651 </v>
   <v>       0.57736557       0.77647674       0.24193941 </v>
   <v>       0.65582252       0.60772566       0.29790490 </v>
   <v>       0.48700699       0.61617049       0.29396059 </v>
  </varray>
 </structure>
 <calculation>
  <scstep>
   <time name="dav">    1.65    1.66</time>
   <time name="total">    1.69    1.70</time>
   <dipole>
    <v name="dipole">      0.00000000       0.00000000       0.00008225 </v>
    <i name="Tr[quadrupol]">  -8096.92159505 </i>
    <i name="Echarged">      0.00000000 </i>
    <i name="Edipol_quadrupol">      0.00000000 </i>
    <i name="Eion">      0.00000000 </i>
   </dipole>
   <energy>
    <i name="alphaZ">    172.02468668 </i>
    <i name="ewald">  28784.59497549 </i>
    <i name="hartreedc"> -41429.95694682 </i>
    <i name="XCdc">    961.76343618 </i>
    <i name="pawpsdc">  12200.78364845 </i>
    <i name="pawaedc"> -12250.06752089 </i>
    <i name="eentropy">     -0.07578202 </i>
    <i name="bandstr">  -1016.97256550 </i>
    <i name="atom">  15232.21341132 </i>
    <i name="e_fr_energy">   2654.30734288 </i>
    <i name="e_wo_entrp">   2654.38312490 </i>
    <i name="e_0_energy">   2654.34523389 </i>
   </energy>
  </scstep>
  <scstep>
   <time name="dav">    1.92    1.92</time>
   <time name="total">    1.92    1.92</time>
   <dipole>
    <v name="dipole">      0.00000000       0.00000000       0.00008225 </v>
    <i name="Tr[quadrupol]">  -8096.92159505 </i>
    <i name="Echarged">      0.00000000 </i>
    <i name="Edipol_quadrupol">      0.00000000 </i>
    <i name="Eion">      0.00000000 </i>
   </dipole>
   <energy>
    <i name="e_fr_energy">     12.48118061 </i>
    <i name="e_wo_entrp">     12.48376000 </i>
    <i name="e_0_energy">     12.48247031 </i>
   </energy>
  </scstep>
  <scstep>
   <time name="dav">    1.70    1.70</time>
   <time name="total">    1.70    1.70</time>
   <dipole>
    <v name="dipole">      0.00000000       0.00000000       0.00008225 </v>
    <i name="Tr[quadrupol]">  -8096.92159505 </i>
    <i name="Echarged">      0.00000000 </i>
    <i name="Edipol_quadrupol">      0.00000000 </i>
    <i name="Eion">      0.00000000 </i>
   </dipole>
   <energy>
    <i name="e_fr_energy">   -487.28843551 </i>
    <i name="e_wo_entrp">   -487.15572268 </i>
    <i name="e_0_energy">   -487.22207910 </i>
   </energy>
  </scstep>
  <scstep>
   <time name="dav">    2.04    2.04</time>
   <time name="total">    2.04    2.04</time>
   <dipole>
    <v name="dipole">      0.00000000       0.00000000       0.00008225 </v>
    <i name="Tr[quadrupol]">  -8096.92159505 </i>
    <i name="Echarged">      0.00000000 </i>
    <i name="Edipol_quadrupol">      0.00000000 </i>
    <i name="Eion">      0.00000000 </i>
   </dipole>
   <energy>
    <i name="e_fr_energy">   -516.62824740 </i>
    <i name="e_wo_entrp">   -516.47186288 </i>
    <i name="e_0_energy">   -516.55005514 </i>
   </energy>
  </scstep>
  <scstep>
   <time name="dav">    1.82    1.82</time>
   <time name="total">    1.86    1.87</time>
   <dipole>
    <v name="dipole">      0.00000000       0.00000000       0.00008225 </v>
    <i name="Tr[quadrupol]">  -8096.92159505 </i>
    <i name="Echarged">      0.00000000 </i>
    <i name="Edipol_quadrupol">      0.00000000 </i>
    <i name="Eion">      0.00000000 </i>
   </dipole>
   <energy>
    <i name="e_fr_energy">   -517.41086353 </i>
    <i name="e_wo_entrp">   -517.24556144 </i>
    <i name="e_0_energy">   -517.32821248 </i>
   </energy>
  </scstep>
  <scstep>
   <time name="dav">    1.83    1.83</time>
   <time name="total">    1.91    1.91</time>
   <dipole>
    <v name="dipole">      0.00000000       0.00000000      -1.33856488 </v>
    <i name="Tr[quadrupol]">  -8099.51681076 </i>
    <i name="Echarged">      0.00000000 </i>
    <i name="Edipol_quadrupol">      0.00000000 </i>
    <i name="Eion">      0.00000000 </i>
   </dipole>
   <energy>
    <i name="e_fr_energy">   -594.13311621 </i>
    <i name="e_wo_entrp">   -594.06582536 </i>
    <i name="e_0_energy">   -594.09947079 </i>
   </energy>
  </scstep>
  <scstep>
   <time name="dav">    1.70    1.71</time>
   <time name="total">    1.79    1.80</time>
   <dipole>
    <v name="dipole">      0.00000000       0.00000000      -0.59694270 </v>
    <i name="Tr[quadrupol]">  -8098.92596813 </i>
    <i name="Echarged">      0.00000000 </i>
    <i name="Edipol_quadrupol">      0.00000000 </i>
    <i name="Eion">      0.00000000 </i>
   </dipole>
   <energy>
    <i name="e_fr_energy">   -509.48200157 </i>
    <i name="e_wo_entrp">   -509.48200157 </i>
    <i name="e_0_energy">   -509.48200157 </i>
   </energy>
  </scstep>
  <scstep>
   <time name="dav">    1.86    1.86</time>
   <time name="total">    1.94    1.94</time>
   <dipole>
    <v name="dipole">      0.00000000       0.00000000      -0.40145160 </v>
    <i name="Tr[quadrupol]">  -8099.23480294 </i>
    <i name="Echarged">      0.00000000 </i>
    <i name="Edipol_quadrupol">      0.00000000 </i>
    <i name="Eion">      0.00000000 </i>
   </dipole>
   <energy>
    <i name="e_fr_energy">   -481.51482076 </i>
    <i name="e_wo_entrp">   -481.43137036 </i>
    <i name="e_0_energy">   -481.47309556 </i>
   </energy>
  </scstep>
  <scstep>
   <time name="dav">    2.02    2.02</time>
   <time name="total">    2.11    2.11</time>
   <dipole>
    <v name="dipole">      0.00000000       0.00000000      -0.25244676 </v>
    <i name="Tr[quadrupol]">  -8099.70875036 </i>
    <i name="Echarged">      0.00000000 </i>
    <i name="Edipol_quadrupol">      0.00000000 </i>
    <i name="Eion">      0.00000000 </i>
   </dipole>
   <energy>
    <i name="e_fr_energy">   -515.65004295 </i>
    <i name="e_wo_entrp">   -515.52367731 </i>
    <i name="e_0_energy">   -515.58686013 </i>
   </energy>
  </scstep>
  <scstep>
   <time name="dav">    1.96    1.96</time>
   <time name="total">    2.04    2.04</time>
   <dipole>
    <v name="dipole">      0.00000000       0.00000000      -0.40698792 </v>
    <i name="Tr[quadrupol]">  -8099.93468693 </i>
    <i name="Echarged">      0.00000000 </i>
    <i name="Edipol_quadrupol">      0.00000000 </i>
    <i name="Eion">      0.00000000 </i>
   </dipole>
   <energy>
    <i name="e_fr_energy">   -481.66767847 </i>
    <i name="e_wo_entrp">   -481.66767842 </i>
    <i name="e_0_energy">   -481.66767844 </i>
   </energy>
  </scstep>
  <scstep>
   <time name="dav">    2.09    2.09</time>
   <time name="total">    2.17    2.17</time>
   <dipole>
    <v name="dipole">      0.00000000       0.00000000      -0.12661037 </v>
    <i name="Tr[quadrupol]">  -8100.01607133 </i>
    <i name="Echarged">      0.00000000 </i>
    <i name="Edipol_quadrupol">      0.00000000 </i>
    <i name="Eion">      0.00000000 </i>
   </dipole>
   <energy>
    <i name="e_fr_energy">   -505.86088731 </i>
    <i name="e_wo_entrp">   -505.75428528 </i>
    <i name="e_0_energy">   -505.80758630 </i>
   </energy>
  </scstep>
  <scstep>
   <time name="dav">    2.06    2.07</time>
   <time name="total">    2.14    2.15</time>
   <dipole>
    <v name="dipole">      0.00000000       0.00000000      -0.22068072 </v>
    <i name="Tr[quadrupol]">  -8100.24803932 </i>
    <i name="Echarged">      0.00000000 </i>
    <i name="Edipol_quadrupol">      0.00000000 </i>
    <i name="Eion">      0.00000000 </i>
   </dipole>
   <energy>
    <i name="e_fr_energy">   -480.86240302 </i>
    <i name="e_wo_entrp">   -480.77660402 </i>
    <i name="e_0_energy">   -480.81950352 </i>
   </energy>
  </scstep>
  <scstep>
   <time name="dav">    2.06    2.06</time>
   <time name="total">    2.14    2.14</time>
   <dipole>
    <v name="dipole">      0.00000000       0.00000000      -0.28682315 </v>
    <i name="Tr[quadrupol]">  -8100.42993539 </i>
    <i name="Echarged">      0.00000000 </i>
    <i name="Edipol_quadrupol">      0.00000000 </i>
    <i name="Eion">      0.00000000 </i>
   </dipole>
   <energy>
    <i name="e_fr_energy">   -481.86794175 </i>
    <i name="e_wo_entrp">   -481.86660013 </i>
    <i name="e_0_energy">   -481.86727094 </i>
   </energy>
  </scstep>
  <scstep>
   <time name="dav">    1.85    1.85</time>
   <time name="total">    1.93    1.93</time>
   <dipole>
    <v name="dipole">      0.00000000       0.00000000      -0.23342966 </v>
    <i name="Tr[quadrupol]">  -8100.61973202 </i>
    <i name="Echarged">      0.00000000 </i>
    <i name="Edipol_quadrupol">      0.00000000 </i>
    <i name="Eion">      0.00000000 </i>
   </dipole>
   <energy>
    <i name="e_fr_energy">   -481.58491817 </i>
    <i name="e_wo_entrp">   -481.54641820 </i>
    <i name="e_0_energy">   -481.56566819 </i>
   </energy>
  </scstep>
  <scstep>
   <time name="dav">    2.04    2.05</time>
   <time name="total">    2.12    2.12</time>
   <dipole>
    <v name="dipole">      0.00000000       0.00000000      -0.18973844 </v>
    <i name="Tr[quadrupol]">  -8100.83915516 </i>
    <i name="Echarged">      0.00000000 </i>
    <i name="Edipol_quadrupol">      0.00000000 </i>
    <i name="Eion">      0.00000000 </i>
   </dipole>
   <energy>
    <i name="e_fr_energy">   -481.41931332 </i>
    <i name="e_wo_entrp">   -481.36962497 </i>
    <i name="e_0_energy">   -481.39446914 </i>
   </energy>
  </scstep>
  <scstep>
   <time name="dav">    1.97    1.97</time>
   <time name="total">    2.05    2.05</time>
   <dipole>
    <v name="dipole">      0.00000000       0.00000000      -0.14286592 </v>
    <i name="Tr[quadrupol]">  -8101.10450809 </i>
    <i name="Echarged">      0.00000000 </i>
    <i name="Edipol_quadrupol">      0.00000000 </i>
    <i name="Eion">      0.00000000 </i>
   </dipole>
   <energy>
    <i name="e_fr_energy">   -481.03323359 </i>
    <i name="e_wo_entrp">   -480.94375853 </i>
    <i name="e_0_energy">   -480.98849606 </i>
   </energy>
  </scstep>
  <scstep>
   <time name="dav">    2.01    2.02</time>
   <time name="total">    2.09    2.11</time>
   <dipole>
    <v name="dipole">      0.00000000       0.00000000      -0.12420814 </v>
    <i name="Tr[quadrupol]">  -8101.30557105 </i>
    <i name="Echarged">      0.00000000 </i>
    <i name="Edipol_quadrupol">      0.00000000 </i>
    <i name="Eion">      0.00000000 </i>
   </dipole>
   <energy>
    <i name="e_fr_energy">   -480.83808363 </i>
    <i name="e_wo_entrp">   -480.76066417 </i>
    <i name="e_0_energy">   -480.79937390 </i>
   </energy>
  </scstep>
  <scstep>
   <time name="dav">    1.99    2.00</time>
   <time name="total">    2.07    2.07</time>
   <dipole>
    <v name="dipole">      0.00000000       0.00000000      -0.10052668 </v>
    <i name="Tr[quadrupol]">  -8101.44701895 </i>
    <i name="Echarged">      0.00000000 </i>
    <i name="Edipol_quadrupol">      0.00000000 </i>
    <i name="Eion">      0.00000000 </i>
   </dipole>
   <energy>
    <i name="e_fr_energy">   -480.67233004 </i>
    <i name="e_wo_entrp">   -480.58312087 </i>
    <i name="e_0_energy">   -480.62772546 </i>
   </energy>
  </scstep>
  <scstep>
   <time name="dav">    2.03    2.03</time>
   <time name="total">    2.11    2.11</time>
   <dipole>
    <v name="dipole">      0.00000000       0.00000000      -0.07079400 </v>
    <i name="Tr[quadrupol]">  -8101.65063655 </i>
    <i name="Echarged">      0.00000000 </i>
    <i name="Edipol_quadrupol">      0.00000000 </i>
    <i name="Eion">      0.00000000 </i>
   </dipole>
   <energy>
    <i name="e_fr_energy">   -480.48434573 </i>
    <i name="e_wo_entrp">   -480.39396561 </i>
    <i name="e_0_energy">   -480.43915567 </i>
   </energy>
  </scstep>
  <scstep>
   <time name="dav">    2.05    2.05</time>
   <time name="total">    2.13    2.13</time>
   <dipole>
    <v name="dipole">      0.00000000       0.00000000      -0.03055137 </v>
    <i name="Tr[quadrupol]">  -8101.92682835 </i>
    <i name="Echarged">      0.00000000 </i>
    <i name="Edipol_quadrupol">      0.00000000 </i>
    <i name="Eion">      0.00000000 </i>
   </dipole>
   <energy>
    <i name="e_fr_energy">   -480.31957865 </i>
    <i name="e_wo_entrp">   -480.23005633 </i>
    <i name="e_0_energy">   -480.27481749 </i>
   </energy>
  </scstep>
  <scstep>
   <time name="dav">    2.06    2.07</time>
   <time name="total">    2.14    2.15</time>
   <dipole>
    <v name="dipole">      0.00000000       0.00000000       0.01614711 </v>
    <i name="Tr[quadrupol]">  -8102.25613298 </i>
    <i name="Echarged">      0.00000000 </i>
    <i name="Edipol_quadrupol">      0.00000000 </i>
    <i name="Eion">      0.00000000 </i>
   </dipole>
   <energy>
    <i name="e_fr_energy">   -480.19173725 </i>
    <i name="e_wo_entrp">   -480.09907261 </i>
    <i name="e_0_energy">   -480.14540493 </i>
   </energy>
  </scstep>
  <scstep>
   <time name="dav">    1.92    1.92</time>
   <time name="total">    2.00    2.01</time>
   <dipole>
    <v name="dipole">      0.00000000       0.00000000       0.02159260 </v>
    <i name="Tr[quadrupol]">  -8102.29215864 </i>
    <i name="Echarged">      0.00000000 </i>
    <i name="Edipol_quadrupol">      0.00000000 </i>
    <i name="Eion">      0.00000000 </i>
   </dipole>
   <energy>
    <i name="e_fr_energy">   -480.18964730 </i>
    <i name="e_wo_entrp">   -480.09735018 </i>
    <i name="e_0_energy">   -480.14349874 </i>
   </energy>
  </scstep>
  <scstep>
   <time name="dav">    1.88    1.88</time>
   <time name="total">    1.97    1.97</time>
   <dipole>
    <v name="dipole">      0.00000000       0.00000000       0.02378976 </v>
    <i name="Tr[quadrupol]">  -8102.30940811 </i>
    <i name="Echarged">      0.00000000 </i>
    <i name="Edipol_quadrupol">      0.00000000 </i>
    <i name="Eion">      0.00000000 </i>
   </dipole>
   <energy>
    <i name="e_fr_energy">   -480.18512230 </i>
    <i name="e_wo_entrp">   -480.09228895 </i>
    <i name="e_0_energy">   -480.13870562 </i>
   </energy>
  </scstep>
  <scstep>
   <time name="dav">    2.04    2.04</time>
   <time name="total">    2.12    2.12</time>
   <dipole>
    <v name="dipole">      0.00000000       0.00000000       0.02956524 </v>
    <i name="Tr[quadrupol]">  -8102.35505520 </i>
    <i name="Echarged">      0.00000000 </i>
    <i name="Edipol_quadrupol">      0.00000000 </i>
    <i name="Eion">      0.00000000 </i>
   </dipole>
   <energy>
    <i name="e_fr_energy">   -480.17728694 </i>
    <i name="e_wo_entrp">   -480.08491832 </i>
    <i name="e_0_energy">   -480.13110263 </i>
   </energy>
  </scstep>
  <scstep>
   <time name="dav">    2.01    2.01</time>
   <time name="total">    2.09    2.09</time>
   <dipole>
    <v name="dipole">      0.00000000       0.00000000       0.05239602 </v>
    <i name="Tr[quadrupol]">  -8102.53724625 </i>
    <i name="Echarged">      0.00000000 </i>
    <i name="Edipol_quadrupol">      0.00000000 </i>
    <i name="Eion">      0.00000000 </i>
   </dipole>
   <energy>
    <i name="e_fr_energy">   -480.16736619 </i>
    <i name="e_wo_entrp">   -480.07617968 </i>
    <i name="e_0_energy">   -480.12177293 </i>
   </energy>
  </scstep>
  <scstep>
   <time name="dav">    2.00    2.01</time>
   <time name="total">    2.08    2.09</time>
   <dipole>
    <v name="dipole">      0.00000000       0.00000000       0.05861267 </v>
    <i name="Tr[quadrupol]">  -8102.59697487 </i>
    <i name="Echarged">      0.00000000 </i>
    <i name="Edipol_quadrupol">      0.00000000 </i>
    <i name="Eion">      0.00000000 </i>
   </dipole>
   <energy>
    <i name="e_fr_energy">   -480.16750391 </i>
    <i name="e_wo_entrp">   -480.07608912 </i>
    <i name="e_0_energy">   -480.12179652 </i>
   </energy>
  </scstep>
  <scstep>
   <time name="dav">    1.81    1.81</time>
   <time name="total">    1.88    1.89</time>
   <dipole>
    <v name="dipole">      0.00000000       0.00000000       0.05850742 </v>
    <i name="Tr[quadrupol]">  -8102.60123562 </i>
    <i name="Echarged">      0.00000000 </i>
    <i name="Edipol_quadrupol">      0.00000000 </i>
    <i name="Eion">      0.00000000 </i>
   </dipole>
   <energy>
    <i name="e_fr_energy">   -480.16759816 </i>
    <i name="e_wo_entrp">   -480.07617098 </i>
    <i name="e_0_energy">   -480.12188457 </i>
   </energy>
  </scstep>
  <scstep>
   <time name="dav">    1.58    1.58</time>
   <time name="total">    1.66    1.66</time>
   <dipole>
    <v name="dipole">      0.00000000       0.00000000       0.05651381 </v>
    <i name="Tr[quadrupol]">  -8102.58799148 </i>
    <i name="Echarged">      0.00000000 </i>
    <i name="Edipol_quadrupol">      0.00000000 </i>
    <i name="Eion">      0.00000000 </i>
   </dipole>
   <energy>
    <i name="e_fr_energy">   -480.16768303 </i>
    <i name="e_wo_entrp">   -480.07711174 </i>
    <i name="e_0_energy">   -480.12239739 </i>
   </energy>
  </scstep>
  <scstep>
   <time name="dav">    1.85    1.86</time>
   <time name="total">    1.93    1.94</time>
   <dipole>
    <v name="dipole">      0.00000000       0.00000000       0.05608185 </v>
    <i name="Tr[quadrupol]">  -8102.58600103 </i>
    <i name="Echarged">      0.00000000 </i>
    <i name="Edipol_quadrupol">      0.00000000 </i>
    <i name="Eion">      0.00000000 </i>
   </dipole>
   <energy>
    <i name="e_fr_energy">   -480.16787455 </i>
    <i name="e_wo_entrp">   -480.07679264 </i>
    <i name="e_0_energy">   -480.12233359 </i>
   </energy>
  </scstep>
  <scstep>
   <time name="dav">    1.58    1.58</time>
   <time name="total">    1.66    1.66</time>
   <dipole>
    <v name="dipole">      0.00000000       0.00000000       0.05671560 </v>
    <i name="Tr[quadrupol]">  -8102.60759959 </i>
    <i name="Echarged">      0.00000000 </i>
    <i name="Edipol_quadrupol">      0.00000000 </i>
    <i name="Eion">      0.00000000 </i>
   </dipole>
   <energy>
    <i name="e_fr_energy">   -480.16784653 </i>
    <i name="e_wo_entrp">   -480.07689395 </i>
    <i name="e_0_energy">   -480.12237024 </i>
   </energy>
  </scstep>
  <scstep>
   <time name="dav">    1.66    1.66</time>
   <time name="total">    1.74    1.74</time>
   <dipole>
    <v name="dipole">      0.00000000       0.00000000       0.05644677 </v>
    <i name="Tr[quadrupol]">  -8102.60739184 </i>
    <i name="Echarged">      0.00000000 </i>
    <i name="Edipol_quadrupol">      0.00000000 </i>
    <i name="Eion">      0.00000000 </i>
   </dipole>
   <energy>
    <i name="e_fr_energy">   -480.16790210 </i>
    <i name="e_wo_entrp">   -480.07688442 </i>
    <i name="e_0_energy">   -480.12239326 </i>
   </energy>
  </scstep>
  <scstep>
   <time name="dav">    1.33    1.34</time>
   <time name="total">    1.36    1.37</time>
   <dipole>
    <v name="dipole">      0.00000000       0.00000000       0.05616567 </v>
    <i name="Tr[quadrupol]">  -8102.60032907 </i>
    <i name="Echarged">      0.00000000 </i>
    <i name="Edipol_quadrupol">      0.00000000 </i>
    <i name="Eion">      0.00000000 </i>
   </dipole>
   <energy>
    <i name="alphaZ">    172.25045317 </i>
    <i name="ewald">  28784.59497549 </i>
    <i name="hartreedc"> -42065.25650992 </i>
    <i name="XCdc">    992.26515135 </i>
    <i name="pawpsdc">  31018.61592002 </i>
    <i name="pawaedc"> -31087.97777513 </i>
    <i name="eentropy">     -0.09092084 </i>
    <i name="bandstr">  -3526.78261116 </i>
    <i name="atom">  15232.21341132 </i>
    <i name="e_fr_energy">   -480.16790572 </i>
    <i name="e_wo_entrp">   -480.07698488 </i>
    <i name="e_0_energy">   -480.12244530 </i>
   </energy>
  </scstep>
  <structure>
   <crystal>
    <varray name="basis" >
     <v>      13.75970367       0.00000000       0.00000000 </v>
     <v>       0.00000000      11.28669971       0.00000000 </v>
     <v>       0.00000000       0.00000000      15.00000000 </v>
    </varray>
    <i name="volume">   2329.52465126 </i>
    <varray name="rec_basis" >
     <v>       0.07267598       0.00000000       0.00000000 </v>
     <v>       0.00000000       0.08859986       0.00000000 </v>
     <v>       0.00000000       0.00000000       0.06666667 </v>
    </varray>
   </crystal>
   <varray name="positions" >
    <v>       0.07054120       0.38816457       0.22227495 </v>
    <v>       0.98151180       0.21832942       0.16785344 </v>
    <v>       0.22877304       0.39667288       0.18904348 </v>
    <v>       0.82472337       0.57572318       0.18403191 </v>
    <v>       0.14970601       0.24663792       0.12277753 </v>
    <v>       0.90758628       0.38434512       0.21811946 </v>
    <v>       0.56886571       0.39316130       0.23173729 </v>
    <v>       0.47768100       0.22391730       0.18017943 </v>
    <v>       0.73035049       0.39802658       0.19909345 </v>
    <v>       0.31101118       0.58132963       0.17977696 </v>
    <v>       0.64681854       0.25040749       0.13377315 </v>
    <v>       0.40275100       0.39355427       0.22106508 </v>
    <v>       0.81808056       0.88988957       0.05647519 </v>
    <v>       0.73319531       0.72568325       0.12448457 </v>
    <v>       0.97932824       0.89597624       0.07999408 </v>
    <v>       0.06867909       0.07698375       0.09423854 </v>
    <v>       0.90528082       0.74258583       0.14719628 </v>
    <v>       0.65472406       0.89333727       0.07691603 </v>
    <v>       0.31825350       0.89473226       0.05377466 </v>
    <v>       0.22716619       0.72126926       0.10084126 </v>
    <v>       0.47498917       0.90396535       0.09489577 </v>
    <v>       0.56592959       0.08075138       0.11024766 </v>
    <v>       0.38612516       0.76037560       0.16363174 </v>
    <v>       0.15509033       0.88950396       0.05271529 </v>
    <v>       0.98784551       0.43883046       0.24713656 </v>
    <v>       0.89991795       0.26975381       0.19549767 </v>
    <v>       0.15759857       0.43325808       0.24240148 </v>
    <v>       0.14788829       0.14353661       0.08017307 </v>
    <v>       0.98633649       0.10796021       0.13653167 </v>
    <v>       0.22915942       0.31533454       0.12527490 </v>
    <v>       0.06735802       0.28598388       0.16888911 </v>
    <v>       0.82274912       0.45552252       0.21014877 </v>
    <v>       0.48493735       0.44793349       0.25146232 </v>
    <v>       0.39648714       0.27665554       0.20625030 </v>
    <v>       0.65756919       0.43524210       0.25419888 </v>
    <v>       0.64488604       0.14640144       0.09374788 </v>
    <v>       0.48286722       0.11321356       0.15081376 </v>
    <v>       0.72606390       0.31870920       0.13454719 </v>
    <v>       0.56470606       0.29135323       0.18008364 </v>
    <v>       0.31888640       0.46086995       0.20329135 </v>
    <v>       0.73287748       0.94248397       0.03965616 </v>
    <v>       0.64891188       0.78317499       0.11254597 </v>
    <v>       0.90382696       0.93469024       0.03189926 </v>
    <v>       0.90701680       0.63807548       0.18754912 </v>
    <v>       0.73647441       0.61699787       0.15934394 </v>
    <v>       0.98321706       0.81212363       0.14197152 </v>
    <v>       0.81925020       0.78400528       0.10639513 </v>
    <v>       0.56804185       0.96074410       0.08520074 </v>
    <v>       0.23699719       0.94478449       0.02657725 </v>
    <v>       0.14820250       0.77173059       0.06843984 </v>
    <v>       0.40793432       0.93556381       0.03646331 </v>
    <v>       0.38047481       0.65838217       0.20939239 </v>
    <v>       0.23501053       0.60894863       0.12850628 </v>
    <v>       0.46527775       0.83024755       0.16578047 </v>
    <v>       0.31113112       0.79334051       0.10891910 </v>
    <v>       0.06990262       0.95754122       0.06514651 </v>
    <v>       0.57736557       0.77647674       0.24193941 </v>
    <v>       0.65582252       0.60772566       0.29790490 </v>
    <v>       0.48700699       0.61617049       0.29396059 </v>
   </varray>
  </structure>
  <varray name="forces" >
   <v>       0.00304462      -0.00725293      -0.02413134 </v>
   <v>       0.03409579       0.10669225       0.03430283 </v>
   <v>       0.01865282       0.05716335      -0.00759828 </v>
   <v>       0.16197020       0.01609998       0.11769712 </v>
   <v>       0.02903276       0.12017892       0.06786695 </v>
   <v>       0.01109816       0.07466135       0.01692246 </v>
   <v>       0.00522025      -0.05055976      -0.04545331 </v>
   <v>       0.11928282       0.22661744       0.06370903 </v>
   <v>      -0.15066576       0.21242790       0.22449670 </v>
   <v>      -0.20421565       0.01923825      -0.07754775 </v>
   <v>       0.01281043       0.30186091       0.08364509 </v>
   <v>       0.10920614       0.07097115       0.04879640 </v>
   <v>       0.09472383       0.01350286       0.01756740 </v>
   <v>       0.27990976       0.06892524      -0.24575046 </v>
   <v>       0.02824575       0.08781341      -0.01127814 </v>
   <v>       0.00098971       0.13215303      -0.00877514 </v>
   <v>       0.05615504       0.18010301      -0.06152688 </v>
   <v>       0.13121301       0.14042100      -0.09968591 </v>
   <v>      -0.07117903      -0.00731563       0.01783843 </v>
   <v>       0.08340867       0.16285961      -0.01889384 </v>
   <v>      -0.01509583       0.10438600       0.01305886 </v>
   <v>       0.02666624       0.27267769      -0.04241475 </v>
   <v>      -0.24041287       0.10652045      -0.25698684 </v>
   <v>      -0.10856610       0.03591357       0.00938106 </v>
   <v>       0.03188875      -0.01162152      -0.01904692 </v>
   <v>      -0.03415395      -0.02537392       0.00964848 </v>
   <v>       0.03876397       0.00301731      -0.00605800 </v>
   <v>      -0.05978779      -0.09069551      -0.02139858 </v>
   <v>       0.06527275      -0.04368424      -0.03696797 </v>
   <v>      -0.00950305      -0.09006423      -0.07378648 </v>
   <v>      -0.01515863      -0.02193080       0.01535557 </v>
   <v>       0.01525945      -0.08226378       0.06569108 </v>
   <v>      -0.24025536      -0.97489844      -0.50213947 </v>
   <v>       0.01004605      -0.11949698       0.08921031 </v>
   <v>       0.29560412      -0.21057051      -0.01538013 </v>
   <v>      -0.11599422      -0.21374588      -0.03282094 </v>
   <v>       0.05677184      -0.18254568      -0.06862195 </v>
   <v>      -0.12831082      -0.16827675      -0.21668209 </v>
   <v>      -0.12026004      -0.21164983      -0.10371902 </v>
   <v>      -0.10388305      -0.07739033      -0.09777917 </v>
   <v>      -0.04259569       0.00612645       0.02297525 </v>
   <v>       0.62236675       0.04088103      -1.16904952 </v>
   <v>      -0.04190680      -0.02025071       0.02260549 </v>
   <v>      -0.11114602      -0.22027456       0.02105842 </v>
   <v>      -0.03657334      -0.02567821      -0.00075592 </v>
   <v>      -0.05647113      -0.13356131       0.00717651 </v>
   <v>      -0.12075422      -0.08808676       0.12113627 </v>
   <v>      -0.04734059      -0.16256985      -0.06887047 </v>
   <v>       0.09211432      -0.01350951       0.04588628 </v>
   <v>      -0.05036602      -0.01073168      -0.06610904 </v>
   <v>       0.08016441      -0.03847452      -0.01508108 </v>
   <v>      -1.03593037       0.09332356      -0.84824254 </v>
   <v>       0.06405063      -0.03025893       0.10800723 </v>
   <v>      -1.78016665       0.79220280      -1.19949955 </v>
   <v>      -0.04889195      -0.07670234      -0.01318184 </v>
   <v>      -0.01287147      -0.13694719      -0.03320314 </v>
   <v>       2.21732326       2.53638283       1.39239942 </v>
   <v>       1.39856968      -0.88614494       0.54905293 </v>
   <v>      -1.19146558      -1.55059415       2.32295087 </v>
  </varray>
  <varray name="stress" >
   <v>       1.34450386       4.99364542       1.33846564 </v>
   <v>       4.99364543      -0.86629958      -2.35554941 </v>
   <v>       1.33846560      -2.35554939      -8.08928833 </v>
  </varray>
  <energy>
   <i name="e_fr_energy">   -480.16790572 </i>
   <i name="e_wo_entrp">   -480.07698488 </i>
   <i name="e_0_energy">   -480.12244530 </i>
  </energy>
  <time name="totalsc">   63.86   64.00</time>
 </calculation>
 <calculation>
  <scstep>
   <time name="dav">    1.44    1.44</time>
   <time name="total">    1.51    1.52</time>
   <dipole>
    <v name="dipole">      0.00000000       0.00000000       0.05629356 </v>
    <i name="Tr[quadrupol]">  -8096.76761349 </i>
    <i name="Echarged">      0.00000000 </i>
    <i name="Edipol_quadrupol">      0.00000000 </i>
    <i name="Eion">      0.00000000 </i>
   </dipole>
   <energy>
    <i name="alphaZ">    172.23037764 </i>
    <i name="ewald">  28722.90114107 </i>
    <i name="hartreedc"> -42002.75805352 </i>
    <i name="XCdc">    992.15307059 </i>
    <i name="pawpsdc">  31018.65733375 </i>
    <i name="pawaedc"> -31088.01606102 </i>
    <i name="eentropy">     -0.06580097 </i>
    <i name="bandstr">  -3527.77182318 </i>
    <i name="atom">  15232.21341132 </i>
    <i name="e_fr_energy">   -480.45640434 </i>
    <i name="e_wo_entrp">   -480.39060336 </i>
    <i name="e_0_energy">   -480.42350385 </i>
   </energy>
  </scstep>
  <scstep>
   <time name="dav">    1.89    1.89</time>
   <time name="total">    1.97    1.97</time>
   <dipole>
    <v name="dipole">      0.00000000       0.00000000       0.10264910 </v>
    <i name="Tr[quadrupol]">  -8096.74010901 </i>
    <i name="Echarged">      0.00000000 </i>
    <i name="Edipol_quadrupol">      0.00000000 </i>
    <i name="Eion">      0.00000000 </i>
   </dipole>
   <energy>
    <i name="e_fr_energy">   -480.78196648 </i>
    <i name="e_wo_entrp">   -480.70205274 </i>
    <i name="e_0_energy">   -480.74200961 </i>
   </energy>
  </scstep>
  <scstep>
   <time name="dav">    1.78    1.78</time>
   <time name="total">    1.86    1.87</time>
   <dipole>
    <v name="dipole">      0.00000000       0.00000000       0.06422913 </v>
    <i name="Tr[quadrupol]">  -8096.75212110 </i>
    <i name="Echarged">      0.00000000 </i>
    <i name="Edipol_quadrupol">      0.00000000 </i>
    <i name="Eion">      0.00000000 </i>
   </dipole>
   <energy>
    <i name="e_fr_energy">   -480.48422731 </i>
    <i name="e_wo_entrp">   -480.40281040 </i>
    <i name="e_0_energy">   -480.44351886 </i>
   </energy>
  </scstep>
  <scstep>
   <time name="dav">    1.82    1.82</time>
   <time name="total">    1.90    1.90</time>
   <dipole>
    <v name="dipole">      0.00000000       0.00000000       0.06675254 </v>
    <i name="Tr[quadrupol]">  -8096.75854816 </i>
    <i name="Echarged">      0.00000000 </i>
    <i name="Edipol_quadrupol">      0.00000000 </i>
    <i name="Eion">      0.00000000 </i>
   </dipole>
   <energy>
    <i name="e_fr_energy">   -480.48450660 </i>
    <i name="e_wo_entrp">   -480.38973721 </i>
    <i name="e_0_energy">   -480.43712190 </i>
   </energy>
  </scstep>
  <scstep>
   <time name="dav">    1.99    2.00</time>
   <time name="total">    2.09    2.10</time>
   <dipole>
    <v name="dipole">      0.00000000       0.00000000       0.06187328 </v>
    <i name="Tr[quadrupol]">  -8096.76958498 </i>
    <i name="Echarged">      0.00000000 </i>
    <i name="Edipol_quadrupol">      0.00000000 </i>
    <i name="Eion">      0.00000000 </i>
   </dipole>
   <energy>
    <i name="e_fr_energy">   -480.48289817 </i>
    <i name="e_wo_entrp">   -480.40201512 </i>
    <i name="e_0_energy">   -480.44245665 </i>
   </energy>
  </scstep>
  <scstep>
   <time name="dav">    1.89    1.89</time>
   <time name="total">    1.98    1.98</time>
   <dipole>
    <v name="dipole">      0.00000000       0.00000000       0.05867197 </v>
    <i name="Tr[quadrupol]">  -8096.78544576 </i>
    <i name="Echarged">      0.00000000 </i>
    <i name="Edipol_quadrupol">      0.00000000 </i>
    <i name="Eion">      0.00000000 </i>
   </dipole>
   <energy>
    <i name="e_fr_energy">   -480.47669530 </i>
    <i name="e_wo_entrp">   -480.39698491 </i>
    <i name="e_0_energy">   -480.43684011 </i>
   </energy>
  </scstep>
  <scstep>
   <time name="dav">    1.90    1.90</time>
   <time name="total">    1.98    1.98</time>
   <dipole>
    <v name="dipole">      0.00000000       0.00000000       0.05771793 </v>
    <i name="Tr[quadrupol]">  -8096.78679212 </i>
    <i name="Echarged">      0.00000000 </i>
    <i name="Edipol_quadrupol">      0.00000000 </i>
    <i name="Eion">      0.00000000 </i>
   </dipole>
   <energy>
    <i name="e_fr_energy">   -480.47549432 </i>
    <i name="e_wo_entrp">   -480.39426322 </i>
    <i name="e_0_energy">   -480.43487877 </i>
   </energy>
  </scstep>
  <scstep>
   <time name="dav">    1.82    1.82</time>
   <time name="total">    1.91    1.91</time>
   <dipole>
    <v name="dipole">      0.00000000       0.00000000       0.05840965 </v>
    <i name="Tr[quadrupol]">  -8096.78742542 </i>
    <i name="Echarged">      0.00000000 </i>
    <i name="Edipol_quadrupol">      0.00000000 </i>
    <i name="Eion">      0.00000000 </i>
   </dipole>
   <energy>
    <i name="e_fr_energy">   -480.47524177 </i>
    <i name="e_wo_entrp">   -480.39298218 </i>
    <i name="e_0_energy">   -480.43411197 </i>
   </energy>
  </scstep>
  <scstep>
   <time name="dav">    1.80    1.80</time>
   <time name="total">    1.87    1.87</time>
   <dipole>
    <v name="dipole">      0.00000000       0.00000000       0.05855890 </v>
    <i name="Tr[quadrupol]">  -8096.78723178 </i>
    <i name="Echarged">      0.00000000 </i>
    <i name="Edipol_quadrupol">      0.00000000 </i>
    <i name="Eion">      0.00000000 </i>
   </dipole>
   <energy>
    <i name="e_fr_energy">   -480.47511558 </i>
    <i name="e_wo_entrp">   -480.39158920 </i>
    <i name="e_0_energy">   -480.43335239 </i>
   </energy>
  </scstep>
  <scstep>
   <time name="dav">    1.66    1.66</time>
   <time name="total">    1.73    1.74</time>
   <dipole>
    <v name="dipole">      0.00000000       0.00000000       0.05857416 </v>
    <i name="Tr[quadrupol]">  -8096.78798015 </i>
    <i name="Echarged">      0.00000000 </i>
    <i name="Edipol_quadrupol">      0.00000000 </i>
    <i name="Eion">      0.00000000 </i>
   </dipole>
   <energy>
    <i name="e_fr_energy">   -480.47516945 </i>
    <i name="e_wo_entrp">   -480.39136081 </i>
    <i name="e_0_energy">   -480.43326513 </i>
   </energy>
  </scstep>
  <scstep>
   <time name="dav">    1.13    1.13</time>
   <time name="total">    1.21    1.22</time>
   <dipole>
    <v name="dipole">      0.00000000       0.00000000       0.05839748 </v>
    <i name="Tr[quadrupol]">  -8096.78921665 </i>
    <i name="Echarged">      0.00000000 </i>
    <i name="Edipol_quadrupol">      0.00000000 </i>
    <i name="Eion">      0.00000000 </i>
   </dipole>
   <energy>
    <i name="e_fr_energy">   -480.47519293 </i>
    <i name="e_wo_entrp">   -480.39115518 </i>
    <i name="e_0_energy">   -480.43317405 </i>
   </energy>
  </scstep>
  <scstep>
   <time name="dav">    1.10    1.10</time>
   <time name="total">    1.18    1.18</time>
   <dipole>
    <v name="dipole">      0.00000000       0.00000000       0.05818506 </v>
    <i name="Tr[quadrupol]">  -8096.79046275 </i>
    <i name="Echarged">      0.00000000 </i>
    <i name="Edipol_quadrupol">      0.00000000 </i>
    <i name="Eion">      0.00000000 </i>
   </dipole>
   <energy>
    <i name="e_fr_energy">   -480.47520589 </i>
    <i name="e_wo_entrp">   -480.39111656 </i>
    <i name="e_0_energy">   -480.43316122 </i>
   </energy>
  </scstep>
  <scstep>
   <time name="dav">    1.11    1.11</time>
   <time name="total">    1.15    1.15</time>
   <dipole>
    <v name="dipole">      0.00000000       0.00000000       0.05797824 </v>
    <i name="Tr[quadrupol]">  -8096.79164627 </i>
    <i name="Echarged">      0.00000000 </i>
    <i name="Edipol_quadrupol">      0.00000000 </i>
    <i name="Eion">      0.00000000 </i>
   </dipole>
   <energy>
    <i name="alphaZ">    172.23712959 </i>
    <i name="ewald">  28722.90114107 </i>
    <i name="hartreedc"> -42006.53834181 </i>
    <i name="XCdc">    992.26479789 </i>
    <i name="pawpsdc">  31005.60675839 </i>
    <i name="pawaedc"> -31074.20659377 </i>
    <i name="eentropy">     -0.08409091 </i>
    <i name="bandstr">  -3524.86942554 </i>
    <i name="atom">  15232.21341132 </i>
    <i name="e_fr_energy">   -480.47521377 </i>
    <i name="e_wo_entrp">   -480.39112286 </i>
    <i name="e_0_energy">   -480.43316832 </i>
   </energy>
  </scstep>
  <structure>
   <crystal>
    <varray name="basis" >
     <v>      13.76410250       0.00000000       0.00000000 </v>
     <v>       0.00000000      11.28437483       0.00000000 </v>
     <v>       0.00000000       0.00000000      15.00000000 </v>
    </varray>
    <i name="volume">   2329.78937634 </i>
    <varray name="rec_basis" >
     <v>       0.07265276       0.00000000       0.00000000 </v>
     <v>       0.00000000       0.08861811       0.00000000 </v>
     <v>       0.00000000       0.00000000       0.06666667 </v>
    </varray>
   </crystal>
   <varray name="positions" >
    <v>       0.07054334       0.38815837       0.22225943 </v>
    <v>       0.98153571       0.21842063       0.16787550 </v>
    <v>       0.22878611       0.39672175       0.18903859 </v>
    <v>       0.82483695       0.57573694       0.18410762 </v>
    <v>       0.14972637       0.24674065       0.12282118 </v>
    <v>       0.90759407       0.38440894       0.21813034 </v>
    <v>       0.56886937       0.39311808       0.23170806 </v>
    <v>       0.47776465       0.22411102       0.18022041 </v>
    <v>       0.73024484       0.39820817       0.19923786 </v>
    <v>       0.31086798       0.58134607       0.17972707 </v>
    <v>       0.64682753       0.25066553       0.13382695 </v>
    <v>       0.40282758       0.39361494       0.22109646 </v>
    <v>       0.81814699       0.88990111       0.05648649 </v>
    <v>       0.73339159       0.72574217       0.12432650 </v>
    <v>       0.97934804       0.89605130       0.07998682 </v>
    <v>       0.06867979       0.07709673       0.09423290 </v>
    <v>       0.90532020       0.74273979       0.14715670 </v>
    <v>       0.65481606       0.89345731       0.07685191 </v>
    <v>       0.31820358       0.89472601       0.05378613 </v>
    <v>       0.22722467       0.72140848       0.10082911 </v>
    <v>       0.47497858       0.90405459       0.09490417 </v>
    <v>       0.56594829       0.08098448       0.11022038 </v>
    <v>       0.38595658       0.76046666       0.16346643 </v>
    <v>       0.15501420       0.88953466       0.05272132 </v>
    <v>       0.98786787       0.43882053       0.24712431 </v>
    <v>       0.89989400       0.26973212       0.19550388 </v>
    <v>       0.15762575       0.43326066       0.24239758 </v>
    <v>       0.14784636       0.14345908       0.08015931 </v>
    <v>       0.98638226       0.10792287       0.13650789 </v>
    <v>       0.22915276       0.31525755       0.12522744 </v>
    <v>       0.06734739       0.28596513       0.16889899 </v>
    <v>       0.82275982       0.45545219       0.21019103 </v>
    <v>       0.48476888       0.44710009       0.25113932 </v>
    <v>       0.39649419       0.27655339       0.20630768 </v>
    <v>       0.65777647       0.43506209       0.25418899 </v>
    <v>       0.64480471       0.14621872       0.09372677 </v>
    <v>       0.48290703       0.11305751       0.15076962 </v>
    <v>       0.72597393       0.31856534       0.13440782 </v>
    <v>       0.56462174       0.29117230       0.18001692 </v>
    <v>       0.31881356       0.46080379       0.20322846 </v>
    <v>       0.73284761       0.94248920       0.03967094 </v>
    <v>       0.64934829       0.78320993       0.11179399 </v>
    <v>       0.90379757       0.93467293       0.03191380 </v>
    <v>       0.90693886       0.63788718       0.18756267 </v>
    <v>       0.73644876       0.61697591       0.15934345 </v>
    <v>       0.98317747       0.81200945       0.14197614 </v>
    <v>       0.81916553       0.78392998       0.10647305 </v>
    <v>       0.56800865       0.96060513       0.08515644 </v>
    <v>       0.23706178       0.94477294       0.02660677 </v>
    <v>       0.14816718       0.77172142       0.06839732 </v>
    <v>       0.40799053       0.93553092       0.03645361 </v>
    <v>       0.37974840       0.65846195       0.20884677 </v>
    <v>       0.23505544       0.60892277       0.12857576 </v>
    <v>       0.46402947       0.83092477       0.16500891 </v>
    <v>       0.31109684       0.79327494       0.10891062 </v>
    <v>       0.06989359       0.95742415       0.06512515 </v>
    <v>       0.57892039       0.77864499       0.24283505 </v>
    <v>       0.65680322       0.60696813       0.29825807 </v>
    <v>       0.48617151       0.61484495       0.29545479 </v>
   </varray>
  </structure>
  <varray name="forces" >
   <v>       0.02213721       0.00709821      -0.01855643 </v>
   <v>       0.01586551       0.04118489       0.01201189 </v>
   <v>       0.02888477       0.02282946      -0.02707256 </v>
   <v>       0.02610997       0.01156571       0.07506093 </v>
   <v>       0.01021172       0.02573433       0.01439584 </v>
   <v>      -0.00235841       0.03757056       0.01208039 </v>
   <v>       0.04737145      -0.14934052      -0.11362020 </v>
   <v>       0.06690623       0.01873454      -0.00135716 </v>
   <v>      -0.02500684       0.03739643       0.02992984 </v>
   <v>      -0.25113178      -0.01769190      -0.12252401 </v>
   <v>      -0.04958839       0.04957425      -0.04210383 </v>
   <v>      -0.06435040      -0.11045959      -0.04130034 </v>
   <v>      -0.01368518       0.01825320       0.02776383 </v>
   <v>       0.24334424      -0.01836500      -0.21953232 </v>
   <v>       0.01069833       0.03289032       0.00025723 </v>
   <v>       0.00410197       0.07621358      -0.02504977 </v>
   <v>      -0.01980468       0.00404616       0.02180277 </v>
   <v>       0.10965894       0.11826716      -0.14332162 </v>
   <v>       0.03557181      -0.01692109       0.03987648 </v>
   <v>       0.05050142       0.08216402      -0.00805606 </v>
   <v>      -0.16848547       0.21808868      -0.22780989 </v>
   <v>       0.00058181       0.11759336      -0.06753062 </v>
   <v>      -0.44647714       0.05028069      -0.34664104 </v>
   <v>      -0.04219695       0.02231997      -0.00447274 </v>
   <v>       0.02621066      -0.00388265      -0.01836265 </v>
   <v>      -0.00218904      -0.01091138       0.01075675 </v>
   <v>       0.00690471      -0.00568546      -0.01380844 </v>
   <v>      -0.03993708      -0.01472536       0.00078308 </v>
   <v>       0.04327313       0.00922042      -0.00801206 </v>
   <v>      -0.00827101      -0.05213879      -0.03660278 </v>
   <v>      -0.00362454       0.00383866       0.02590520 </v>
   <v>       0.00560418      -0.06346470       0.08015950 </v>
   <v>      -0.04449051      -0.59463486      -0.34765167 </v>
   <v>      -0.00660599      -0.12195203       0.09732463 </v>
   <v>       0.11657175      -0.16578959       0.07161949 </v>
   <v>      -0.05095244      -0.02924469       0.00635986 </v>
   <v>       0.01688307      -0.02711161       0.00328515 </v>
   <v>      -0.07740045       0.01035924      -0.07866927 </v>
   <v>      -0.01938381      -0.09106913      -0.06457291 </v>
   <v>      -0.07542252      -0.05012664      -0.08387697 </v>
   <v>       0.08962400       0.08032231      -0.00776021 </v>
   <v>       0.35543670      -0.07687838      -0.97772737 </v>
   <v>       0.00810673      -0.01351741       0.03014660 </v>
   <v>      -0.02317292      -0.06783180      -0.02280338 </v>
   <v>       0.00366564      -0.01545114       0.00326092 </v>
   <v>      -0.01586335      -0.05620111      -0.03943289 </v>
   <v>       0.03405556       0.00328152       0.08345701 </v>
   <v>      -0.00750022      -0.07691662      -0.05910039 </v>
   <v>      -0.01804741       0.00701158       0.04164013 </v>
   <v>      -0.02534065      -0.00919196      -0.05514327 </v>
   <v>      -0.01607306       0.01304319      -0.14178782 </v>
   <v>      -0.52547535       0.05856366      -0.46453667 </v>
   <v>      -0.08615785       0.02264036      -0.01800338 </v>
   <v>      -0.93308987       0.44817486      -0.47156920 </v>
   <v>      -0.21385601      -0.01278823      -0.16901204 </v>
   <v>      -0.01520328      -0.06713822      -0.03145049 </v>
   <v>       1.61253287       1.95962067       1.42425616 </v>
   <v>       1.08495326      -0.73349884       0.47088384 </v>
   <v>      -0.78462506      -0.93495327       1.93581493 </v>
  </varray>
  <varray name="stress" >
   <v>       0.66960278       5.11036877       1.45806437 </v>
   <v>       5.11036881      -1.71435007      -1.97765135 </v>
   <v>       1.45806435      -1.97765134      -8.08267921 </v>
  </varray>
  <energy>
   <i name="e_fr_energy">   -480.47521377 </i>
   <i name="e_wo_entrp">   -480.39112286 </i>
   <i name="e_0_energy">   -480.43316832 </i>
  </energy>
  <time name="totalsc">   23.63   23.67</time>
 </calculation>
 <calculation>
  <scstep>
   <time name="dav">    1.43    1.43</time>
   <time name="total">    1.51    1.51</time>
   <dipole>
    <v name="dipole">      0.00000000       0.00000000       0.05777309 </v>
    <i name="Tr[quadrupol]">  -8080.56463514 </i>
    <i name="Echarged">      0.00000000 </i>
    <i name="Edipol_quadrupol">      0.00000000 </i>
    <i name="Eion">      0.00000000 </i>
   </dipole>
   <energy>
    <i name="alphaZ">    172.17843363 </i>
    <i name="ewald">  28555.58251797 </i>
    <i name="hartreedc"> -41835.45481803 </i>
    <i name="XCdc">    992.01058723 </i>
    <i name="pawpsdc">  31005.64878104 </i>
    <i name="pawaedc"> -31074.24888317 </i>
    <i name="eentropy">     -0.02749941 </i>
    <i name="bandstr">  -3528.49524980 </i>
    <i name="atom">  15232.21341132 </i>
    <i name="e_fr_energy">   -480.59271923 </i>
    <i name="e_wo_entrp">   -480.56521982 </i>
    <i name="e_0_energy">   -480.57896953 </i>
   </energy>
  </scstep>
  <scstep>
   <time name="dav">    1.82    1.82</time>
   <time name="total">    1.90    1.90</time>
   <dipole>
    <v name="dipole">      0.00000000       0.00000000       0.12841197 </v>
    <i name="Tr[quadrupol]">  -8080.51438144 </i>
    <i name="Echarged">      0.00000000 </i>
    <i name="Edipol_quadrupol">      0.00000000 </i>
    <i name="Eion">      0.00000000 </i>
   </dipole>
   <energy>
    <i name="e_fr_energy">   -481.59164845 </i>
    <i name="e_wo_entrp">   -481.48755894 </i>
    <i name="e_0_energy">   -481.53960369 </i>
   </energy>
  </scstep>
  <scstep>
   <time name="dav">    1.72    1.73</time>
   <time name="total">    1.80    1.81</time>
   <dipole>
    <v name="dipole">      0.00000000       0.00000000       0.05332941 </v>
    <i name="Tr[quadrupol]">  -8080.59210239 </i>
    <i name="Echarged">      0.00000000 </i>
    <i name="Edipol_quadrupol">      0.00000000 </i>
    <i name="Eion">      0.00000000 </i>
   </dipole>
   <energy>
    <i name="e_fr_energy">   -480.86016745 </i>
    <i name="e_wo_entrp">   -480.81926709 </i>
    <i name="e_0_energy">   -480.83971727 </i>
   </energy>
  </scstep>
  <scstep>
   <time name="dav">    1.69    1.69</time>
   <time name="total">    1.76    1.77</time>
   <dipole>
    <v name="dipole">      0.00000000       0.00000000       0.05696711 </v>
    <i name="Tr[quadrupol]">  -8080.62531445 </i>
    <i name="Echarged">      0.00000000 </i>
    <i name="Edipol_quadrupol">      0.00000000 </i>
    <i name="Eion">      0.00000000 </i>
   </dipole>
   <energy>
    <i name="e_fr_energy">   -480.84385366 </i>
    <i name="e_wo_entrp">   -480.76429925 </i>
    <i name="e_0_energy">   -480.80407646 </i>
   </energy>
  </scstep>
  <scstep>
   <time name="dav">    1.89    1.89</time>
   <time name="total">    1.97    1.97</time>
   <dipole>
    <v name="dipole">      0.00000000       0.00000000       0.07108191 </v>
    <i name="Tr[quadrupol]">  -8080.63357160 </i>
    <i name="Echarged">      0.00000000 </i>
    <i name="Edipol_quadrupol">      0.00000000 </i>
    <i name="Eion">      0.00000000 </i>
   </dipole>
   <energy>
    <i name="e_fr_energy">   -480.83529145 </i>
    <i name="e_wo_entrp">   -480.76515316 </i>
    <i name="e_0_energy">   -480.80022231 </i>
   </energy>
  </scstep>
  <scstep>
   <time name="dav">    1.83    1.83</time>
   <time name="total">    1.91    1.91</time>
   <dipole>
    <v name="dipole">      0.00000000       0.00000000       0.05957534 </v>
    <i name="Tr[quadrupol]">  -8080.64067119 </i>
    <i name="Echarged">      0.00000000 </i>
    <i name="Edipol_quadrupol">      0.00000000 </i>
    <i name="Eion">      0.00000000 </i>
   </dipole>
   <energy>
    <i name="e_fr_energy">   -480.83145984 </i>
    <i name="e_wo_entrp">   -480.76335988 </i>
    <i name="e_0_energy">   -480.79740986 </i>
   </energy>
  </scstep>
  <scstep>
   <time name="dav">    1.95    1.95</time>
   <time name="total">    2.03    2.03</time>
   <dipole>
    <v name="dipole">      0.00000000       0.00000000       0.05550032 </v>
    <i name="Tr[quadrupol]">  -8080.64499740 </i>
    <i name="Echarged">      0.00000000 </i>
    <i name="Edipol_quadrupol">      0.00000000 </i>
    <i name="Eion">      0.00000000 </i>
   </dipole>
   <energy>
    <i name="e_fr_energy">   -480.82779638 </i>
    <i name="e_wo_entrp">   -480.76479742 </i>
    <i name="e_0_energy">   -480.79629690 </i>
   </energy>
  </scstep>
  <scstep>
   <time name="dav">    1.88    1.89</time>
   <time name="total">    1.97    1.98</time>
   <dipole>
    <v name="dipole">      0.00000000       0.00000000       0.05468194 </v>
    <i name="Tr[quadrupol]">  -8080.63756263 </i>
    <i name="Echarged">      0.00000000 </i>
[...]
       <r>    1.8448    0.0000 </r>
       <r>    1.9304    0.0000 </r>
       <r>    1.9683    0.0000 </r>
       <r>    2.0744    0.0000 </r>
       <r>    2.4098    0.0000 </r>
       <r>    2.4647    0.0000 </r>
       <r>    2.5944    0.0000 </r>
       <r>    2.6896    0.0000 </r>
       <r>    2.7149    0.0000 </r>
      </set>
     </set>
    </set>
   </array>
  </eigenvalues>
  <separator name="orbital magnetization" >
   <v name="MAGDIPOLOUT">      0.00000000      0.00000000      0.00000000</v>
  </separator>
  <dos>
   <i name="efermi">     -1.97528168 </i>
   <total>
    <array>
     <dimension dim="1">gridpoints</dimension>
     <dimension dim="2">spin</dimension>
     <field>energy</field>
     <field>total</field>
     <field>integrated</field>
     <set>
      <set comment="spin 1">
       <r>   -27.6962     0.0000     0.0000 </r>
       <r>   -27.5897     0.0000     0.0000 </r>
       <r>   -27.4832     0.0000     0.0000 </r>
       <r>   -27.3767     0.0000     0.0000 </r>
       <r>   -27.2701     0.0000     0.0000 </r>
       <r>   -27.1636     0.0000     0.0000 </r>
       <r>   -27.0571     0.0000     0.0000 </r>
       <r>   -26.9506     0.0000     0.0000 </r>
       <r>   -26.8441     0.0000     0.0000 </r>
       <r>   -26.7376     0.0000     0.0000 </r>
       <r>   -26.6311     0.0000     0.0000 </r>
       <r>   -26.5246     0.0002     0.0000 </r>
       <r>   -26.4181     0.0436     0.0047 </r>
       <r>   -26.3116     1.4616     0.1603 </r>
       <r>   -26.2051     9.6248     1.1855 </r>
       <r>   -26.0986    20.8921     3.4107 </r>
       <r>   -25.9920    26.7620     6.2610 </r>
       <r>   -25.8855    14.4221     7.7971 </r>
       <r>   -25.7790     1.8624     7.9955 </r>
       <r>   -25.6725     0.0422     8.0000 </r>
       <r>   -25.5660     0.0001     8.0000 </r>
       <r>   -25.4595     0.0000     8.0000 </r>
       <r>   -25.3530     0.0021     8.0002 </r>
       <r>   -25.2465     0.2303     8.0247 </r>
       <r>   -25.1400     3.9407     8.4445 </r>
       <r>   -25.0335    13.8252     9.9170 </r>
       <r>   -24.9270    15.6356    11.5823 </r>
       <r>   -24.8204    11.7904    12.8381 </r>
       <r>   -24.7139     8.8716    13.7830 </r>
       <r>   -24.6074     9.3601    14.7799 </r>
       <r>   -24.5009     5.9172    15.4101 </r>
       <r>   -24.3944     0.8252    15.4980 </r>
       <r>   -24.2879     0.0355    15.5018 </r>
       <r>   -24.1814     0.5450    15.5599 </r>
       <r>   -24.0749     2.5605    15.8326 </r>
       <r>   -23.9684     6.2711    16.5005 </r>
       <r>   -23.8619    23.9197    19.0482 </r>
       <r>   -23.7554    32.4852    22.5081 </r>
       <r>   -23.6488    15.6899    24.1792 </r>
       <r>   -23.5423     2.8519    24.4830 </r>
       <r>   -23.4358     0.1636    24.5004 </r>
       <r>   -23.3293     0.4128    24.5444 </r>
       <r>   -23.2228     4.6126    25.0357 </r>
       <r>   -23.1163    10.2174    26.1239 </r>
       <r>   -23.0098     7.9960    26.9756 </r>
       <r>   -22.9033     8.7455    27.9070 </r>
       <r>   -22.7968    12.6249    29.2517 </r>
       <r>   -22.6903    12.7758    30.6124 </r>
       <r>   -22.5838     9.7404    31.6499 </r>
       <r>   -22.4773     3.0551    31.9753 </r>
       <r>   -22.3707     0.2295    31.9997 </r>
       <r>   -22.2642     0.0030    32.0000 </r>
       <r>   -22.1577     0.0548    32.0059 </r>
       <r>   -22.0512     1.7358    32.1907 </r>
       <r>   -21.9447    12.8464    33.5590 </r>
       <r>   -21.8382    35.0285    37.2898 </r>
       <r>   -21.7317    39.2235    41.4675 </r>
       <r>   -21.6252    29.7947    44.6409 </r>
       <r>   -21.5187    22.6922    47.0578 </r>
       <r>   -21.4122     8.1551    47.9264 </r>
       <r>   -21.3057     0.7461    48.0058 </r>
       <r>   -21.1991     1.2196    48.1357 </r>
       <r>   -21.0926     5.3777    48.7085 </r>
       <r>   -20.9861    14.5548    50.2587 </r>
       <r>   -20.8796    21.7650    52.5769 </r>
       <r>   -20.7731    19.5136    54.6553 </r>
       <r>   -20.6666    10.2806    55.7502 </r>
       <r>   -20.5601     2.6133    56.0286 </r>
       <r>   -20.4536     7.3598    56.8124 </r>
       <r>   -20.3471    23.5146    59.3170 </r>
       <r>   -20.2406    25.1554    61.9962 </r>
       <r>   -20.1341    15.3494    63.6311 </r>
       <r>   -20.0276     3.2955    63.9821 </r>
       <r>   -19.9210     0.1668    63.9998 </r>
       <r>   -19.8145     0.0015    64.0000 </r>
       <r>   -19.7080     0.0000    64.0000 </r>
       <r>   -19.6015     0.0000    64.0000 </r>
       <r>   -19.4950     0.0000    64.0000 </r>
       <r>   -19.3885     0.0000    64.0000 </r>
       <r>   -19.2820     0.0000    64.0000 </r>
       <r>   -19.1755     0.0000    64.0000 </r>
       <r>   -19.0690     0.0000    64.0000 </r>
       <r>   -18.9625     0.0000    64.0000 </r>
       <r>   -18.8560     0.0000    64.0000 </r>
       <r>   -18.7494     0.0000    64.0000 </r>
       <r>   -18.6429     0.0000    64.0000 </r>
       <r>   -18.5364     0.0000    64.0000 </r>
       <r>   -18.4299     0.0000    64.0000 </r>
       <r>   -18.3234     0.0000    64.0000 </r>
       <r>   -18.2169     0.0000    64.0000 </r>
       <r>   -18.1104     0.0000    64.0000 </r>
       <r>   -18.0039     0.0000    64.0000 </r>
       <r>   -17.8974     0.0000    64.0000 </r>
       <r>   -17.7909     0.0000    64.0000 </r>
       <r>   -17.6844     0.0063    64.0007 </r>
       <r>   -17.5779     0.4693    64.0507 </r>
       <r>   -17.4713     5.3856    64.6243 </r>
       <r>   -17.3648    14.0784    66.1238 </r>
       <r>   -17.2583    15.3745    67.7613 </r>
       <r>   -17.1518    12.2187    69.0627 </r>
       <r>   -17.0453    18.1103    70.9916 </r>
       <r>   -16.9388    22.1503    73.3508 </r>
       <r>   -16.8323    20.2871    75.5115 </r>
       <r>   -16.7258    12.4385    76.8363 </r>
       <r>   -16.6193    10.5351    77.9584 </r>
       <r>   -16.5128    10.7250    79.1007 </r>
       <r>   -16.4063     3.5504    79.4789 </r>
       <r>   -16.2997     0.2256    79.5029 </r>
       <r>   -16.1932     0.7214    79.5798 </r>
       <r>   -16.0867     2.5134    79.8474 </r>
       <r>   -15.9802     1.3295    79.9891 </r>
       <r>   -15.8737     0.1019    79.9999 </r>
       <r>   -15.7672     0.0290    80.0030 </r>
       <r>   -15.6607     1.2967    80.1411 </r>
       <r>   -15.5542    12.0848    81.4282 </r>
       <r>   -15.4477    30.0098    84.6245 </r>
       <r>   -15.3412    22.3929    87.0096 </r>
       <r>   -15.2347     5.4725    87.5924 </r>
       <r>   -15.1281     2.8728    87.8984 </r>
       <r>   -15.0216     2.3623    88.1500 </r>
       <r>   -14.9151     2.6588    88.4332 </r>
       <r>   -14.8086     2.0179    88.6481 </r>
       <r>   -14.7021     2.5459    88.9193 </r>
       <r>   -14.5956     0.8955    89.0147 </r>
       <r>   -14.4891     3.6593    89.4044 </r>
       <r>   -14.3826    13.3516    90.8265 </r>
       <r>   -14.2761    12.7445    92.1839 </r>
       <r>   -14.1696    10.7048    93.3240 </r>
       <r>   -14.0631    11.7516    94.5757 </r>
       <r>   -13.9566    14.1315    96.0808 </r>
       <r>   -13.8500    25.0971    98.7539 </r>
       <r>   -13.7435    27.4690   101.6796 </r>
       <r>   -13.6370    29.8154   104.8552 </r>
       <r>   -13.5305    31.2949   108.1883 </r>
       <r>   -13.4240    22.0702   110.5390 </r>
       <r>   -13.3175    17.5563   112.4089 </r>
       <r>   -13.2110    15.3640   114.0453 </r>
       <r>   -13.1045     5.5311   114.6344 </r>
       <r>   -12.9980     5.8387   115.2563 </r>
       <r>   -12.8915     7.5557   116.0610 </r>
       <r>   -12.7850     8.4450   116.9605 </r>
       <r>   -12.6784     7.8814   117.8000 </r>
       <r>   -12.5719     5.5456   118.3906 </r>
       <r>   -12.4654     5.0816   118.9318 </r>
       <r>   -12.3589     8.6463   119.8527 </r>
       <r>   -12.2524     6.7029   120.5667 </r>
       <r>   -12.1459     5.8456   121.1893 </r>
       <r>   -12.0394     6.5762   121.8897 </r>
       <r>   -11.9329    12.9487   123.2689 </r>
       <r>   -11.8264    18.1334   125.2002 </r>
       <r>   -11.7199    21.5564   127.4962 </r>
       <r>   -11.6134    23.3947   129.9879 </r>
       <r>   -11.5069    19.7724   132.0938 </r>
       <r>   -11.4003    18.3299   134.0461 </r>
       <r>   -11.2938    18.5678   136.0238 </r>
       <r>   -11.1873    18.7229   138.0179 </r>
       <r>   -11.0808    11.5330   139.2463 </r>
       <r>   -10.9743     9.2889   140.2356 </r>
       <r>   -10.8678     6.0682   140.8819 </r>
       <r>   -10.7613     4.8603   141.3996 </r>
       <r>   -10.6548     9.8068   142.4441 </r>
       <r>   -10.5483    19.0959   144.4780 </r>
       <r>   -10.4418    20.9312   146.7074 </r>
       <r>   -10.3353    18.0291   148.6276 </r>
       <r>   -10.2287    16.1317   150.3458 </r>
       <r>   -10.1222    11.5307   151.5739 </r>
       <r>   -10.0157     3.8126   151.9800 </r>
       <r>    -9.9092     1.4967   152.1394 </r>
       <r>    -9.8027     3.5642   152.5190 </r>
       <r>    -9.6962     7.6341   153.3321 </r>
       <r>    -9.5897    10.6927   154.4710 </r>
       <r>    -9.4832    14.7545   156.0425 </r>
       <r>    -9.3767    21.4407   158.3261 </r>
       <r>    -9.2702    14.5849   159.8795 </r>
       <r>    -9.1637    20.9787   162.1139 </r>
       <r>    -9.0572    31.1778   165.4346 </r>
       <r>    -8.9506    20.7247   167.6420 </r>
       <r>    -8.8441    10.4825   168.7585 </r>
       <r>    -8.7376     9.5212   169.7726 </r>
       <r>    -8.6311     4.5331   170.2554 </r>
       <r>    -8.5246    10.0075   171.3213 </r>
       <r>    -8.4181     8.6760   172.2453 </r>
       <r>    -8.3116     3.2453   172.5910 </r>
       <r>    -8.2051     9.0315   173.5529 </r>
       <r>    -8.0986    17.0655   175.3705 </r>
       <r>    -7.9921    16.0044   177.0751 </r>
       <r>    -7.8856    24.1582   179.6482 </r>
       <r>    -7.7790    18.0297   181.5685 </r>
       <r>    -7.6725     3.8595   181.9796 </r>
       <r>    -7.5660     1.1925   182.1066 </r>
       <r>    -7.4595    12.4546   183.4331 </r>
       <r>    -7.3530    33.6927   187.0217 </r>
       <r>    -7.2465    34.1211   190.6559 </r>
       <r>    -7.1400    30.6942   193.9251 </r>
       <r>    -7.0335    35.3785   197.6932 </r>
       <r>    -6.9270    35.8216   201.5085 </r>
       <r>    -6.8205    21.3550   203.7830 </r>
       <r>    -6.7140    10.5163   204.9031 </r>
       <r>    -6.6075    10.5085   206.0224 </r>
       <r>    -6.5009    17.9149   207.9304 </r>
       <r>    -6.3944    26.4520   210.7478 </r>
       <r>    -6.2879    19.5642   212.8316 </r>
       <r>    -6.1814    14.8827   214.4167 </r>
       <r>    -6.0749    11.2793   215.6181 </r>
       <r>    -5.9684     5.3805   216.1911 </r>
       <r>    -5.8619     9.9291   217.2487 </r>
       <r>    -5.7554    16.2298   218.9773 </r>
       <r>    -5.6489    20.4557   221.1560 </r>
       <r>    -5.5424    23.9920   223.7113 </r>
       <r>    -5.4359    29.9818   226.9047 </r>
       <r>    -5.3293    43.7509   231.5645 </r>
       <r>    -5.2228    39.8299   235.8067 </r>
       <r>    -5.1163    34.9058   239.5245 </r>
       <r>    -5.0098    46.2923   244.4551 </r>
       <r>    -4.9033    42.9183   249.0262 </r>
       <r>    -4.7968    26.3374   251.8314 </r>
       <r>    -4.6903    27.3043   254.7396 </r>
       <r>    -4.5838    22.5233   257.1385 </r>
       <r>    -4.4773    13.8813   258.6170 </r>
       <r>    -4.3708    18.0116   260.5354 </r>
       <r>    -4.2643    19.7254   262.6363 </r>
       <r>    -4.1577    22.5602   265.0391 </r>
       <r>    -4.0512    19.0367   267.0667 </r>
       <r>    -3.9447    10.7005   268.2064 </r>
       <r>    -3.8382    15.5585   269.8635 </r>
       <r>    -3.7317    15.4802   271.5123 </r>
       <r>    -3.6252     7.1183   272.2705 </r>
       <r>    -3.5187    14.1471   273.7773 </r>
       <r>    -3.4122    16.9698   275.5847 </r>
       <r>    -3.3057    11.3059   276.7889 </r>
       <r>    -3.1992     9.4815   277.7987 </r>
       <r>    -3.0927     3.3051   278.1508 </r>
       <r>    -2.9862     9.0798   279.1178 </r>
       <r>    -2.8796    13.6401   280.5706 </r>
       <r>    -2.7731    16.3797   282.3152 </r>
       <r>    -2.6666    17.4476   284.1735 </r>
       <r>    -2.5601    13.3980   285.6005 </r>
       <r>    -2.4536     3.5845   285.9823 </r>
       <r>    -2.3471     0.1712   286.0006 </r>
       <r>    -2.2406     0.5261   286.0566 </r>
       <r>    -2.1341     5.8908   286.6840 </r>
       <r>    -2.0276     9.8777   287.7361 </r>
       <r>    -1.9211     5.0725   288.2763 </r>
       <r>    -1.8146    11.5578   289.5073 </r>
       <r>    -1.7080    13.4826   290.9434 </r>
       <r>    -1.6015    12.4802   292.2726 </r>
       <r>    -1.4950    12.5458   293.6089 </r>
       <r>    -1.3885     9.7652   294.6489 </r>
       <r>    -1.2820     9.3696   295.6469 </r>
       <r>    -1.1755    14.6350   297.2056 </r>
       <r>    -1.0690    22.4076   299.5922 </r>
       <r>    -0.9625    24.9358   302.2481 </r>
       <r>    -0.8560    13.6640   303.7034 </r>
       <r>    -0.7495     4.9398   304.2296 </r>
       <r>    -0.6430     8.5202   305.1371 </r>
       <r>    -0.5365    17.6993   307.0222 </r>
       <r>    -0.4299    20.7910   309.2366 </r>
       <r>    -0.3234    15.2944   310.8656 </r>
       <r>    -0.2169     8.9597   311.8199 </r>
       <r>    -0.1104     1.7264   312.0038 </r>
       <r>    -0.0039     2.2765   312.2462 </r>
       <r>     0.1026     9.2134   313.2275 </r>
       <r>     0.2091     6.9210   313.9647 </r>
       <r>     0.3156     6.1981   314.6248 </r>
       <r>     0.4221    10.0004   315.6900 </r>
       <r>     0.5286     2.7999   315.9882 </r>
       <r>     0.6351     0.1120   316.0001 </r>
       <r>     0.7417     0.2260   316.0242 </r>
       <r>     0.8482     4.2998   316.4821 </r>
       <r>     0.9547    12.9926   317.8660 </r>
       <r>     1.0612    12.9845   319.2489 </r>
       <r>     1.1677    16.0720   320.9607 </r>
       <r>     1.2742    13.2007   322.3667 </r>
       <r>     1.3807    17.1978   324.1985 </r>
       <r>     1.4872    20.0972   326.3390 </r>
       <r>     1.5937    22.0590   328.6885 </r>
       <r>     1.7002    23.4685   331.1881 </r>
       <r>     1.8067    22.6428   333.5997 </r>
       <r>     1.9132    24.6047   336.2203 </r>
       <r>     2.0198    25.7617   338.9642 </r>
       <r>     2.1263    17.6945   340.8488 </r>
       <r>     2.2328    11.1078   342.0319 </r>
       <r>     2.3393    10.8169   343.1840 </r>
       <r>     2.4458    15.0147   344.7832 </r>
       <r>     2.5523    19.2717   346.8358 </r>
       <r>     2.6588    21.5920   349.1355 </r>
       <r>     2.7653    17.6844   351.0191 </r>
       <r>     2.8718     7.9571   351.8666 </r>
       <r>     2.9783     1.2135   351.9958 </r>
       <r>     3.0848     0.0390   352.0000 </r>
       <r>     3.1914     0.0002   352.0000 </r>
       <r>     3.2979     0.0000   352.0000 </r>
       <r>     3.4044     0.0000   352.0000 </r>
       <r>     3.5109     0.0000   352.0000 </r>
       <r>     3.6174     0.0000   352.0000 </r>
       <r>     3.7239     0.0000   352.0000 </r>
       <r>     3.8304     0.0000   352.0000 </r>
       <r>     3.9369     0.0000   352.0000 </r>
       <r>     4.0434     0.0000   352.0000 </r>
       <r>     4.1499     0.0000   352.0000 </r>
       <r>     4.2564     0.0000   352.0000 </r>
      </set>
     </set>
    </array>
   </total>
  </dos>
 </calculation>
 <structure name="finalpos" >
  <crystal>
   <varray name="basis" >
    <v>      13.69171006       0.00000000       0.00000000 </v>
    <v>       0.00000000      10.83946736       0.00000000 </v>
    <v>       0.00000000       0.00000000      15.00000000 </v>
   </varray>
   <i name="volume">   2226.16266569 </i>
   <varray name="rec_basis" >
    <v>       0.07303690       0.00000000       0.00000000 </v>
    <v>       0.00000000       0.09225546       0.00000000 </v>
    <v>       0.00000000       0.00000000       0.06666667 </v>
   </varray>
  </crystal>
  <varray name="positions" >
   <v>       0.07141282       0.38756321       0.22974389 </v>
   <v>       0.98078363       0.21970593       0.16507428 </v>
   <v>       0.23035142       0.39540335       0.19876770 </v>
   <v>       0.81873474       0.58128467       0.18823179 </v>
   <v>       0.15015540       0.25023277       0.12272233 </v>
   <v>       0.90770472       0.38677746       0.22499078 </v>
   <v>       0.57002009       0.39242335       0.23468525 </v>
   <v>       0.47830429       0.22208794       0.17709882 </v>
   <v>       0.73090676       0.39713159       0.20485084 </v>
   <v>       0.31182051       0.58434467       0.18651739 </v>
   <v>       0.64588461       0.25764532       0.12660411 </v>
   <v>       0.40537176       0.39381703       0.22859492 </v>
   <v>       0.81570695       0.88992858       0.04364468 </v>
   <v>       0.72731795       0.72190476       0.11138349 </v>
   <v>       0.97619636       0.89732445       0.06902177 </v>
   <v>       0.06728534       0.08038639       0.08300954 </v>
   <v>       0.89827077       0.75273585       0.14774870 </v>
   <v>       0.65181935       0.89005689       0.05502106 </v>
   <v>       0.31650978       0.89095794       0.03982652 </v>
   <v>       0.22534763       0.72047127       0.10138312 </v>
   <v>       0.47413782       0.90293425       0.07757289 </v>
   <v>       0.56482725       0.08473868       0.09298482 </v>
   <v>       0.38970111       0.76272407       0.15353423 </v>
   <v>       0.15260249       0.88678485       0.04122492 </v>
   <v>       0.98859049       0.44074052       0.25545132 </v>
   <v>       0.89940883       0.26930254       0.19736159 </v>
   <v>       0.15918312       0.42886957       0.25411464 </v>
   <v>       0.14775475       0.14828870       0.07351998 </v>
   <v>       0.98423963       0.10977635       0.12552898 </v>
   <v>       0.23082228       0.31831431       0.13013096 </v>
   <v>       0.06755436       0.28761784       0.17060345 </v>
   <v>       0.82146240       0.45846580       0.22070385 </v>
   <v>       0.48798292       0.45214061       0.25377317 </v>
   <v>       0.39913290       0.27065295       0.21386244 </v>
   <v>       0.65991442       0.42642765       0.26343925 </v>
   <v>       0.64330342       0.15489450       0.07868107 </v>
   <v>       0.48273111       0.11183584       0.13809770 </v>
   <v>       0.72573150       0.32742557       0.13240949 </v>
   <v>       0.56483268       0.29256558       0.17689643 </v>
   <v>       0.31971919       0.46139061       0.21400956 </v>
   <v>       0.73191218       0.94378301       0.02194953 </v>
   <v>       0.64451366       0.77229761       0.08313390 </v>
   <v>       0.90303586       0.93000789       0.01578192 </v>
   <v>       0.89883174       0.64982767       0.19597653 </v>
   <v>       0.73305387       0.61124075       0.15023540 </v>
   <v>       0.97787205       0.82231880       0.13900671 </v>
   <v>       0.81411226       0.78906548       0.10217822 </v>
   <v>       0.56648960       0.96180553       0.06216197 </v>
   <v>       0.23405552       0.94158828       0.01160013 </v>
   <v>       0.14508304       0.76761573       0.06582055 </v>
   <v>       0.40577994       0.93167754       0.01821468 </v>
   <v>       0.38612069       0.66172066       0.20498051 </v>
   <v>       0.23114025       0.60988726       0.13994890 </v>
   <v>       0.46926101       0.83230939       0.15002883 </v>
   <v>       0.31077988       0.79234167       0.10018036 </v>
   <v>       0.06738871       0.95828850       0.05006437 </v>
   <v>       0.61334039       0.75787671       0.42206189 </v>
   <v>       0.66078202       0.56035356       0.35234309 </v>
   <v>       0.50007064       0.63700915       0.30468840 </v>
  </varray>
 </structure>
</modeling>
