slab_Cel1-OPT                           
           1
    13.759704    0.000000    0.000000
     0.000000   11.286700    0.000000
     0.000000    0.000000   15.000000
   C    N    Ag   Cu   Pd
    24    32     1     1     1
Direct configuration=     1
   0.07054120  0.38816457  0.22227495
   0.98151180  0.21832942  0.16785344
   0.22877304  0.39667288  0.18904348
   0.82472337  0.57572318  0.18403191
   0.14970601  0.24663792  0.12277753
   0.90758628  0.38434512  0.21811946
   0.56886571  0.39316130  0.23173729
   0.47768100  0.22391730  0.18017943
   0.73035049  0.39802658  0.19909345
   0.31101118  0.58132963  0.17977696
   0.64681854  0.25040749  0.13377315
   0.40275100  0.39355427  0.22106508
   0.81808056  0.88988957  0.05647519
   0.73319531  0.72568325  0.12448457
   0.97932824  0.89597624  0.07999408
   0.06867909  0.07698375  0.09423854
   0.90528082  0.74258583  0.14719628
   0.65472406  0.89333727  0.07691603
   0.31825350  0.89473226  0.05377466
   0.22716619  0.72126926  0.10084126
   0.47498917  0.90396535  0.09489577
   0.56592959  0.08075138  0.11024766
   0.38612516  0.76037560  0.16363174
   0.15509033  0.88950396  0.05271529
   0.98784551  0.43883046  0.24713656
   0.89991795  0.26975381  0.19549767
   0.15759857  0.43325808  0.24240148
   0.14788829  0.14353661  0.08017307
   0.98633649  0.10796021  0.13653167
   0.22915942  0.31533454  0.12527490
   0.06735802  0.28598388  0.16888911
   0.82274912  0.45552252  0.21014877
   0.48493735  0.44793349  0.25146232
   0.39648714  0.27665554  0.20625030
   0.65756919  0.43524210  0.25419888
   0.64488604  0.14640144  0.09374788
   0.48286722  0.11321356  0.15081376
   0.72606390  0.31870920  0.13454719
   0.56470606  0.29135323  0.18008364
   0.31888640  0.46086995  0.20329135
   0.73287748  0.94248397  0.03965616
   0.64891188  0.78317499  0.11254597
   0.90382696  0.93469024  0.03189926
   0.90701680  0.63807548  0.18754912
   0.73647441  0.61699787  0.15934394
   0.98321706  0.81212363  0.14197152
   0.81925020  0.78400528  0.10639513
   0.56804185  0.96074410  0.08520074
   0.23699719  0.94478449  0.02657725
   0.14820250  0.77173059  0.06843984
   0.40793432  0.93556381  0.03646331
   0.38047481  0.65838217  0.20939239
   0.23501053  0.60894863  0.12850628
   0.46527775  0.83024755  0.16578047
   0.31113112  0.79334051  0.10891910
   0.06990262  0.95754122  0.06514651
   0.57736557  0.77647674  0.24193941
   0.65582252  0.60772566  0.29790490
   0.48700699  0.61617049  0.29396059
slab_Cel1-OPT                           
           1
    13.764102    0.000000    0.000000
     0.000000   11.284375    0.000000
     0.000000    0.000000   15.000000
   C    N    Ag   Cu   Pd
    24    32     1     1     1
Direct configuration=     2
   0.07054334  0.38815837  0.22225943
   0.98153571  0.21842063  0.16787550
   0.22878611  0.39672175  0.18903859
   0.82483695  0.57573694  0.18410762
   0.14972637  0.24674065  0.12282118
   0.90759407  0.38440894  0.21813034
   0.56886937  0.39311808  0.23170806
   0.47776465  0.22411102  0.18022041
   0.73024484  0.39820817  0.19923786
   0.31086798  0.58134607  0.17972707
   0.64682753  0.25066553  0.13382695
   0.40282758  0.39361494  0.22109646
   0.81814699  0.88990111  0.05648649
   0.73339159  0.72574217  0.12432650
   0.97934804  0.89605130  0.07998682
   0.06867979  0.07709673  0.09423290
   0.90532020  0.74273979  0.14715670
   0.65481606  0.89345731  0.07685191
   0.31820358  0.89472601  0.05378613
   0.22722467  0.72140848  0.10082911
   0.47497858  0.90405459  0.09490417
   0.56594829  0.08098448  0.11022038
   0.38595658  0.76046666  0.16346643
   0.15501420  0.88953466  0.05272132
   0.98786787  0.43882053  0.24712431
   0.89989400  0.26973212  0.19550388
   0.15762575  0.43326066  0.24239758
   0.14784636  0.14345908  0.08015931
   0.98638226  0.10792287  0.13650789
   0.22915276  0.31525755  0.12522744
   0.06734739  0.28596513  0.16889899
   0.82275982  0.45545219  0.21019103
   0.48476888  0.44710009  0.25113932
   0.39649419  0.27655339  0.20630768
   0.65777647  0.43506209  0.25418899
   0.64480471  0.14621872  0.09372677
   0.48290703  0.11305751  0.15076962
   0.72597393  0.31856534  0.13440782
   0.56462174  0.29117230  0.18001692
   0.31881356  0.46080379  0.20322846
   0.73284761  0.94248920  0.03967094
   0.64934829  0.78320993  0.11179399
   0.90379757  0.93467293  0.03191380
   0.90693886  0.63788718  0.18756267
   0.73644876  0.61697591  0.15934345
   0.98317747  0.81200945  0.14197614
   0.81916553  0.78392998  0.10647305
   0.56800865  0.96060513  0.08515644
   0.23706178  0.94477294  0.02660677
   0.14816718  0.77172142  0.06839732
   0.40799053  0.93553092  0.03645361
   0.37974840  0.65846195  0.20884677
   0.23505544  0.60892277  0.12857576
   0.46402947  0.83092477  0.16500891
   0.31109684  0.79327494  0.10891062
   0.06989359  0.95742415  0.06512515
   0.57892039  0.77864499  0.24283505
   0.65680322  0.60696813  0.29825807
   0.48617151  0.61484495  0.29545479
slab_Cel1-OPT                           
           1
    13.776481    0.000000    0.000000
     0.000000   11.277832    0.000000
     0.000000    0.000000   15.000000
   C    N    Ag   Cu   Pd
    24    32     1     1     1
Direct configuration=     3
   0.07054934  0.38814092  0.22221575
   0.98160297  0.21867734  0.16793760
   0.22882291  0.39685929  0.18902484
   0.82515645  0.57577568  0.18432066
   0.14978364  0.24702982  0.12294403
   0.90761596  0.38458859  0.21816097
   0.56887967  0.39299643  0.23162578
   0.47799995  0.22465629  0.18033573
   0.72994763  0.39871930  0.19964422
   0.31046514  0.58139236  0.17958670
   0.64685280  0.25139185  0.13397836
   0.40304300  0.39378570  0.22118479
   0.81833384  0.88993360  0.05651829
   0.73394375  0.72590801  0.12388166
   0.97940376  0.89626259  0.07996641
   0.06868174  0.07741470  0.09421701
   0.90543097  0.74317314  0.14704533
   0.65507490  0.89379518  0.07667147
   0.31806317  0.89470841  0.05381842
   0.22738921  0.72180034  0.10079491
   0.47494880  0.90430575  0.09492780
   0.56600090  0.08164057  0.11014360
   0.38548233  0.76072296  0.16300126
   0.15480004  0.88962107  0.05273830
   0.98793078  0.43879256  0.24708983
   0.89982662  0.26967107  0.19552134
   0.15770222  0.43326792  0.24238662
   0.14772842  0.14324086  0.08012057
   0.98651102  0.10781776  0.13644097
   0.22913401  0.31504084  0.12509388
   0.06731748  0.28591237  0.16892678
   0.82278993  0.45525426  0.21030994
   0.48429494  0.44475437  0.25023040
   0.39651401  0.27626586  0.20646916
   0.65835959  0.43455543  0.25416115
   0.64457589  0.14570442  0.09366736
   0.48301902  0.11261828  0.15064540
   0.72572081  0.31816045  0.13401560
   0.56438451  0.29066304  0.17982918
   0.31860864  0.46061758  0.20305147
   0.73276359  0.94250394  0.03971253
   0.65057599  0.78330830  0.10967789
   0.90371490  0.93462420  0.03195472
   0.90671961  0.63735717  0.18760079
   0.73637662  0.61691413  0.15934208
   0.98306607  0.81168809  0.14198913
   0.81892732  0.78371803  0.10669232
   0.56791526  0.96021396  0.08503177
   0.23724349  0.94474044  0.02668982
   0.14806783  0.77169560  0.06827765
   0.40814867  0.93543835  0.03642631
   0.37770489  0.65868650  0.20731137
   0.23518179  0.60884996  0.12877126
   0.46051785  0.83283090  0.16283769
   0.31100039  0.79309038  0.10888676
   0.06986820  0.95709463  0.06506505
   0.58329437  0.78474783  0.24535544
   0.65956209  0.60483596  0.29925191
   0.48382118  0.61111403  0.29965958
slab_Cel1-OPT                           
           1
    13.780126    0.000000    0.000000
     0.000000   11.262771    0.000000
     0.000000    0.000000   15.000000
   C    N    Ag   Cu   Pd
    24    32     1     1     1
Direct configuration=     4
   0.07062964  0.38820003  0.22219820
   0.98158183  0.21858025  0.16791130
   0.22889621  0.39680750  0.18893809
   0.82486699  0.57579134  0.18435443
   0.14975001  0.24681079  0.12285360
   0.90756928  0.38456471  0.21816968
   0.56906560  0.39240917  0.23128969
   0.47795330  0.22406610  0.18019028
   0.73024769  0.39827999  0.19923715
   0.30988089  0.58114165  0.17928656
   0.64658590  0.25072750  0.13363603
   0.40239660  0.39295835  0.22090307
   0.81803849  0.89000140  0.05657700
   0.73421808  0.72558300  0.12359160
   0.97937225  0.89617646  0.07998212
   0.06869211  0.07741738  0.09414478
   0.90520426  0.74268519  0.14726048
   0.65518322  0.89400284  0.07634457
   0.31839373  0.89464862  0.05392224
   0.22738703  0.72174025  0.10080456
   0.47439140  0.90522789  0.09392555
   0.56590371  0.08138895  0.10998497
   0.38418123  0.76061875  0.16226650
   0.15488692  0.88963916  0.05269982
   0.98796691  0.43880772  0.24706408
   0.89990225  0.26967946  0.19554007
   0.15764033  0.43323005  0.24235070
   0.14770929  0.14342951  0.08016761
   0.98653541  0.10798767  0.13648985
   0.22912599  0.31503939  0.12511472
   0.06734226  0.28599399  0.16898958
   0.82278457  0.45516391  0.21047357
   0.48479869  0.44468278  0.25006187
   0.39645874  0.27598940  0.20664587
   0.65809928  0.43433724  0.25449397
   0.64468249  0.14621368  0.09375447
   0.48294574  0.11302161  0.15080730
   0.72574177  0.31871508  0.13418919
   0.56461553  0.29085416  0.17981696
   0.31853842  0.46060939  0.20293900
   0.73326281  0.94290451  0.03961758
   0.65059959  0.78278234  0.10853960
   0.90385395  0.93462096  0.03202068
   0.90691378  0.63764452  0.18747056
   0.73646645  0.61692607  0.15936421
   0.98314380  0.81178370  0.14183544
   0.81941198  0.78400413  0.10673770
   0.56800952  0.96030739  0.08497209
   0.23693307  0.94481548  0.02674799
   0.14808823  0.77167383  0.06821509
   0.40786382  0.93563282  0.03588832
   0.37797262  0.65879668  0.20737011
   0.23463573  0.60905534  0.12844697
   0.46062200  0.83288363  0.16365714
   0.31017851  0.79325391  0.10825392
   0.06984147  0.95715040  0.06501581
   0.58525403  0.78777943  0.24758907
   0.66086727  0.60365971  0.29988273
   0.48307825  0.61019227  0.30218153
slab_Cel1-OPT                           
           1
    13.782361    0.000000    0.000000
     0.000000   11.253537    0.000000
     0.000000    0.000000   15.000000
   C    N    Ag   Cu   Pd
    24    32     1     1     1
Direct configuration=     5
   0.07067884  0.38823631  0.22218744
   0.98156888  0.21852065  0.16789518
   0.22894113  0.39677571  0.18888491
   0.82468957  0.57580096  0.18437512
   0.14972940  0.24667633  0.12279816
   0.90754067  0.38455006  0.21817502
   0.56917956  0.39204866  0.23108365
   0.47792470  0.22370379  0.18010111
   0.73043160  0.39801031  0.19898760
   0.30952281  0.58098774  0.17910256
   0.64642233  0.25031969  0.13342617
   0.40200043  0.39245047  0.22073036
   0.81785747  0.89004301  0.05661300
   0.73438621  0.72538349  0.12341377
   0.97935294  0.89612358  0.07999176
   0.06869846  0.07741903  0.09410050
   0.90506531  0.74238565  0.14739238
   0.65524960  0.89413031  0.07614417
   0.31859632  0.89461191  0.05398589
   0.22738570  0.72170336  0.10081048
   0.47404978  0.90579395  0.09331113
   0.56584415  0.08123449  0.10988771
   0.38338380  0.76055477  0.16181605
   0.15494017  0.88965026  0.05267622
   0.98798905  0.43881702  0.24704830
   0.89994859  0.26968461  0.19555155
   0.15760239  0.43320680  0.24232868
   0.14769757  0.14354532  0.08019645
   0.98655035  0.10809198  0.13651982
   0.22912107  0.31503850  0.12512750
   0.06735745  0.28604410  0.16902807
   0.82278129  0.45510844  0.21057389
   0.48510743  0.44463883  0.24995856
   0.39642486  0.27581969  0.20675420
   0.65793975  0.43420329  0.25469800
   0.64474782  0.14652629  0.09380787
   0.48290082  0.11326919  0.15090655
   0.72575461  0.31905554  0.13429562
   0.56475712  0.29097148  0.17980946
   0.31849539  0.46060437  0.20287006
   0.73356878  0.94315040  0.03955938
   0.65061405  0.78245948  0.10784178
   0.90393916  0.93461896  0.03206112
   0.90703278  0.63782092  0.18739073
   0.73652151  0.61693340  0.15937777
   0.98319144  0.81184239  0.14174122
   0.81970902  0.78417976  0.10676553
   0.56806729  0.96036474  0.08493551
   0.23674282  0.94486154  0.02678364
   0.14810073  0.77166046  0.06817673
   0.40768925  0.93575220  0.03555850
   0.37813670  0.65886432  0.20740612
   0.23430105  0.60918141  0.12824816
   0.46068583  0.83291599  0.16415950
   0.30967478  0.79335429  0.10786596
   0.06982508  0.95718464  0.06498562
   0.58645507  0.78964044  0.24895840
   0.66166719  0.60293765  0.30026946
   0.48262291  0.60962643  0.30372761
slab_Cel1-OPT                           
           1
    13.765271    0.000000    0.000000
     0.000000   11.237487    0.000000
     0.000000    0.000000   15.000000
   C    N    Ag   Cu   Pd
    24    32     1     1     1
Direct configuration=     6
   0.07065529  0.38830760  0.22216564
   0.98160801  0.21863605  0.16792985
   0.22875104  0.39659914  0.18885498
   0.82463691  0.57578972  0.18448143
   0.14964138  0.24676008  0.12284391
   0.90769025  0.38450817  0.21824529
   0.56937059  0.39178441  0.23084399
   0.47771822  0.22381506  0.18022786
   0.73043559  0.39774617  0.19902711
   0.30934939  0.58115163  0.17889622
   0.64652817  0.25080871  0.13336851
   0.40214149  0.39217699  0.22061495
   0.81839300  0.89030981  0.05664405
   0.73440864  0.72539812  0.12284251
   0.97923200  0.89594105  0.07993928
   0.06858827  0.07721754  0.09402114
   0.90535288  0.74282408  0.14737810
   0.65553094  0.89392886  0.07549395
   0.31772870  0.89506092  0.05351271
   0.22653580  0.72181344  0.10035903
   0.47370984  0.90546937  0.09352231
   0.56578079  0.08089756  0.10971346
   0.38323562  0.76079301  0.16153260
   0.15488220  0.88960581  0.05264880
   0.98795944  0.43892570  0.24703437
   0.90000293  0.26958780  0.19555665
   0.15773648  0.43324862  0.24227060
   0.14769244  0.14352388  0.08010186
   0.98663706  0.10803325  0.13646236
   0.22912964  0.31499815  0.12510852
   0.06742917  0.28603445  0.16901384
   0.82273897  0.45522188  0.21074937
   0.48514971  0.44494704  0.24963685
   0.39626235  0.27475337  0.20684644
   0.65798638  0.43367995  0.25494151
   0.64467675  0.14617465  0.09359136
   0.48305893  0.11291511  0.15072744
   0.72553881  0.31907983  0.13409170
   0.56494262  0.29054741  0.17945997
   0.31817288  0.46044414  0.20265191
   0.73381984  0.94401952  0.03947653
   0.65032232  0.78149199  0.10667470
   0.90389119  0.93466535  0.03206226
   0.90695269  0.63737385  0.18744876
   0.73662459  0.61682635  0.15941002
   0.98316362  0.81159567  0.14176070
   0.81989156  0.78426471  0.10689280
   0.56801345  0.96088602  0.08470288
   0.23697819  0.94501983  0.02690259
   0.14803467  0.77154759  0.06808432
   0.40704191  0.93637075  0.03432538
   0.37835296  0.65850481  0.20751412
   0.23356503  0.60894548  0.12791848
   0.46119752  0.83312387  0.16475882
   0.30907706  0.79360864  0.10705840
   0.06981240  0.95746495  0.06490891
   0.58824631  0.79244048  0.25218846
   0.66268020  0.60176425  0.30102457
   0.48247576  0.60971676  0.30671250
slab_Cel1-OPT                           
           1
    13.754563    0.000000    0.000000
     0.000000   11.227431    0.000000
     0.000000    0.000000   15.000000
   C    N    Ag   Cu   Pd
    24    32     1     1     1
Direct configuration=     7
   0.07064051  0.38835232  0.22215197
   0.98163255  0.21870845  0.16795158
   0.22863179  0.39648836  0.18883622
   0.82460388  0.57578266  0.18454803
   0.14958616  0.24681263  0.12287258
   0.90778409  0.38448189  0.21828932
   0.56949043  0.39161860  0.23069384
   0.47758869  0.22388488  0.18030728
   0.73043810  0.39758044  0.19905187
   0.30924060  0.58125446  0.17876694
   0.64659456  0.25111553  0.13333239
   0.40222997  0.39200540  0.22054264
   0.81872895  0.89047721  0.05666351
   0.73442270  0.72540729  0.12248459
   0.97915614  0.89582653  0.07990639
   0.06851915  0.07709111  0.09397142
   0.90553329  0.74309916  0.14736915
   0.65570743  0.89380247  0.07508657
   0.31718443  0.89534265  0.05321624
   0.22600265  0.72188251  0.10007618
   0.47349659  0.90526572  0.09365463
   0.56574104  0.08068616  0.10960428
   0.38314266  0.76094249  0.16135500
   0.15484584  0.88957792  0.05263162
   0.98794087  0.43899389  0.24702565
   0.90003702  0.26952705  0.19555985
   0.15782060  0.43327486  0.24223422
   0.14768922  0.14351043  0.08004260
   0.98669145  0.10799641  0.13642636
   0.22913501  0.31497284  0.12509663
   0.06747416  0.28602840  0.16900492
   0.82271243  0.45529306  0.21085932
   0.48517624  0.44514042  0.24943529
   0.39616041  0.27408433  0.20690423
   0.65801563  0.43335160  0.25509408
   0.64463217  0.14595402  0.09345571
   0.48315811  0.11269295  0.15061522
   0.72540344  0.31909507  0.13396394
   0.56505899  0.29028133  0.17924100
   0.31797056  0.46034360  0.20251523
   0.73397734  0.94456484  0.03942462
   0.65013931  0.78088495  0.10594347
   0.90386110  0.93469445  0.03206298
   0.90690245  0.63709335  0.18748511
   0.73668926  0.61675919  0.15943023
   0.98314617  0.81144087  0.14177291
   0.82000607  0.78431801  0.10697253
   0.56797967  0.96121309  0.08455714
   0.23712584  0.94511914  0.02697711
   0.14799322  0.77147676  0.06802642
   0.40663583  0.93675885  0.03355278
   0.37848862  0.65827925  0.20758179
   0.23310331  0.60879745  0.12771193
   0.46151851  0.83325429  0.16513431
   0.30870210  0.79376822  0.10655243
   0.06980444  0.95764082  0.06486084
   0.58936999  0.79419731  0.25421222
   0.66331568  0.60102803  0.30149768
   0.48238345  0.60977343  0.30858265
slab_Cel1-OPT                           
           1
    13.740883    0.000000    0.000000
     0.000000   11.211388    0.000000
     0.000000    0.000000   15.000000
   C    N    Ag   Cu   Pd
    24    32     1     1     1
Direct configuration=     8
   0.07069582  0.38846152  0.22216918
   0.98180179  0.21865142  0.16791455
   0.22856716  0.39635727  0.18877903
   0.82472364  0.57580519  0.18470363
   0.14955354  0.24682116  0.12284757
   0.90774849  0.38455875  0.21838080
   0.56928367  0.39177591  0.23063614
   0.47774865  0.22333856  0.18018315
   0.73033222  0.39758906  0.19944622
   0.30915798  0.58149092  0.17855942
   0.64652355  0.25084370  0.13299073
   0.40255629  0.39222125  0.22052945
   0.81888717  0.89077245  0.05669768
   0.73420636  0.72512471  0.12195637
   0.97932535  0.89581830  0.07982131
   0.06853777  0.07715469  0.09389060
   0.90555567  0.74288826  0.14755233
   0.65568935  0.89350068  0.07434424
   0.31705128  0.89562393  0.05262151
   0.22563008  0.72137551  0.09975569
   0.47290026  0.90495653  0.09379469
   0.56582910  0.08084529  0.10947776
   0.38376952  0.76109682  0.16161488
   0.15465600  0.88981026  0.05248104
   0.98798163  0.43922467  0.24709755
   0.89993126  0.26942219  0.19561233
   0.15775628  0.43339353  0.24231388
   0.14768164  0.14338423  0.07986193
   0.98659606  0.10782494  0.13640542
   0.22915377  0.31483843  0.12497423
   0.06745668  0.28608419  0.16901905
   0.82268519  0.45511271  0.21107868
   0.48507506  0.44553737  0.24894114
   0.39570937  0.27339527  0.20720196
   0.65842962  0.43263312  0.25522008
   0.64473167  0.14583110  0.09316912
   0.48314308  0.11219175  0.15046116
   0.72553126  0.31920097  0.13355161
   0.56491532  0.29010308  0.17900335
   0.31790838  0.46008014  0.20226715
   0.73423920  0.94527134  0.03946875
   0.64966124  0.78014861  0.10478588
   0.90422903  0.93497213  0.03191180
   0.90698002  0.63690152  0.18748714
   0.73650386  0.61688065  0.15929220
   0.98353647  0.81150946  0.14181058
   0.81991752  0.78455747  0.10699649
   0.56783770  0.96076655  0.08408060
   0.23612388  0.94595723  0.02673351
   0.14686840  0.77194124  0.06748885
   0.40674821  0.93681262  0.03304768
   0.37853512  0.65825212  0.20732677
   0.23259332  0.60841820  0.12757042
   0.46169354  0.83347007  0.16515522
   0.30903585  0.79356408  0.10625404
   0.06972850  0.95743302  0.06471915
   0.59090496  0.79643776  0.25788297
   0.66390172  0.60010038  0.30227296
   0.48270537  0.61055511  0.31156600
slab_Cel1-OPT                           
           1
    13.726566    0.000000    0.000000
     0.000000   11.194599    0.000000
     0.000000    0.000000   15.000000
   C    N    Ag   Cu   Pd
    24    32     1     1     1
Direct configuration=     9
   0.07075376  0.38857596  0.22218718
   0.98197909  0.21859164  0.16787579
   0.22849946  0.39621989  0.18871918
   0.82484909  0.57582879  0.18486647
   0.14951936  0.24683009  0.12282140
   0.90771120  0.38463930  0.21847654
   0.56906706  0.39194078  0.23057576
   0.47791621  0.22276601  0.18005325
   0.73022130  0.39759809  0.19985893
   0.30907143  0.58173873  0.17834224
   0.64644917  0.25055880  0.13263318
   0.40289814  0.39244747  0.22051564
   0.81905291  0.89108187  0.05673344
   0.73397972  0.72482856  0.12140358
   0.97950262  0.89580969  0.07973226
   0.06855727  0.07722132  0.09380603
   0.90557913  0.74266722  0.14774404
   0.65567040  0.89318440  0.07356737
   0.31691180  0.89591872  0.05199911
   0.22523980  0.72084415  0.09942029
   0.47227557  0.90463249  0.09394127
   0.56592135  0.08101207  0.10934535
   0.38442619  0.76125857  0.16188684
   0.15445714  0.89005376  0.05232346
   0.98802432  0.43946653  0.24717281
   0.89982045  0.26931229  0.19566725
   0.15768890  0.43351790  0.24239725
   0.14767369  0.14325198  0.07967285
   0.98649614  0.10764523  0.13638350
   0.22917341  0.31469757  0.12484614
   0.06743837  0.28614267  0.16903384
   0.82265665  0.45492370  0.21130825
   0.48496906  0.44595339  0.24842399
   0.39523688  0.27267312  0.20751355
   0.65886331  0.43188014  0.25535193
   0.64483591  0.14570228  0.09286920
   0.48312733  0.11166649  0.15029994
   0.72566516  0.31931196  0.13312010
   0.56476482  0.28991627  0.17875465
   0.31784324  0.45980402  0.20200753
   0.73451351  0.94601177  0.03951494
   0.64916043  0.77937690  0.10357442
   0.90461446  0.93526315  0.03175358
   0.90706129  0.63670048  0.18748925
   0.73630965  0.61700793  0.15914774
   0.98394533  0.81158135  0.14185000
   0.81982475  0.78480842  0.10702156
   0.56768898  0.96029856  0.08358189
   0.23507425  0.94683557  0.02647859
   0.14569006  0.77242801  0.06692627
   0.40686594  0.93686899  0.03251908
   0.37858384  0.65822369  0.20705989
   0.23205906  0.60802075  0.12742234
   0.46187690  0.83369622  0.16517710
   0.30938548  0.79335014  0.10594176
   0.06964895  0.95721523  0.06457086
   0.59251295  0.79878581  0.26172452
   0.66451564  0.59912818  0.30308431
   0.48304261  0.61137432  0.31468816
slab_Cel1-OPT                           
           1
    13.712142    0.000000    0.000000
     0.000000   11.179312    0.000000
     0.000000    0.000000   15.000000
   C    N    Ag   Cu   Pd
    24    32     1     1     1
Direct configuration=    10
   0.07062522  0.38873780  0.22229064
   0.98178157  0.21846888  0.16793065
   0.22869041  0.39625369  0.18871310
   0.82439996  0.57574104  0.18500353
   0.14954195  0.24659400  0.12260296
   0.90759522  0.38458154  0.21862274
   0.56888821  0.39216899  0.23049517
   0.47735511  0.22238691  0.18012091
   0.73047709  0.39680994  0.19951192
   0.30908662  0.58137497  0.17826128
   0.64666410  0.25053310  0.13223622
   0.40242187  0.39213003  0.22031929
   0.81887722  0.89150639  0.05672220
   0.73332145  0.72461495  0.12083862
   0.97990338  0.89586587  0.07968759
   0.06849042  0.07707414  0.09363516
   0.90560578  0.74280148  0.14777671
   0.65505561  0.89277624  0.07293918
   0.31668954  0.89606178  0.05132086
   0.22474990  0.72100951  0.09878224
   0.47239469  0.90505849  0.09349193
   0.56603077  0.08027958  0.10888497
   0.38471213  0.76106195  0.16212304
   0.15358125  0.89044382  0.05200019
   0.98803567  0.43975463  0.24732896
   0.89978907  0.26915907  0.19575419
   0.15778487  0.43365130  0.24252393
   0.14771159  0.14334773  0.07946771
   0.98634124  0.10741616  0.13638998
   0.22919700  0.31456947  0.12465192
   0.06746175  0.28617623  0.16900410
   0.82264124  0.45490496  0.21162168
   0.48530252  0.44707050  0.24811706
   0.39546215  0.27264631  0.20797732
   0.65865691  0.43140850  0.25586268
   0.64512155  0.14564549  0.09238847
   0.48301449  0.11096569  0.15016781
   0.72584337  0.31979811  0.13296185
   0.56444202  0.29019157  0.17868795
   0.31828292  0.46014236  0.20172297
   0.73464933  0.94621952  0.03970354
   0.64878801  0.77900960  0.10239844
   0.90509243  0.93556686  0.03148388
   0.90749380  0.63672419  0.18752447
   0.73622985  0.61672287  0.15905083
   0.98415107  0.81151158  0.14205175
   0.81973804  0.78504792  0.10704169
   0.56753044  0.95952541  0.08296201
   0.23489904  0.94772069  0.02607101
   0.14530668  0.77187570  0.06653578
   0.40721492  0.93622507  0.03285574
   0.37881963  0.65824944  0.20679971
   0.23176897  0.60778518  0.12748320
   0.46207263  0.83383595  0.16509288
   0.30996131  0.79292611  0.10581838
   0.06936949  0.95740005  0.06441090
   0.59374759  0.80037509  0.26568507
   0.66459108  0.59860357  0.30388049
   0.48370876  0.61258145  0.31738824
slab_Cel1-OPT                           
           1
    13.707445    0.000000    0.000000
     0.000000   11.174334    0.000000
     0.000000    0.000000   15.000000
   C    N    Ag   Cu   Pd
    24    32     1     1     1
Direct configuration=    11
   0.07058331  0.38879058  0.22232434
   0.98171717  0.21842885  0.16794851
   0.22875266  0.39626472  0.18871112
   0.82425353  0.57571242  0.18504817
   0.14954931  0.24651700  0.12253181
   0.90755740  0.38456270  0.21867036
   0.56882990  0.39224342  0.23046892
   0.47717218  0.22226328  0.18014295
   0.73056049  0.39655289  0.19939890
   0.30909157  0.58125633  0.17823492
   0.64673418  0.25052471  0.13210693
   0.40226659  0.39202651  0.22025534
   0.81881994  0.89164484  0.05671854
   0.73310684  0.72454529  0.12065462
   0.98003404  0.89588419  0.07967304
   0.06846862  0.07702613  0.09357950
   0.90561447  0.74284527  0.14778734
   0.65485517  0.89264313  0.07273459
   0.31661707  0.89610843  0.05109996
   0.22459017  0.72106344  0.09857443
   0.47243352  0.90519743  0.09334558
   0.56606645  0.08004068  0.10873503
   0.38480535  0.76099782  0.16219997
   0.15329568  0.89057103  0.05189490
   0.98803936  0.43984859  0.24737982
   0.89977884  0.26910910  0.19578251
   0.15781616  0.43369480  0.24256519
   0.14772394  0.14337896  0.07940090
   0.98629074  0.10734145  0.13639209
   0.22920469  0.31452769  0.12458867
   0.06746938  0.28618718  0.16899441
   0.82263622  0.45489885  0.21172376
   0.48541124  0.44743484  0.24801709
   0.39553560  0.27263757  0.20812836
   0.65858961  0.43125469  0.25602903
   0.64521468  0.14562696  0.09223190
   0.48297770  0.11073713  0.15012477
   0.72590147  0.31995666  0.13291031
   0.56433678  0.29028135  0.17866622
   0.31842627  0.46025270  0.20163029
   0.73469361  0.94628727  0.03976497
   0.64866659  0.77888981  0.10201543
   0.90524827  0.93566591  0.03139604
   0.90763482  0.63673192  0.18753593
   0.73620383  0.61662990  0.15901927
   0.98421816  0.81148883  0.14211746
   0.81970976  0.78512603  0.10704824
   0.56747874  0.95927326  0.08276011
   0.23484191  0.94800935  0.02593827
   0.14518169  0.77169557  0.06640860
   0.40732870  0.93601507  0.03296538
   0.37889651  0.65825784  0.20671496
   0.23167439  0.60770835  0.12750302
   0.46213644  0.83388152  0.16506545
   0.31014905  0.79278781  0.10577819
   0.06927837  0.95746033  0.06435880
   0.59415013  0.80089341  0.26697499
   0.66461567  0.59843247  0.30413980
   0.48392594  0.61297514  0.31826763
slab_Cel1-OPT                           
           1
    13.692333    0.000000    0.000000
     0.000000   11.163300    0.000000
     0.000000    0.000000   15.000000
   C    N    Ag   Cu   Pd
    24    32     1     1     1
Direct configuration=    12
   0.07062806  0.38886467  0.22242093
   0.98154434  0.21825137  0.16800897
   0.22887665  0.39634754  0.18864132
   0.82422592  0.57599318  0.18519420
   0.14956536  0.24660374  0.12241572
   0.90757414  0.38457697  0.21890773
   0.56880471  0.39248032  0.23039268
   0.47686697  0.22190361  0.18016804
   0.73057591  0.39628517  0.19946875
   0.30930775  0.58148536  0.17812044
   0.64667364  0.25076659  0.13190119
   0.40238901  0.39245345  0.22029370
   0.81902875  0.89191733  0.05672706
   0.73270199  0.72436491  0.12030813
   0.97983507  0.89569892  0.07977663
   0.06824569  0.07724235  0.09347902
   0.90551676  0.74312840  0.14768390
   0.65441279  0.89230171  0.07225965
   0.31662542  0.89564365  0.05101424
   0.22503942  0.72095698  0.09840527
   0.47306509  0.90492674  0.09339743
   0.56609345  0.07931055  0.10820813
   0.38481347  0.76106897  0.16196688
   0.15305758  0.89054459  0.05132531
   0.98783570  0.44000365  0.24758589
   0.89961091  0.26903749  0.19596843
   0.15818010  0.43371187  0.24263190
   0.14764193  0.14317192  0.07907726
   0.98620244  0.10707992  0.13638719
   0.22939127  0.31472642  0.12453373
   0.06739473  0.28611918  0.16893444
   0.82249994  0.45484487  0.21199135
   0.48514555  0.44857848  0.24782836
   0.39566264  0.27290899  0.20867180
   0.65854486  0.43086858  0.25633152
   0.64537398  0.14550488  0.09175979
   0.48299200  0.11018417  0.15001026
   0.72598870  0.31999819  0.13254028
   0.56424304  0.29039017  0.17845667
   0.31869251  0.46019880  0.20140992
   0.73418276  0.94614613  0.03994893
   0.64831888  0.77849460  0.10112030
   0.90535841  0.93565764  0.03121067
   0.90760418  0.63655761  0.18757497
   0.73588730  0.61630247  0.15878920
   0.98431057  0.81171130  0.14225411
   0.81948288  0.78523975  0.10706576
   0.56757056  0.95910974  0.08209511
   0.23508897  0.94815068  0.02563003
   0.14524109  0.77138547  0.06592788
   0.40714311  0.93556106  0.03304487
   0.37924870  0.65761686  0.20683864
   0.23159893  0.60787954  0.12760299
   0.46262388  0.83411493  0.16496047
   0.30984322  0.79272962  0.10524792
   0.06911108  0.95786322  0.06416756
   0.59479822  0.80168108  0.27028138
   0.66426347  0.59834798  0.30476773
   0.48461644  0.61409507  0.32004499
slab_Cel1-OPT                           
           1