  58  58   0   0
  0.4559061E+02  0.1426590E-08  0.1235700E-08  0.1500000E-08  0.1000000E-15
  1.000000000000000E-004
  CAR 
 slab_Cel1-OPT                           
      4.32128196    -28.13282470  301     -2.75255549      1.00000000
    -28.133  0.0000E+00  0.0000E+00
    -28.025  0.0000E+00  0.0000E+00
    -27.916  0.0000E+00  0.0000E+00
    -27.808  0.0000E+00  0.0000E+00
    -27.700  0.0000E+00  0.0000E+00
    -27.592  0.0000E+00  0.0000E+00
    -27.484  0.0000E+00  0.0000E+00
    -27.376  0.0000E+00  0.0000E+00
    -27.267  0.0000E+00  0.0000E+00
    -27.159  0.5921E-14  0.6406E-15
    -27.051  0.1344E-09  0.1454E-10
    -26.943  0.3176E-06  0.3438E-07
    -26.835  0.8149E-04  0.8850E-05
    -26.726  0.2454E-02  0.2743E-03
    -26.618  0.9799E-02  0.1334E-02
    -26.510  0.6136E-02  0.1998E-02
    -26.402  0.7092E-02  0.2765E-02
    -26.294  0.1976E-01  0.4903E-02
    -26.186  0.1925E-01  0.6986E-02
    -26.077  0.8435E-02  0.7898E-02
    -25.969  0.9245E-03  0.7998E-02
    -25.861  0.1506E-04  0.8000E-02
    -25.753  0.2932E-07  0.8000E-02
    -25.645  0.1409E-06  0.8000E-02
    -25.536  0.4332E-04  0.8005E-02
    -25.428  0.1735E-02  0.8192E-02
    -25.320  0.1066E-01  0.9346E-02
    -25.212  0.1548E-01  0.1102E-01
    -25.104  0.1337E-01  0.1247E-01
    -24.996  0.9100E-02  0.1345E-01
    -24.887  0.8990E-02  0.1442E-01
    -24.779  0.7895E-02  0.1528E-01
    -24.671  0.1972E-02  0.1549E-01
    -24.563  0.8264E-04  0.1550E-01
    -24.455  0.3345E-03  0.1554E-01
    -24.347  0.2937E-02  0.1585E-01
    -24.238  0.1126E-01  0.1707E-01
    -24.130  0.2223E-01  0.1948E-01
    -24.022  0.2371E-01  0.2204E-01
    -23.914  0.1826E-01  0.2402E-01
    -23.806  0.4267E-02  0.2448E-01
    -23.697  0.2080E-03  0.2450E-01
    -23.589  0.8635E-03  0.2460E-01
    -23.481  0.6271E-02  0.2527E-01
    -23.373  0.8595E-02  0.2620E-01
    -23.265  0.7500E-02  0.2701E-01
    -23.157  0.1068E-01  0.2817E-01
    -23.048  0.1307E-01  0.2958E-01
    -22.940  0.1244E-01  0.3093E-01
    -22.832  0.7334E-02  0.3172E-01
    -22.724  0.2336E-02  0.3198E-01
    -22.616  0.2185E-03  0.3200E-01
    -22.507  0.1226E-04  0.3200E-01
    -22.399  0.8008E-03  0.3209E-01
    -22.291  0.1008E-01  0.3318E-01
    -22.183  0.2657E-01  0.3605E-01
    -22.075  0.2906E-01  0.3920E-01
    -21.967  0.2981E-01  0.4242E-01
    -21.858  0.3020E-01  0.4569E-01
    -21.750  0.1810E-01  0.4765E-01
    -21.642  0.3168E-02  0.4799E-01
    -21.534  0.1154E-03  0.4800E-01
    -21.426  0.8449E-03  0.4809E-01
    -21.317  0.8899E-02  0.4906E-01
    -21.209  0.2372E-01  0.5162E-01
    -21.101  0.2272E-01  0.5408E-01
    -20.993  0.1352E-01  0.5554E-01
    -20.885  0.6144E-02  0.5621E-01
    -20.777  0.9870E-02  0.5728E-01
    -20.668  0.8557E-02  0.5820E-01
    -20.560  0.1536E-01  0.5986E-01
    -20.452  0.2208E-01  0.6225E-01
    -20.344  0.1313E-01  0.6367E-01
    -20.236  0.2902E-02  0.6399E-01
    -20.127  0.1311E-03  0.6400E-01
    -20.019  0.8532E-06  0.6400E-01
    -19.911  0.6705E-09  0.6400E-01
    -19.803  0.5769E-13  0.6400E-01
    -19.695  0.5131E-18  0.6400E-01
    -19.587  0.0000E+00  0.6400E-01
    -19.478  0.0000E+00  0.6400E-01
    -19.370  0.0000E+00  0.6400E-01
    -19.262  0.0000E+00  0.6400E-01
    -19.154  0.0000E+00  0.6400E-01
    -19.046  0.0000E+00  0.6400E-01
    -18.937  0.0000E+00  0.6400E-01
    -18.829  0.0000E+00  0.6400E-01
    -18.721  0.0000E+00  0.6400E-01
    -18.613  0.0000E+00  0.6400E-01
    -18.505  0.0000E+00  0.6400E-01
    -18.397  0.0000E+00  0.6400E-01
    -18.288  0.5568E-16  0.6400E-01
    -18.180  0.2601E-11  0.6400E-01
    -18.072  0.1279E-07  0.6400E-01
    -17.964  0.7057E-05  0.6400E-01
    -17.856  0.4937E-03  0.6405E-01
    -17.748  0.5370E-02  0.6464E-01
    -17.639  0.1282E-01  0.6602E-01
    -17.531  0.1504E-01  0.6765E-01
    -17.423  0.1716E-01  0.6951E-01
    -17.315  0.2015E-01  0.7169E-01
    -17.207  0.1839E-01  0.7367E-01
    -17.098  0.1757E-01  0.7558E-01
    -16.990  0.1719E-01  0.7744E-01
    -16.882  0.1082E-01  0.7861E-01
    -16.774  0.4266E-02  0.7907E-01
    -16.666  0.3739E-02  0.7947E-01
    -16.558  0.3664E-02  0.7987E-01
    -16.449  0.1155E-02  0.7999E-01
    -16.341  0.6340E-04  0.8000E-01
    -16.233  0.4612E-06  0.8000E-01
    -16.125  0.1448E-04  0.8000E-01
    -16.017  0.9822E-03  0.8011E-01
    -15.908  0.1071E-01  0.8127E-01
    -15.800  0.2590E-01  0.8407E-01
    -15.692  0.2232E-01  0.8648E-01
    -15.584  0.8673E-02  0.8742E-01
    -15.476  0.2623E-02  0.8770E-01
    -15.368  0.2434E-02  0.8797E-01
    -15.259  0.2600E-02  0.8825E-01
    -15.151  0.4997E-02  0.8879E-01
    -15.043  0.1883E-02  0.8899E-01
    -14.935  0.1071E-02  0.8911E-01
    -14.827  0.4033E-02  0.8955E-01
    -14.718  0.5646E-02  0.9016E-01
    -14.610  0.8573E-02  0.9108E-01
    -14.502  0.1412E-01  0.9261E-01
    -14.394  0.2013E-01  0.9479E-01
    -14.286  0.1813E-01  0.9675E-01
    -14.178  0.2048E-01  0.9897E-01
    -14.069  0.2275E-01  0.1014E+00
    -13.961  0.2191E-01  0.1038E+00
    -13.853  0.2657E-01  0.1067E+00
    -13.745  0.3127E-01  0.1101E+00
    -13.637  0.2090E-01  0.1123E+00
    -13.528  0.1122E-01  0.1135E+00
    -13.420  0.7504E-02  0.1143E+00
    -13.312  0.4562E-02  0.1148E+00
    -13.204  0.7982E-02  0.1157E+00
    -13.096  0.9588E-02  0.1167E+00
    -12.988  0.9613E-02  0.1178E+00
    -12.879  0.5765E-02  0.1184E+00
    -12.771  0.9060E-03  0.1185E+00
    -12.663  0.1946E-03  0.1185E+00
    -12.555  0.1849E-02  0.1187E+00
    -12.447  0.6146E-02  0.1194E+00
    -12.338  0.1720E-01  0.1212E+00
    -12.230  0.2770E-01  0.1242E+00
    -12.122  0.2533E-01  0.1270E+00
    -12.014  0.1550E-01  0.1287E+00
    -11.906  0.1399E-01  0.1302E+00
    -11.798  0.1293E-01  0.1316E+00
    -11.689  0.1515E-01  0.1332E+00
    -11.581  0.2137E-01  0.1355E+00
    -11.473  0.1626E-01  0.1373E+00
    -11.365  0.1352E-01  0.1387E+00
    -11.257  0.1030E-01  0.1399E+00
    -11.149  0.9665E-02  0.1409E+00
    -11.040  0.7861E-02  0.1418E+00
    -10.932  0.1048E-01  0.1429E+00
    -10.824  0.1198E-01  0.1442E+00
    -10.716  0.1287E-01  0.1456E+00
    -10.608  0.1286E-01  0.1470E+00
    -10.499  0.1216E-01  0.1483E+00
    -10.391  0.1581E-01  0.1500E+00
    -10.283  0.1273E-01  0.1514E+00
    -10.175  0.6674E-02  0.1521E+00
    -10.067  0.9130E-02  0.1531E+00
     -9.959  0.1889E-01  0.1551E+00
     -9.850  0.2002E-01  0.1573E+00
     -9.742  0.1560E-01  0.1590E+00
     -9.634  0.7371E-02  0.1598E+00
     -9.526  0.1175E-01  0.1610E+00
     -9.418  0.2024E-01  0.1632E+00
     -9.309  0.2582E-01  0.1660E+00
     -9.201  0.1583E-01  0.1677E+00
     -9.093  0.2315E-02  0.1680E+00
     -8.985  0.6368E-04  0.1680E+00
     -8.877  0.2996E-03  0.1680E+00
     -8.769  0.2248E-02  0.1683E+00
     -8.660  0.5594E-02  0.1689E+00
     -8.552  0.1500E-01  0.1705E+00
     -8.444  0.1923E-01  0.1726E+00
     -8.336  0.1545E-01  0.1743E+00
     -8.228  0.1748E-01  0.1761E+00
     -8.119  0.1242E-01  0.1775E+00
     -8.011  0.4964E-02  0.1780E+00
     -7.903  0.9438E-02  0.1790E+00
     -7.795  0.2277E-01  0.1815E+00
     -7.687  0.3023E-01  0.1848E+00
     -7.579  0.3764E-01  0.1889E+00
     -7.470  0.3460E-01  0.1926E+00
     -7.362  0.2993E-01  0.1958E+00
     -7.254  0.3248E-01  0.1993E+00
     -7.146  0.1994E-01  0.2015E+00
     -7.038  0.5001E-02  0.2020E+00
     -6.929  0.8919E-02  0.2030E+00
     -6.821  0.2547E-01  0.2058E+00
     -6.713  0.3170E-01  0.2092E+00
     -6.605  0.2399E-01  0.2118E+00
     -6.497  0.1674E-01  0.2136E+00
     -6.389  0.1114E-01  0.2148E+00
     -6.280  0.9862E-02  0.2159E+00
     -6.172  0.1272E-01  0.2173E+00
     -6.064  0.6624E-02  0.2180E+00
     -5.956  0.5298E-02  0.2185E+00
     -5.848  0.1505E-01  0.2202E+00
     -5.739  0.2650E-01  0.2230E+00
     -5.631  0.3838E-01  0.2272E+00
     -5.523  0.3787E-01  0.2313E+00
     -5.415  0.3733E-01  0.2353E+00
     -5.307  0.3997E-01  0.2396E+00
     -5.199  0.4651E-01  0.2447E+00
     -5.090  0.3900E-01  0.2489E+00
     -4.982  0.2644E-01  0.2518E+00
     -4.874  0.2085E-01  0.2540E+00
     -4.766  0.2457E-01  0.2567E+00
     -4.658  0.2296E-01  0.2592E+00
     -4.550  0.1786E-01  0.2611E+00
     -4.441  0.2014E-01  0.2633E+00
     -4.333  0.1711E-01  0.2651E+00
     -4.225  0.7213E-02  0.2659E+00
     -4.117  0.9337E-03  0.2660E+00
     -4.009  0.2147E-04  0.2660E+00
     -3.900  0.2493E-04  0.2660E+00
     -3.792  0.1309E-02  0.2661E+00
     -3.684  0.1023E-01  0.2673E+00
     -3.576  0.2714E-01  0.2702E+00
     -3.468  0.3914E-01  0.2744E+00
     -3.360  0.1381E-01  0.2759E+00
     -3.251  0.1048E-02  0.2760E+00
     -3.143  0.4500E-02  0.2765E+00
     -3.035  0.1022E-01  0.2776E+00
     -2.927  0.3359E-02  0.2780E+00
     -2.819  0.1473E-03  0.2780E+00
     -2.710  0.9211E-06  0.2780E+00
     -2.602  0.4183E-04  0.2780E+00
     -2.494  0.1260E-02  0.2781E+00
     -2.386  0.5394E-02  0.2787E+00
     -2.278  0.7464E-02  0.2795E+00
     -2.170  0.1053E-01  0.2807E+00
     -2.061  0.1193E-01  0.2820E+00
     -1.953  0.1383E-01  0.2835E+00
     -1.845  0.8280E-02  0.2844E+00
     -1.737  0.4731E-02  0.2849E+00
     -1.629  0.1247E-01  0.2862E+00
     -1.520  0.1547E-01  0.2879E+00
     -1.412  0.1499E-01  0.2895E+00
     -1.304  0.1905E-01  0.2916E+00
     -1.196  0.1322E-01  0.2930E+00
     -1.088  0.6237E-02  0.2937E+00
     -0.980  0.4821E-02  0.2942E+00
     -0.871  0.1438E-01  0.2958E+00
     -0.763  0.2162E-01  0.2981E+00
     -0.655  0.1991E-01  0.3002E+00
     -0.547  0.1276E-01  0.3016E+00
     -0.439  0.3267E-02  0.3020E+00
     -0.330  0.2057E-03  0.3020E+00
     -0.222  0.2110E-05  0.3020E+00
     -0.114  0.5142E-04  0.3020E+00
     -0.006  0.1822E-02  0.3022E+00
      0.102  0.8985E-02  0.3032E+00
      0.210  0.6833E-02  0.3039E+00
      0.319  0.7844E-03  0.3040E+00
      0.427  0.1203E-04  0.3040E+00
      0.535  0.6367E-07  0.3040E+00
      0.643  0.1868E-04  0.3040E+00
      0.751  0.1002E-02  0.3041E+00
      0.860  0.7705E-02  0.3049E+00
      0.968  0.1347E-01  0.3064E+00
      1.076  0.1691E-01  0.3082E+00
      1.184  0.2180E-01  0.3106E+00
      1.292  0.2184E-01  0.3130E+00
      1.400  0.2484E-01  0.3156E+00
      1.509  0.2394E-01  0.3182E+00
      1.617  0.2001E-01  0.3204E+00
      1.725  0.2054E-01  0.3226E+00
      1.833  0.1992E-01  0.3248E+00
      1.941  0.1856E-01  0.3268E+00
      2.049  0.2351E-01  0.3293E+00
      2.158  0.1843E-01  0.3313E+00
      2.266  0.1389E-01  0.3328E+00
      2.374  0.1345E-01  0.3343E+00
      2.482  0.1518E-01  0.3359E+00
      2.590  0.2052E-01  0.3381E+00
      2.699  0.2019E-01  0.3403E+00
      2.807  0.1983E-01  0.3425E+00
      2.915  0.1211E-01  0.3438E+00
      3.023  0.2032E-02  0.3440E+00
      3.131  0.5805E-04  0.3440E+00
      3.239  0.2145E-06  0.3440E+00
      3.348  0.8967E-10  0.3440E+00
      3.456  0.3992E-14  0.3440E+00
      3.564  0.0000E+00  0.3440E+00
      3.672  0.0000E+00  0.3440E+00
      3.780  0.0000E+00  0.3440E+00
      3.889  0.0000E+00  0.3440E+00
      3.997  0.0000E+00  0.3440E+00
      4.105  0.0000E+00  0.3440E+00
      4.213  0.0000E+00  0.3440E+00
      4.321  0.0000E+00  0.3440E+00
