 running on   48 total cores
 distrk:  each k-point on   48 cores,    1 groups
 distr:  one band on   12 cores,    4 groups
 vasp.6.3.2 27Jun22 (build May 04 2024 18:40:40) complex                        
  
 POSCAR found type information on POSCAR C N AuAg
 POSCAR found :  4 types and      58 ions
 Reading from existing POTCAR
 scaLAPACK will be used
 Reading from existing POTCAR
 LDA part: xc-table for Pade appr. of Perdew
 POSCAR found type information on POSCAR C N AuAg
 POSCAR found :  4 types and      58 ions
 POSCAR, INCAR and KPOINTS ok, starting setup
 FFT: planning ... GRIDC
 FFT: planning ... GRID_SOFT
 FFT: planning ... GRID
 WAVECAR not read
 entering main loop
       N       E                     dE             d eps       ncg     rms          rms(c)
DAV:   1     0.254081270997E+04    0.25408E+04   -0.98250E+04  1600   0.101E+03
DAV:   2     0.288105417296E+02   -0.25120E+04   -0.23896E+04  1984   0.280E+02
DAV:   3    -0.473544622121E+03   -0.50236E+03   -0.49779E+03  1688   0.136E+02
DAV:   4    -0.491055043860E+03   -0.17510E+02   -0.16996E+02  1608   0.291E+01
DAV:   5    -0.491765955860E+03   -0.71091E+00   -0.70340E+00  1936   0.473E+00    0.799E+01
DAV:   6    -0.454609967544E+03    0.37156E+02   -0.12856E+02  1576   0.435E+01    0.966E+01
DAV:   7    -0.455570988479E+03   -0.96102E+00   -0.25872E+01  1568   0.128E+01    0.938E+01
DAV:   8    -0.457500930837E+03   -0.19299E+01   -0.12041E+01  1600   0.110E+01    0.877E+01
DAV:   9    -0.479667742438E+03   -0.22167E+02   -0.14493E+02  1624   0.324E+01    0.707E+01
DAV:  10    -0.457264603876E+03    0.22403E+02   -0.29880E+01  1560   0.182E+01    0.494E+01
DAV:  11    -0.455238316592E+03    0.20263E+01   -0.76292E+00  1600   0.759E+00    0.462E+01
DAV:  12    -0.451663384253E+03    0.35749E+01   -0.33087E+00  1584   0.556E+00    0.351E+01
DAV:  13    -0.449295479988E+03    0.23679E+01   -0.24573E+00  1568   0.516E+00    0.241E+01
DAV:  14    -0.447715392663E+03    0.15801E+01   -0.56232E+00  1600   0.697E+00    0.676E+00
DAV:  15    -0.447805911563E+03   -0.90519E-01   -0.21146E+00  1496   0.358E+00    0.880E+00
DAV:  16    -0.447728830942E+03    0.77081E-01   -0.12698E+00  1584   0.310E+00    0.310E+00
DAV:  17    -0.447824701990E+03   -0.95871E-01   -0.81283E-01  1596   0.193E+00    0.501E+00
DAV:  18    -0.447769251503E+03    0.55450E-01   -0.29955E-01  1560   0.945E-01    0.511E+00
DAV:  19    -0.447721852442E+03    0.47399E-01   -0.89257E-02  1580   0.758E-01    0.378E+00
DAV:  20    -0.447690521816E+03    0.31331E-01   -0.97417E-02  1520   0.776E-01    0.152E+00
DAV:  21    -0.447693775072E+03   -0.32533E-02   -0.21181E-02  1440   0.371E-01    0.154E+00
DAV:  22    -0.447691130604E+03    0.26445E-02   -0.10256E-02  1496   0.260E-01    0.648E-01
DAV:  23    -0.447694888109E+03   -0.37575E-02   -0.19164E-02  1472   0.311E-01    0.308E-01
DAV:  24    -0.447696338702E+03   -0.14506E-02   -0.87796E-03  1568   0.208E-01    0.210E-01
DAV:  25    -0.447699419418E+03   -0.30807E-02   -0.44598E-03  1544   0.165E-01    0.428E-01
DAV:  26    -0.447700337586E+03   -0.91817E-03   -0.85271E-04  1584   0.747E-02    0.408E-01
DAV:  27    -0.447700995055E+03   -0.65747E-03   -0.55530E-03  1612   0.166E-01    0.148E-01
DAV:  28    -0.447701112098E+03   -0.11704E-03   -0.11410E-03  1592   0.777E-02    0.461E-02
DAV:  29    -0.447701707066E+03   -0.59497E-03   -0.19854E-04  1552   0.365E-02    0.118E-01
DAV:  30    -0.447702339832E+03   -0.63277E-03   -0.77072E-05  1420   0.243E-02    0.674E-02
DAV:  31    -0.447702624374E+03   -0.28454E-03   -0.27231E-04  1480   0.362E-02    0.394E-02
DAV:  32    -0.447702896479E+03   -0.27211E-03   -0.38640E-05  1068   0.159E-02    0.156E-02
DAV:  33    -0.447703152336E+03   -0.25586E-03   -0.18868E-05  1040   0.829E-03    0.169E-02
DAV:  34    -0.447703199907E+03   -0.47571E-04   -0.12659E-05  1024   0.833E-03    0.127E-02
DAV:  35    -0.447703222325E+03   -0.22419E-04   -0.29216E-06   944   0.417E-03    0.104E-02
DAV:  36    -0.447703229159E+03   -0.68335E-05   -0.16878E-06   976   0.316E-03
   1 F= -.44770323E+03 E0= -.44764043E+03  d E =-.447703E+03
 curvature:   0.00 expect dE= 0.000E+00 dE for cont linesearch  0.000E+00
 trial: gam= 0.00000 g(F)=  0.216E+02 g(S)=  0.326E+01 ort = 0.000E+00 (trialstep = 0.100E+01)
 search vector abs. value=  0.248E+02
 bond charge predicted
       N       E                     dE             d eps       ncg     rms          rms(c)
DAV:   1    -0.453172743710E+03   -0.54695E+01   -0.10316E+03  1392   0.786E+01    0.212E+01
DAV:   2    -0.456455997891E+03   -0.32833E+01   -0.80154E+01  1612   0.286E+01    0.416E+01
DAV:   3    -0.454977282939E+03    0.14787E+01   -0.47991E+00  1552   0.905E+00    0.340E+01
DAV:   4    -0.453907368311E+03    0.10699E+01   -0.37177E+00  1648   0.588E+00    0.189E+01
DAV:   5    -0.453969552165E+03   -0.62184E-01   -0.42614E+00  1608   0.420E+00    0.146E+01
DAV:   6    -0.453945577497E+03    0.23975E-01   -0.11268E+01  1800   0.565E+00    0.111E+01
DAV:   7    -0.453797116057E+03    0.14846E+00   -0.38982E-01  1528   0.175E+00    0.646E+00
DAV:   8    -0.453622022758E+03    0.17509E+00   -0.34797E-01  1584   0.154E+00    0.276E+00
DAV:   9    -0.453628019956E+03   -0.59972E-02   -0.33092E-01  1624   0.136E+00    0.831E+00
DAV:  10    -0.453588291657E+03    0.39728E-01   -0.29417E-01  1648   0.100E+00    0.833E-01
DAV:  11    -0.453588733638E+03   -0.44198E-03   -0.56765E-02  1592   0.523E-01    0.770E-01
DAV:  12    -0.453590438475E+03   -0.17048E-02   -0.25781E-02  1504   0.329E-01    0.113E+00
DAV:  13    -0.453589889730E+03    0.54875E-03   -0.10856E-02  1568   0.207E-01    0.252E-01
DAV:  14    -0.453589508579E+03    0.38115E-03   -0.23721E-03  1600   0.996E-02    0.122E-01
DAV:  15    -0.453589635861E+03   -0.12728E-03   -0.14514E-03  1576   0.731E-02    0.719E-02
DAV:  16    -0.453589884130E+03   -0.24827E-03   -0.18866E-04  1552   0.333E-02    0.135E-01
DAV:  17    -0.453590031935E+03   -0.14781E-03   -0.30577E-05  1072   0.120E-02    0.813E-02
DAV:  18    -0.453590165638E+03   -0.13370E-03   -0.94884E-05  1144   0.176E-02    0.610E-02
DAV:  19    -0.453590210662E+03   -0.45024E-04   -0.46734E-05  1040   0.118E-02    0.231E-02
DAV:  20    -0.453590278709E+03   -0.68046E-04   -0.87638E-06   984   0.489E-03    0.646E-03
DAV:  21    -0.453590322107E+03   -0.43398E-04   -0.71630E-06  1000   0.410E-03    0.275E-03
DAV:  22    -0.453590332615E+03   -0.10508E-04   -0.12139E-06  1032   0.207E-03    0.299E-03
DAV:  23    -0.453590342493E+03   -0.98786E-05   -0.94337E-07  1000   0.138E-03
   2 F= -.45359034E+03 E0= -.45352374E+03  d E =-.588711E+01
 trial-energy change:   -5.887113  1 .order   -8.887146  -24.831531    7.057240
 step:   0.6503(harm=  0.7787)  dis= 0.18235  next Energy=  -454.952450 (dE=-0.725E+01)
 bond charge predicted
       N       E                     dE             d eps       ncg     rms          rms(c)
DAV:   1    -0.454936064804E+03   -0.13457E+01   -0.12663E+02  1416   0.275E+01    0.786E+00
DAV:   2    -0.455854549467E+03   -0.91848E+00   -0.14848E+01  1624   0.100E+01    0.356E+01
DAV:   3    -0.455090140787E+03    0.76441E+00   -0.23301E+00  1560   0.440E+00    0.150E+01
DAV:   4    -0.454870648793E+03    0.21949E+00   -0.10678E+00  1632   0.227E+00    0.495E+00
DAV:   5    -0.454882890014E+03   -0.12241E-01   -0.79681E-01  1600   0.157E+00    0.549E+00
DAV:   6    -0.454866573476E+03    0.16317E-01   -0.35684E-01  1608   0.121E+00    0.758E+00
DAV:   7    -0.454854030849E+03    0.12543E-01   -0.66354E-02  1536   0.517E-01    0.368E+00
DAV:   8    -0.454847981612E+03    0.60492E-02   -0.88311E-02  1648   0.618E-01    0.115E+00
DAV:   9    -0.454845927679E+03    0.20539E-02   -0.13244E-02  1456   0.233E-01    0.974E-01
DAV:  10    -0.454845301137E+03    0.62654E-03   -0.35066E-03  1584   0.131E-01    0.620E-01
DAV:  11    -0.454845442221E+03   -0.14108E-03   -0.17039E-03  1584   0.910E-02    0.456E-01
DAV:  12    -0.454844995600E+03    0.44662E-03   -0.17461E-03  1592   0.808E-02    0.223E-01
DAV:  13    -0.454845073536E+03   -0.77936E-04   -0.32772E-04  1568   0.462E-02    0.143E-01
DAV:  14    -0.454845113406E+03   -0.39870E-04   -0.43124E-05  1256   0.163E-02    0.109E-01
DAV:  15    -0.454845138715E+03   -0.25310E-04   -0.22686E-05  1008   0.153E-02    0.649E-02
DAV:  16    -0.454845153773E+03   -0.15058E-04   -0.52464E-05  1376   0.160E-02    0.211E-02
DAV:  17    -0.454845165835E+03   -0.12062E-04   -0.50789E-06   960   0.648E-03    0.199E-02
DAV:  18    -0.454845175680E+03   -0.98452E-05   -0.23858E-06   944   0.340E-03
   3 F= -.45484518E+03 E0= -.45477753E+03  d E =-.714195E+01
 curvature:  -0.26 expect dE=-0.230E+01 dE for cont linesearch -0.742E-03
 trial: gam= 0.34758 g(F)=  0.834E+01 g(S)=  0.556E+00 ort = 0.267E+00 (trialstep = 0.930E+00)
 search vector abs. value=  0.121E+02
 bond charge predicted
       N       E                     dE             d eps       ncg     rms          rms(c)
DAV:   1    -0.460166885360E+03   -0.53217E+01   -0.42876E+02  1384   0.476E+01    0.125E+01
DAV:   2    -0.461089522448E+03   -0.92264E+00   -0.32397E+01  1676   0.170E+01    0.241E+01
DAV:   3    -0.459908500358E+03    0.11810E+01   -0.25088E+00  1536   0.708E+00    0.183E+01
DAV:   4    -0.459588278240E+03    0.32022E+00   -0.24579E+00  1664   0.331E+00    0.562E+00
DAV:   5    -0.459549735176E+03    0.38543E-01   -0.12785E+00  1632   0.278E+00    0.373E+00
DAV:   6    -0.459531006728E+03    0.18728E-01   -0.94648E-01  1636   0.225E+00    0.330E+00
DAV:   7    -0.459517366056E+03    0.13641E-01   -0.18171E-01  1540   0.117E+00    0.558E+00
DAV:   8    -0.459497923748E+03    0.19442E-01   -0.33802E-02  1584   0.427E-01    0.395E+00
DAV:   9    -0.459488100328E+03    0.98234E-02   -0.13191E-02  1624   0.270E-01    0.282E+00
DAV:  10    -0.459482775225E+03    0.53251E-02   -0.23344E-02  1592   0.311E-01    0.114E+00
DAV:  11    -0.459483167394E+03   -0.39217E-03   -0.97028E-03  1568   0.232E-01    0.253E-01
DAV:  12    -0.459483996956E+03   -0.82956E-03   -0.28206E-03  1608   0.118E-01    0.167E-01
DAV:  13    -0.459484177019E+03   -0.18006E-03   -0.52296E-04  1528   0.494E-02    0.112E-01
DAV:  14    -0.459484371800E+03   -0.19478E-03   -0.18059E-04  1528   0.335E-02    0.604E-02
DAV:  15    -0.459484612320E+03   -0.24052E-03   -0.93393E-05  1296   0.175E-02    0.213E-02
DAV:  16    -0.459484825517E+03   -0.21320E-03   -0.42344E-05  1192   0.140E-02    0.396E-02
DAV:  17    -0.459484981568E+03   -0.15605E-03   -0.14884E-05  1112   0.679E-03    0.188E-02
DAV:  18    -0.459485181078E+03   -0.19951E-03   -0.25202E-05  1224   0.690E-03    0.140E-02
DAV:  19    -0.459485246359E+03   -0.65282E-04   -0.10170E-05  1040   0.549E-03    0.161E-02
DAV:  20    -0.459485273501E+03   -0.27142E-04   -0.32399E-06  1032   0.338E-03    0.717E-03
DAV:  21    -0.459485293205E+03   -0.19704E-04   -0.26304E-06  1000   0.260E-03    0.516E-03
DAV:  22    -0.459485300511E+03   -0.73054E-05   -0.92142E-07   992   0.167E-03
   4 F= -.45948530E+03 E0= -.45941461E+03  d E =-.464012E+01
 trial-energy change:   -4.640125  1 .order   -4.891463   -8.361906   -1.421020
 step:   1.1941(harm=  1.1205)  dis= 0.14131  next Energy=  -459.681288 (dE=-0.484E+01)
 bond charge predicted
       N       E                     dE             d eps       ncg     rms          rms(c)
DAV:   1    -0.459743428131E+03   -0.25813E+00   -0.33562E+01  1376   0.134E+01    0.414E+00
DAV:   2    -0.460093925069E+03   -0.35050E+00   -0.56004E+00  1648   0.531E+00    0.153E+01
DAV:   3    -0.459721625432E+03    0.37230E+00   -0.11330E+00  1552   0.285E+00    0.553E+00
DAV:   4    -0.459718780069E+03    0.28454E-02   -0.79040E-02  1552   0.731E-01    0.660E+00
DAV:   5    -0.459686740090E+03    0.32040E-01   -0.34774E-01  1624   0.100E+00    0.734E-01
DAV:   6    -0.459686396448E+03    0.34364E-03   -0.35035E-02  1536   0.453E-01    0.606E-01
DAV:   7    -0.459685712235E+03    0.68421E-03   -0.12291E-02  1552   0.235E-01    0.449E-01
DAV:   8    -0.459685259631E+03    0.45260E-03   -0.29478E-03  1568   0.118E-01    0.208E-01
DAV:   9    -0.459685418680E+03   -0.15905E-03   -0.97619E-04  1568   0.833E-02    0.163E-01
DAV:  10    -0.459685467385E+03   -0.48704E-04   -0.36299E-04  1648   0.415E-02    0.563E-02
DAV:  11    -0.459685498834E+03   -0.31449E-04   -0.90172E-05  1352   0.226E-02    0.401E-02
DAV:  12    -0.459685533049E+03   -0.34216E-04   -0.14963E-05   984   0.107E-02    0.300E-02
DAV:  13    -0.459685583373E+03   -0.50324E-04   -0.12668E-05  1008   0.969E-03    0.549E-03
DAV:  14    -0.459685607605E+03   -0.24231E-04   -0.32079E-06   992   0.400E-03    0.387E-03
DAV:  15    -0.459685615949E+03   -0.83443E-05   -0.89991E-07   984   0.230E-03
   5 F= -.45968562E+03 E0= -.45961773E+03  d E =-.484044E+01
 curvature:  -0.64 expect dE=-0.137E+01 dE for cont linesearch -0.791E-05
 trial: gam= 0.24199 g(F)=  0.196E+01 g(S)=  0.180E+00 ort = 0.122E-01 (trialstep = 0.983E+00)
 search vector abs. value=  0.285E+01
 bond charge predicted
       N       E                     dE             d eps       ncg     rms          rms(c)
DAV:   1    -0.461183035310E+03   -0.14974E+01   -0.11200E+02  1376   0.266E+01    0.461E+00
DAV:   2    -0.461559016696E+03   -0.37598E+00   -0.51158E+00  1592   0.531E+00    0.152E+01
DAV:   3    -0.461526611514E+03    0.32405E-01   -0.28206E-01  1584   0.139E+00    0.138E+01
DAV:   4    -0.461560926045E+03   -0.34315E-01   -0.99907E-02  1576   0.112E+00    0.148E+01
DAV:   5    -0.461606622211E+03   -0.45696E-01   -0.24841E-01  1600   0.136E+00    0.148E+01
DAV:   6    -0.461750707792E+03   -0.14409E+00   -0.64371E-01  1584   0.234E+00    0.153E+01
DAV:   7    -0.461922022237E+03   -0.17131E+00   -0.31687E-01  1560   0.156E+00    0.159E+01
DAV:   8    -0.461817436263E+03    0.10459E+00   -0.60926E-02  1552   0.690E-01    0.147E+01
DAV:   9    -0.461690665114E+03    0.12677E+00   -0.44208E-02  1576   0.618E-01    0.130E+01
DAV:  10    -0.461546056200E+03    0.14461E+00   -0.91507E-02  1584   0.806E-01    0.102E+01
DAV:  11    -0.461532174901E+03    0.13881E-01   -0.69501E-03  1608   0.223E-01    0.992E+00
DAV:  12    -0.461513778667E+03    0.18396E-01   -0.29113E-03  1608   0.139E-01    0.945E+00
DAV:  13    -0.461462716988E+03    0.51062E-01   -0.19073E-02  1544   0.369E-01    0.810E+00
DAV:  14    -0.461363974836E+03    0.98742E-01   -0.12915E-01  1560   0.978E-01    0.464E+00
DAV:  15    -0.461349665903E+03    0.14309E-01   -0.15770E-02  1664   0.341E-01    0.407E+00
DAV:  16    -0.461319850452E+03    0.29815E-01   -0.44431E-02  1540   0.591E-01    0.211E+00
DAV:  17    -0.461309326494E+03    0.10524E-01   -0.28113E-02  1632   0.503E-01    0.867E-01
DAV:  18    -0.461308517185E+03    0.80931E-03   -0.37505E-03  1720   0.168E-01    0.495E-01
DAV:  19    -0.461308184095E+03    0.33309E-03   -0.81295E-04  1576   0.868E-02    0.227E-01
DAV:  20    -0.461308603662E+03   -0.41957E-03   -0.53136E-04  1512   0.779E-02    0.423E-01
DAV:  21    -0.461308141531E+03    0.46213E-03   -0.13684E-03  1504   0.116E-01    0.770E-02
DAV:  22    -0.461308158461E+03   -0.16930E-04   -0.17428E-04  1648   0.353E-02    0.213E-02
DAV:  23    -0.461308173144E+03   -0.14683E-04   -0.11629E-05  1000   0.103E-02    0.382E-02
DAV:  24    -0.461308178146E+03   -0.50015E-05   -0.29294E-05  1104   0.172E-02
   6 F= -.46130818E+03 E0= -.46124513E+03  d E =-.162256E+01
 trial-energy change:   -1.622562  1 .order   -1.628233   -2.102008   -1.154459
 step:   2.2897(harm=  2.1804)  dis= 0.11609  next Energy=  -462.062328 (dE=-0.238E+01)
 bond charge predicted
       N       E                     dE             d eps       ncg     rms          rms(c)
DAV:   1    -0.461811984109E+03   -0.50381E+00   -0.19917E+02  1376   0.353E+01    0.599E+00
DAV:   2    -0.462216304597E+03   -0.40432E+00   -0.58097E+00  1600   0.612E+00    0.120E+01
DAV:   3    -0.462194780210E+03    0.21524E-01   -0.35817E-01  1592   0.152E+00    0.978E+00
DAV:   4    -0.462262541276E+03   -0.67761E-01   -0.38429E-01  1576   0.185E+00    0.125E+01
DAV:   5    -0.462229203804E+03    0.33337E-01   -0.43339E-01  1664   0.168E+00    0.102E+01
DAV:   6    -0.462238379598E+03   -0.91758E-02   -0.42779E-01  1624   0.170E+00    0.958E+00
DAV:   7    -0.462224975706E+03    0.13404E-01   -0.98575E-02  1568   0.844E-01    0.914E+00
DAV:   8    -0.462171958296E+03    0.53017E-01   -0.50822E-02  1560   0.482E-01    0.753E+00
DAV:   9    -0.462135212359E+03    0.36746E-01   -0.25496E-02  1600   0.392E-01    0.633E+00
DAV:  10    -0.462098304558E+03    0.36908E-01   -0.33986E-02  1552   0.461E-01    0.464E+00
DAV:  11    -0.462085008280E+03    0.13296E-01   -0.90341E-03  1640   0.242E-01    0.383E+00
DAV:  12    -0.462077817098E+03    0.71912E-02   -0.32369E-03  1600   0.135E-01    0.331E+00
DAV:  13    -0.462054091514E+03    0.23726E-01   -0.79067E-02  1512   0.739E-01    0.694E-01
DAV:  14    -0.462055322383E+03   -0.12309E-02   -0.45236E-03  1648   0.171E-01    0.737E-01
DAV:  15    -0.462055397766E+03   -0.75383E-04   -0.41595E-04  1672   0.498E-02    0.678E-01
DAV:  16    -0.462054118232E+03    0.12795E-02   -0.42007E-03  1536   0.193E-01    0.102E-01
DAV:  17    -0.462054215193E+03   -0.96961E-04   -0.36847E-04  1616   0.492E-02    0.399E-02
DAV:  18    -0.462054248127E+03   -0.32934E-04   -0.28338E-05  1096   0.140E-02    0.143E-02
DAV:  19    -0.462054257377E+03   -0.92503E-05   -0.10571E-05  1016   0.111E-02
   7 F= -.46205426E+03 E0= -.46199733E+03  d E =-.236864E+01
 curvature:  -1.44 expect dE=-0.182E+01 dE for cont linesearch -0.127E-03
 trial: gam= 0.58314 g(F)=  0.123E+01 g(S)=  0.339E-01 ort =-0.159E-01 (trialstep = 0.124E+01)
 search vector abs. value=  0.221E+01
 bond charge predicted
       N       E                     dE             d eps       ncg     rms          rms(c)
DAV:   1    -0.463079480175E+03   -0.10252E+01   -0.14034E+02  1380   0.297E+01    0.382E+00
DAV:   2    -0.463276784595E+03   -0.19730E+00   -0.28682E+00  1648   0.444E+00    0.275E+00
DAV:   3    -0.463258576050E+03    0.18209E-01   -0.30332E-01  1608   0.155E+00    0.132E+00
DAV:   4    -0.463252662230E+03    0.59138E-02   -0.20770E-01  1568   0.118E+00    0.138E+00
DAV:   5    -0.463244790700E+03    0.78715E-02   -0.58123E-02  1560   0.613E-01    0.422E-01
DAV:   6    -0.463246271113E+03   -0.14804E-02   -0.21229E-02  1640   0.331E-01    0.249E-01
DAV:   7    -0.463245417975E+03    0.85314E-03   -0.77145E-03  1656   0.191E-01    0.138E-01
DAV:   8    -0.463245759837E+03   -0.34186E-03   -0.70068E-04  1528   0.678E-02    0.676E-02
DAV:   9    -0.463245881124E+03   -0.12129E-03   -0.16136E-04  1672   0.355E-02    0.282E-02
DAV:  10    -0.463245958514E+03   -0.77391E-04   -0.54231E-05  1328   0.225E-02    0.137E-02
DAV:  11    -0.463245997778E+03   -0.39263E-04   -0.15293E-05  1008   0.120E-02    0.861E-03
DAV:  12    -0.463246048032E+03   -0.50254E-04   -0.43885E-06  1024   0.517E-03    0.362E-03
DAV:  13    -0.463246099727E+03   -0.51695E-04   -0.25156E-06  1040   0.312E-03    0.203E-03
DAV:  14    -0.463246141048E+03   -0.41321E-04   -0.17932E-06  1040   0.219E-03    0.150E-03
DAV:  15    -0.463246172020E+03   -0.30973E-04   -0.14870E-06  1040   0.172E-03    0.120E-03
DAV:  16    -0.463246193373E+03   -0.21352E-04   -0.12476E-06  1040   0.161E-03    0.768E-04
DAV:  17    -0.463246202142E+03   -0.87687E-05   -0.47085E-07   992   0.106E-03
   8 F= -.46324620E+03 E0= -.46319328E+03  d E =-.119194E+01
 trial-energy change:   -1.191945  1 .order   -1.187610   -1.559033   -0.816186
 step:   2.5208(harm=  2.6113)  dis= 0.14619  next Energy=  -463.669564 (dE=-0.162E+01)
 bond charge predicted
       N       E                     dE             d eps       ncg     rms          rms(c)
DAV:   1    -0.463499349397E+03   -0.25316E+00   -0.14783E+02  1376   0.305E+01    0.404E+00
DAV:   2    -0.463701789994E+03   -0.20244E+00   -0.30257E+00  1624   0.459E+00    0.279E+00
DAV:   3    -0.463685396535E+03    0.16393E-01   -0.39002E-01  1576   0.171E+00    0.141E+00
DAV:   4    -0.463676049186E+03    0.93473E-02   -0.27263E-01  1552   0.130E+00    0.135E+00
DAV:   5    -0.463667389400E+03    0.86598E-02   -0.66680E-02  1544   0.660E-01    0.433E-01
DAV:   6    -0.463668796297E+03   -0.14069E-02   -0.21854E-02  1608   0.354E-01    0.257E-01
DAV:   7    -0.463667928254E+03    0.86804E-03   -0.74324E-03  1640   0.213E-01    0.140E-01
DAV:   8    -0.463668259968E+03   -0.33171E-03   -0.74940E-04  1528   0.761E-02    0.675E-02
DAV:   9    -0.463668393201E+03   -0.13323E-03   -0.17677E-04  1632   0.395E-02    0.319E-02
DAV:  10    -0.463668478456E+03   -0.85255E-04   -0.81341E-05  1464   0.275E-02    0.143E-02
DAV:  11    -0.463668522179E+03   -0.43723E-04   -0.25387E-05  1024   0.139E-02    0.788E-03
DAV:  12    -0.463668575579E+03   -0.53400E-04   -0.52101E-06  1016   0.540E-03    0.362E-03
DAV:  13    -0.463668640137E+03   -0.64559E-04   -0.32436E-06  1008   0.323E-03    0.205E-03
DAV:  14    -0.463668686262E+03   -0.46124E-04   -0.22553E-06  1032   0.233E-03    0.158E-03
DAV:  15    -0.463668723424E+03   -0.37163E-04   -0.20039E-06  1016   0.191E-03    0.121E-03
DAV:  16    -0.463668748185E+03   -0.24761E-04   -0.17100E-06  1032   0.176E-03    0.795E-04
DAV:  17    -0.463668758825E+03   -0.10640E-04   -0.72498E-07  1016   0.119E-03    0.480E-04
DAV:  18    -0.463668762948E+03   -0.41232E-05   -0.25649E-07   992   0.792E-04
   9 F= -.46366876E+03 E0= -.46361458E+03  d E =-.161451E+01
 curvature:  -2.30 expect dE=-0.196E+01 dE for cont linesearch -0.146E-06
 trial: gam= 0.57142 g(F)=  0.830E+00 g(S)=  0.220E-01 ort =-0.375E-03 (trialstep = 0.150E+01)
 search vector abs. value=  0.157E+01
 bond charge predicted
       N       E                     dE             d eps       ncg     rms          rms(c)
DAV:   1    -0.464500286086E+03   -0.83153E+00   -0.14540E+02  1376   0.289E+01    0.372E+00
DAV:   2    -0.464730490716E+03   -0.23020E+00   -0.47979E+00  1608   0.551E+00    0.448E+00
DAV:   3    -0.464638987659E+03    0.91503E-01   -0.57000E-01  1560   0.251E+00    0.213E+00
DAV:   4    -0.464624973823E+03    0.14014E-01   -0.99215E-02  1592   0.877E-01    0.164E+00
DAV:   5    -0.464624666677E+03    0.30715E-03   -0.45077E-02  1616   0.543E-01    0.782E-01
DAV:   6    -0.464624363301E+03    0.30338E-03   -0.24532E-02  1616   0.452E-01    0.387E-01
DAV:   7    -0.464622799859E+03    0.15634E-02   -0.82554E-03  1592   0.240E-01    0.201E-01
DAV:   8    -0.464623094539E+03   -0.29468E-03   -0.19660E-03  1544   0.969E-02    0.104E-01
DAV:   9    -0.464623220106E+03   -0.12557E-03   -0.62855E-04  1640   0.520E-02    0.554E-02
DAV:  10    -0.464623386423E+03   -0.16632E-03   -0.20704E-04  1560   0.322E-02    0.196E-02
DAV:  11    -0.464623506081E+03   -0.11966E-03   -0.50452E-05  1160   0.179E-02    0.861E-03
DAV:  12    -0.464623598792E+03   -0.92712E-04   -0.15859E-05  1040   0.922E-03    0.730E-03
DAV:  13    -0.464623700814E+03   -0.10202E-03   -0.98980E-06  1048   0.601E-03    0.330E-03
DAV:  14    -0.464623800734E+03   -0.99920E-04   -0.14049E-05  1072   0.476E-03    0.284E-03
DAV:  15    -0.464623843830E+03   -0.43097E-04   -0.50968E-06  1032   0.296E-03    0.210E-03
DAV:  16    -0.464623869281E+03   -0.25451E-04   -0.35225E-06  1024   0.249E-03    0.148E-03
DAV:  17    -0.464623881846E+03   -0.12565E-04   -0.19064E-06  1032   0.177E-03    0.657E-04
DAV:  18    -0.464623887785E+03   -0.59388E-05   -0.68406E-07  1000   0.117E-03
  10 F= -.46462389E+03 E0= -.46456996E+03  d E =-.955125E+00
 trial-energy change:   -0.955125  1 .order   -0.956098   -1.277696   -0.634500
 step:   2.9788(harm=  2.9788)  dis= 0.18169  next Energy=  -464.937822 (dE=-0.127E+01)
 bond charge predicted
       N       E                     dE             d eps       ncg     rms          rms(c)
DAV:   1    -0.464812516886E+03   -0.18864E+00   -0.14088E+02  1376   0.284E+01    0.356E+00
DAV:   2    -0.465034026128E+03   -0.22151E+00   -0.44096E+00  1624   0.520E+00    0.398E+00
DAV:   3    -0.464949919555E+03    0.84107E-01   -0.59829E-01  1560   0.243E+00    0.187E+00
DAV:   4    -0.464944284845E+03    0.56347E-02   -0.92212E-02  1592   0.875E-01    0.149E+00
DAV:   5    -0.464942297482E+03    0.19874E-02   -0.75548E-02  1644   0.612E-01    0.674E-01
DAV:   6    -0.464941261997E+03    0.10355E-02   -0.30767E-02  1620   0.421E-01    0.295E-01
DAV:   7    -0.464940677801E+03    0.58420E-03   -0.64796E-03  1600   0.185E-01    0.154E-01
DAV:   8    -0.464940761706E+03   -0.83904E-04   -0.14465E-03  1592   0.921E-02    0.978E-02
DAV:   9    -0.464940960636E+03   -0.19893E-03   -0.38305E-04  1576   0.498E-02    0.314E-02
DAV:  10    -0.464941109823E+03   -0.14919E-03   -0.84549E-05  1560   0.227E-02    0.125E-02
DAV:  11    -0.464941199492E+03   -0.89669E-04   -0.18827E-05  1104   0.111E-02    0.794E-03
DAV:  12    -0.464941301893E+03   -0.10240E-03   -0.10163E-05  1080   0.567E-03    0.473E-03
DAV:  13    -0.464941404284E+03   -0.10239E-03   -0.97858E-06  1072   0.413E-03    0.244E-03
DAV:  14    -0.464941487286E+03   -0.83003E-04   -0.11493E-05  1088   0.385E-03    0.286E-03
DAV:  15    -0.464941521666E+03   -0.34380E-04   -0.40664E-06  1056   0.248E-03    0.188E-03
DAV:  16    -0.464941546678E+03   -0.25012E-04   -0.39884E-06  1048   0.240E-03    0.910E-04
DAV:  17    -0.464941554377E+03   -0.76990E-05   -0.10724E-06  1032   0.151E-03
  11 F= -.46494155E+03 E0= -.46489160E+03  d E =-.127279E+01
 curvature:  -2.75 expect dE=-0.250E+01 dE for cont linesearch -0.104E-03
 trial: gam= 1.03613 g(F)=  0.860E+00 g(S)=  0.489E-01 ort = 0.773E-02 (trialstep = 0.108E+01)
 search vector abs. value=  0.262E+01
 bond charge predicted
       N       E                     dE             d eps       ncg     rms          rms(c)
DAV:   1    -0.465664039001E+03   -0.72249E+00   -0.12584E+02  1392   0.257E+01    0.318E+00
DAV:   2    -0.465855094262E+03   -0.19106E+00   -0.37564E+00  1600   0.437E+00    0.334E+00
DAV:   3    -0.465774596111E+03    0.80498E-01   -0.71972E-01  1528   0.224E+00    0.143E+00
DAV:   4    -0.465768023823E+03    0.65723E-02   -0.87130E-02  1608   0.848E-01    0.108E+00
DAV:   5    -0.465765972110E+03    0.20517E-02   -0.41130E-02  1600   0.497E-01    0.324E-01
DAV:   6    -0.465765803174E+03    0.16894E-03   -0.11040E-02  1704   0.250E-01    0.197E-01
DAV:   7    -0.465765633542E+03    0.16963E-03   -0.31103E-03  1648   0.135E-01    0.953E-02
DAV:   8    -0.465765867207E+03   -0.23366E-03   -0.57682E-04  1568   0.616E-02    0.423E-02
DAV:   9    -0.465766021031E+03   -0.15382E-03   -0.13695E-04  1616   0.342E-02    0.217E-02
DAV:  10    -0.465766147404E+03   -0.12637E-03   -0.45013E-05  1184   0.190E-02    0.937E-03
DAV:  11    -0.465766257595E+03   -0.11019E-03   -0.11991E-05  1056   0.806E-03    0.503E-03
DAV:  12    -0.465766377326E+03   -0.11973E-03   -0.11831E-05  1112   0.517E-03    0.282E-03
DAV:  13    -0.465766462958E+03   -0.85632E-04   -0.76187E-06  1072   0.396E-03    0.263E-03
DAV:  14    -0.465766515300E+03   -0.52342E-04   -0.55091E-06  1072   0.305E-03    0.211E-03
DAV:  15    -0.465766547438E+03   -0.32139E-04   -0.34527E-06  1072   0.222E-03    0.119E-03
DAV:  16    -0.465766565650E+03   -0.18212E-04   -0.22384E-06  1072   0.176E-03    0.530E-04
DAV:  17    -0.465766575525E+03   -0.98751E-05   -0.78284E-07  1008   0.120E-03
  12 F= -.46576658E+03 E0= -.46571831E+03  d E =-.825021E+00
 trial-energy change:   -0.825021  1 .order   -0.826415   -0.991091   -0.661740
 step:   3.2525(harm=  3.2525)  dis= 0.28772  next Energy=  -466.432762 (dE=-0.149E+01)
 bond charge predicted
       N       E                     dE             d eps       ncg     rms          rms(c)
DAV:   1    -0.465895046887E+03   -0.12848E+00   -0.52053E+02  1400   0.520E+01    0.630E+00
DAV:   2    -0.466640915185E+03   -0.74587E+00   -0.12424E+01  1632   0.846E+00    0.558E+00
DAV:   3    -0.466505275810E+03    0.13564E+00   -0.27012E+00  1552   0.391E+00    0.281E+00
DAV:   4    -0.466470221209E+03    0.35055E-01   -0.87009E-01  1588   0.217E+00    0.244E+00
DAV:   5    -0.466438683151E+03    0.31538E-01   -0.31281E-01  1576   0.115E+00    0.710E-01
DAV:   6    -0.466439697882E+03   -0.10147E-02   -0.31490E-02  1592   0.442E-01    0.365E-01
DAV:   7    -0.466439450986E+03    0.24690E-03   -0.65450E-03  1624   0.239E-01    0.180E-01
DAV:   8    -0.466439799146E+03   -0.34816E-03   -0.19460E-03  1584   0.111E-01    0.831E-02
DAV:   9    -0.466440379645E+03   -0.58050E-03   -0.40350E-04  1648   0.554E-02    0.316E-02
DAV:  10    -0.466440658976E+03   -0.27933E-03   -0.86755E-05  1504   0.270E-02    0.181E-02
DAV:  11    -0.466440919407E+03   -0.26043E-03   -0.26709E-05  1144   0.130E-02    0.104E-02
DAV:  12    -0.466441229306E+03   -0.30990E-03   -0.31343E-05  1152   0.881E-03    0.532E-03
DAV:  13    -0.466441458637E+03   -0.22933E-03   -0.21434E-05  1120   0.660E-03    0.459E-03
DAV:  14    -0.466441644870E+03   -0.18623E-03   -0.23454E-05  1144   0.580E-03    0.337E-03
DAV:  15    -0.466441745588E+03   -0.10072E-03   -0.12967E-05  1072   0.459E-03    0.207E-03
DAV:  16    -0.466441777080E+03   -0.31492E-04   -0.36030E-06  1080   0.299E-03    0.126E-03
DAV:  17    -0.466441796674E+03   -0.19594E-04   -0.14467E-06  1040   0.178E-03    0.944E-04
DAV:  18    -0.466441812272E+03   -0.15597E-04   -0.99061E-07  1032   0.139E-03    0.467E-04
DAV:  19    -0.466441820928E+03   -0.86562E-05   -0.52054E-07  1008   0.956E-04
  13 F= -.46644182E+03 E0= -.46640276E+03  d E =-.150027E+01
 curvature:  -4.64 expect dE=-0.381E+01 dE for cont linesearch -0.226E-03
 trial: gam= 0.77929 g(F)=  0.780E+00 g(S)=  0.417E-01 ort = 0.113E-01 (trialstep = 0.152E+01)
 search vector abs. value=  0.243E+01
 bond charge predicted
       N       E                     dE             d eps       ncg     rms          rms(c)
DAV:   1    -0.467190681334E+03   -0.74887E+00   -0.25317E+02  1376   0.346E+01    0.388E+00
DAV:   2    -0.467452223200E+03   -0.26154E+00   -0.43928E+00  1600   0.508E+00    0.284E+00
DAV:   3    -0.467437442826E+03    0.14780E-01   -0.87853E-01  1548   0.221E+00    0.161E+00
DAV:   4    -0.467393399897E+03    0.44043E-01   -0.28638E-01  1548   0.142E+00    0.106E+00
DAV:   5    -0.467391498034E+03    0.19019E-02   -0.47101E-02  1552   0.654E-01    0.326E-01
DAV:   6    -0.467391327338E+03    0.17070E-03   -0.73898E-03  1608   0.304E-01    0.200E-01
DAV:   7    -0.467391618701E+03   -0.29136E-03   -0.16648E-03  1600   0.121E-01    0.776E-02
DAV:   8    -0.467391816327E+03   -0.19763E-03   -0.28946E-04  1648   0.519E-02    0.412E-02
DAV:   9    -0.467392039450E+03   -0.22312E-03   -0.92411E-05  1584   0.290E-02    0.153E-02
DAV:  10    -0.467392197531E+03   -0.15808E-03   -0.21053E-05  1088   0.105E-02    0.795E-03
DAV:  11    -0.467392387924E+03   -0.19039E-03   -0.17780E-05  1072   0.670E-03    0.425E-03
DAV:  12    -0.467392561376E+03   -0.17345E-03   -0.17649E-05  1088   0.470E-03    0.295E-03
DAV:  13    -0.467392678893E+03   -0.11752E-03   -0.13223E-05  1072   0.388E-03    0.221E-03
DAV:  14    -0.467392745461E+03   -0.66568E-04   -0.79716E-06  1064   0.305E-03    0.114E-03
DAV:  15    -0.467392770272E+03   -0.24811E-04   -0.24293E-06  1080   0.208E-03    0.792E-04
DAV:  16    -0.467392787286E+03   -0.17014E-04   -0.14189E-06  1040   0.143E-03    0.604E-04
DAV:  17    -0.467392795844E+03   -0.85579E-05   -0.53497E-07   984   0.103E-03
  14 F= -.46739280E+03 E0= -.46736433E+03  d E =-.950975E+00
 trial-energy change:   -0.950975  1 .order   -0.946201   -1.259019   -0.633383
 step:   2.9246(harm=  3.0491)  dis= 0.26886  next Energy=  -467.691217 (dE=-0.125E+01)
 bond charge predicted
       N       E                     dE             d eps       ncg     rms          rms(c)
DAV:   1    -0.467503561761E+03   -0.11077E+00   -0.21821E+02  1376   0.321E+01    0.354E+00
DAV:   2    -0.467716134880E+03   -0.21257E+00   -0.34029E+00  1608   0.458E+00    0.216E+00
DAV:   3    -0.467701361559E+03    0.14773E-01   -0.33323E-01  1596   0.152E+00    0.121E+00
DAV:   4    -0.467689701348E+03    0.11660E-01   -0.18206E-01  1592   0.109E+00    0.959E-01
DAV:   5    -0.467684115725E+03    0.55856E-02   -0.57689E-02  1544   0.651E-01    0.280E-01
DAV:   6    -0.467683996170E+03    0.11956E-03   -0.70885E-03  1600   0.272E-01    0.159E-01
DAV:   7    -0.467684153988E+03   -0.15782E-03   -0.12124E-03  1648   0.945E-02    0.777E-02
DAV:   8    -0.467684315923E+03   -0.16194E-03   -0.25279E-04  1544   0.457E-02    0.399E-02
DAV:   9    -0.467684468126E+03   -0.15220E-03   -0.70687E-05  1536   0.243E-02    0.131E-02
DAV:  10    -0.467684584492E+03   -0.11637E-03   -0.10691E-05  1040   0.789E-03    0.696E-03
DAV:  11    -0.467684735660E+03   -0.15117E-03   -0.14261E-05  1072   0.606E-03    0.360E-03
DAV:  12    -0.467684844580E+03   -0.10892E-03   -0.84081E-06  1040   0.407E-03    0.258E-03
DAV:  13    -0.467684926858E+03   -0.82279E-04   -0.80944E-06  1048   0.338E-03    0.176E-03
DAV:  14    -0.467684975876E+03   -0.49018E-04   -0.56384E-06  1040   0.287E-03    0.116E-03
DAV:  15    -0.467684996445E+03   -0.20568E-04   -0.21514E-06  1064   0.188E-03    0.678E-04
DAV:  16    -0.467685007347E+03   -0.10902E-04   -0.85970E-07   960   0.125E-03    0.386E-04
DAV:  17    -0.467685015748E+03   -0.84016E-05   -0.84530E-07  1008   0.991E-04
  15 F= -.46768502E+03 E0= -.46766628E+03  d E =-.124319E+01
 curvature:  -4.43 expect dE=-0.408E+01 dE for cont linesearch -0.175E-03
 trial: gam= 1.00884 g(F)=  0.872E+00 g(S)=  0.486E-01 ort =-0.980E-02 (trialstep = 0.129E+01)
 search vector abs. value=  0.337E+01
 bond charge predicted
       N       E                     dE             d eps       ncg     rms          rms(c)
DAV:   1    -0.468296575004E+03   -0.61157E+00   -0.28597E+02  1400   0.343E+01    0.308E+00
DAV:   2    -0.468606221494E+03   -0.30965E+00   -0.39949E+00  1592   0.484E+00    0.261E+00
DAV:   3    -0.468588554499E+03    0.17667E-01   -0.27633E-01  1616   0.136E+00    0.149E+00
DAV:   4    -0.468582836372E+03    0.57181E-02   -0.12515E-01  1572   0.102E+00    0.131E+00
DAV:   5    -0.468573500637E+03    0.93357E-02   -0.74675E-02  1556   0.729E-01    0.329E-01
DAV:   6    -0.468573747350E+03   -0.24671E-03   -0.89268E-03  1552   0.262E-01    0.181E-01
DAV:   7    -0.468573725150E+03    0.22201E-04   -0.19083E-03  1568   0.128E-01    0.888E-02
DAV:   8    -0.468573875172E+03   -0.15002E-03   -0.42395E-04  1616   0.632E-02    0.471E-02
DAV:   9    -0.468574067266E+03   -0.19209E-03   -0.11044E-04  1520   0.320E-02    0.173E-02
DAV:  10    -0.468574186709E+03   -0.11944E-03   -0.16401E-05  1144   0.123E-02    0.932E-03
DAV:  11    -0.468574324600E+03   -0.13789E-03   -0.11700E-05  1040   0.708E-03    0.445E-03
DAV:  12    -0.468574458066E+03   -0.13347E-03   -0.14333E-05  1072   0.554E-03    0.275E-03
DAV:  13    -0.468574564266E+03   -0.10620E-03   -0.13176E-05  1052   0.473E-03    0.232E-03
DAV:  14    -0.468574615101E+03   -0.50836E-04   -0.65546E-06  1056   0.324E-03    0.124E-03
DAV:  15    -0.468574634160E+03   -0.19059E-04   -0.20922E-06  1016   0.207E-03    0.722E-04
DAV:  16    -0.468574648735E+03   -0.14575E-04   -0.13829E-06  1000   0.155E-03    0.577E-04
DAV:  17    -0.468574656728E+03   -0.79931E-05   -0.55749E-07   928   0.108E-03
  16 F= -.46857466E+03 E0= -.46856152E+03  d E =-.889641E+00
 trial-energy change:   -0.889641  1 .order   -0.891928   -1.178708   -0.605147
 step:   2.7316(harm=  2.6590)  dis= 0.30914  next Energy=  -468.907735 (dE=-0.122E+01)
 bond charge predicted
       N       E                     dE             d eps       ncg     rms          rms(c)
DAV:   1    -0.468534216010E+03    0.40433E-01   -0.35463E+02  1400   0.380E+01    0.335E+00
DAV:   2    -0.468926450247E+03   -0.39223E+00   -0.48495E+00  1576   0.529E+00    0.258E+00
DAV:   3    -0.468907507436E+03    0.18943E-01   -0.24404E-01  1664   0.125E+00    0.158E+00
DAV:   4    -0.468898597682E+03    0.89098E-02   -0.74056E-02  1568   0.805E-01    0.111E+00
DAV:   5    -0.468894559439E+03    0.40382E-02   -0.51277E-02  1528   0.624E-01    0.259E-01
DAV:   6    -0.468894047842E+03    0.51160E-03   -0.81309E-03  1568   0.285E-01    0.167E-01
DAV:   7    -0.468894158896E+03   -0.11105E-03   -0.14691E-03  1632   0.107E-01    0.907E-02
DAV:   8    -0.468894288873E+03   -0.12998E-03   -0.32413E-04  1536   0.585E-02    0.452E-02
DAV:   9    -0.468894506047E+03   -0.21717E-03   -0.11596E-04  1536   0.309E-02    0.174E-02
DAV:  10    -0.468894620205E+03   -0.11416E-03   -0.14433E-05  1080   0.121E-02    0.932E-03
DAV:  11    -0.468894779931E+03   -0.15973E-03   -0.14823E-05  1088   0.739E-03    0.450E-03
DAV:  12    -0.468894919466E+03   -0.13954E-03   -0.13901E-05  1048   0.638E-03    0.296E-03
DAV:  13    -0.468895024920E+03   -0.10545E-03   -0.14934E-05  1104   0.540E-03    0.229E-03
DAV:  14    -0.468895071588E+03   -0.46668E-04   -0.49220E-06  1064   0.337E-03    0.134E-03
DAV:  15    -0.468895090467E+03   -0.18879E-04   -0.18719E-06   984   0.213E-03    0.769E-04
DAV:  16    -0.468895101566E+03   -0.11099E-04   -0.10459E-06   960   0.157E-03    0.550E-04
DAV:  17    -0.468895111125E+03   -0.95588E-05   -0.87677E-07   944   0.117E-03
  17 F= -.46889511E+03 E0= -.46888746E+03  d E =-.121010E+01
 curvature:  -4.91 expect dE=-0.442E+01 dE for cont linesearch -0.590E-03
 trial: gam= 0.82060 g(F)=  0.887E+00 g(S)=  0.131E-01 ort =-0.201E-01 (trialstep = 0.158E+01)
 search vector abs. value=  0.314E+01
 bond charge predicted
       N       E                     dE             d eps       ncg     rms          rms(c)
DAV:   1    -0.469446665041E+03   -0.55156E+00   -0.41489E+02  1400   0.399E+01    0.339E+00
DAV:   2    -0.469917688476E+03   -0.47102E+00   -0.56198E+00  1584   0.570E+00    0.295E+00
DAV:   3    -0.469903160706E+03    0.14528E-01   -0.26357E-01  1608   0.127E+00    0.186E+00
DAV:   4    -0.469890509064E+03    0.12652E-01   -0.67556E-02  1568   0.810E-01    0.135E+00
DAV:   5    -0.469885900644E+03    0.46084E-02   -0.38999E-02  1544   0.568E-01    0.334E-01
DAV:   6    -0.469886096700E+03   -0.19606E-03   -0.51091E-03  1672   0.212E-01    0.238E-01
DAV:   7    -0.469886053917E+03    0.42783E-04   -0.11865E-03  1536   0.100E-01    0.112E-01
DAV:   8    -0.469886203707E+03   -0.14979E-03   -0.41369E-04  1536   0.593E-02    0.432E-02
DAV:   9    -0.469886394223E+03   -0.19052E-03   -0.11407E-04  1560   0.314E-02    0.180E-02
DAV:  10    -0.469886520017E+03   -0.12579E-03   -0.15887E-05  1096   0.113E-02    0.102E-02
DAV:  11    -0.469886718741E+03   -0.19872E-03   -0.22585E-05  1096   0.790E-03    0.450E-03
DAV:  12    -0.469886859887E+03   -0.14115E-03   -0.15322E-05  1024   0.566E-03    0.332E-03
DAV:  13    -0.469886962447E+03   -0.10256E-03   -0.16645E-05  1104   0.472E-03    0.221E-03
DAV:  14    -0.469887005995E+03   -0.43548E-04   -0.53533E-06  1040   0.283E-03    0.107E-03
DAV:  15    -0.469887021692E+03   -0.15697E-04   -0.15703E-06  1008   0.177E-03    0.696E-04
DAV:  16    -0.469887033948E+03   -0.12256E-04   -0.11054E-06   992   0.141E-03    0.661E-04
DAV:  17    -0.469887039766E+03   -0.58184E-05   -0.42712E-07   920   0.976E-04
  18 F= -.46988704E+03 E0= -.46988476E+03  d E =-.991929E+00
 trial-energy change:   -0.991929  1 .order   -0.992078   -1.397341   -0.586815
 step:   2.7264(harm=  2.7264)  dis= 0.29678  next Energy=  -470.099614 (dE=-0.120E+01)
 bond charge predicted
       N       E                     dE             d eps       ncg     rms          rms(c)
DAV:   1    -0.469886157100E+03    0.87685E-03   -0.21275E+02  1408   0.285E+01    0.231E+00
DAV:   2    -0.470115768489E+03   -0.22961E+00   -0.26951E+00  1584   0.392E+00    0.180E+00
DAV:   3    -0.470107076612E+03    0.86919E-02   -0.11872E-01  1600   0.853E-01    0.114E+00
DAV:   4    -0.470101203595E+03    0.58730E-02   -0.29822E-02  1560   0.512E-01    0.713E-01
DAV:   5    -0.470100119253E+03    0.10843E-02   -0.11654E-02  1556   0.306E-01    0.184E-01
DAV:   6    -0.470100247855E+03   -0.12860E-03   -0.16094E-03  1680   0.118E-01    0.120E-01
DAV:   7    -0.470100265820E+03   -0.17965E-04   -0.32739E-04  1536   0.523E-02    0.560E-02
DAV:   8    -0.470100358476E+03   -0.92655E-04   -0.13808E-04  1528   0.341E-02    0.208E-02
DAV:   9    -0.470100440332E+03   -0.81857E-04   -0.30686E-05  1280   0.168E-02    0.115E-02
DAV:  10    -0.470100505276E+03   -0.64943E-04   -0.56400E-06  1000   0.681E-03    0.605E-03
DAV:  11    -0.470100602684E+03   -0.97409E-04   -0.10095E-05  1012   0.519E-03    0.254E-03
DAV:  12    -0.470100667624E+03   -0.64940E-04   -0.69464E-06  1048   0.391E-03    0.226E-03
DAV:  13    -0.470100714474E+03   -0.46850E-04   -0.59281E-06  1016   0.322E-03    0.963E-04
DAV:  14    -0.470100730718E+03   -0.16244E-04   -0.22342E-06  1024   0.207E-03    0.716E-04
DAV:  15    -0.470100739448E+03   -0.87300E-05   -0.93612E-07   904   0.148E-03
  19 F= -.47010074E+03 E0= -.47009987E+03  d E =-.120563E+01
 curvature:  -4.84 expect dE=-0.390E+01 dE for cont linesearch -0.833E-05
 trial: gam= 0.76961 g(F)=  0.789E+00 g(S)=  0.162E-01 ort = 0.232E-02 (trialstep = 0.181E+01)
 search vector abs. value=  0.267E+01
 bond charge predicted
       N       E                     dE             d eps       ncg     rms          rms(c)
DAV:   1    -0.470658054873E+03   -0.55732E+00   -0.44285E+02  1376   0.420E+01    0.336E+00
DAV:   2    -0.471150451893E+03   -0.49240E+00   -0.58818E+00  1544   0.585E+00    0.238E+00
DAV:   3    -0.471126163817E+03    0.24288E-01   -0.25315E-01  1600   0.143E+00    0.160E+00
DAV:   4    -0.471112865134E+03    0.13299E-01   -0.67846E-02  1632   0.835E-01    0.806E-01
DAV:   5    -0.471110964954E+03    0.19002E-02   -0.18040E-02  1552   0.411E-01    0.308E-01
DAV:   6    -0.471111292600E+03   -0.32765E-03   -0.31887E-03  1704   0.169E-01    0.152E-01
DAV:   7    -0.471111303533E+03   -0.10933E-04   -0.63957E-04  1496   0.854E-02    0.839E-02
DAV:   8    -0.471111474782E+03   -0.17125E-03   -0.28341E-04  1576   0.475E-02    0.275E-02
DAV:   9    -0.471111573096E+03   -0.98315E-04   -0.46160E-05  1384   0.220E-02    0.161E-02
DAV:  10    -0.471111699037E+03   -0.12594E-03   -0.11930E-05   968   0.126E-02    0.797E-03
DAV:  11    -0.471111861882E+03   -0.16284E-03   -0.18074E-05  1080   0.118E-02    0.414E-03
DAV:  12    -0.471111935740E+03   -0.73857E-04   -0.72478E-06  1032   0.623E-03    0.347E-03
DAV:  13    -0.471111998352E+03   -0.62612E-04   -0.49014E-06   968   0.388E-03    0.156E-03
DAV:  14    -0.471112036832E+03   -0.38480E-04   -0.42190E-06  1000   0.314E-03    0.114E-03
DAV:  15    -0.471112052425E+03   -0.15593E-04   -0.15908E-06  1008   0.222E-03    0.827E-04
DAV:  16    -0.471112060226E+03   -0.78010E-05   -0.75626E-07   920   0.136E-03
  20 F= -.47111206E+03 E0= -.47111198E+03  d E =-.101132E+01
 trial-energy change:   -1.011321  1 .order   -1.007032   -1.461051   -0.553013
 step:   2.8656(harm=  2.9130)  dis= 0.27680  next Energy=  -471.274078 (dE=-0.117E+01)
 bond charge predicted
       N       E                     dE             d eps       ncg     rms          rms(c)
DAV:   1    -0.471131397818E+03   -0.19345E-01   -0.14650E+02  1376   0.241E+01    0.193E+00
DAV:   2    -0.471284383309E+03   -0.15299E+00   -0.18693E+00  1560   0.335E+00    0.118E+00
DAV:   3    -0.471274648071E+03    0.97352E-02   -0.85635E-02  1608   0.882E-01    0.832E-01
DAV:   4    -0.471271489665E+03    0.31584E-02   -0.22916E-02  1600   0.500E-01    0.375E-01
DAV:   5    -0.471271031191E+03    0.45847E-03   -0.47632E-03  1536   0.232E-01    0.159E-01
DAV:   6    -0.471271139310E+03   -0.10812E-03   -0.87644E-04  1584   0.911E-02    0.623E-02
DAV:   7    -0.471271166195E+03   -0.26885E-04   -0.20476E-04  1488   0.404E-02    0.398E-02
DAV:   8    -0.471271237371E+03   -0.71176E-04   -0.61525E-05  1512   0.213E-02    0.124E-02
DAV:   9    -0.471271288035E+03   -0.50664E-04   -0.82919E-06   968   0.100E-02    0.725E-03
DAV:  10    -0.471271354925E+03   -0.66889E-04   -0.64774E-06   952   0.777E-03    0.343E-03
DAV:  11    -0.471271407966E+03   -0.53041E-04   -0.46729E-06   976   0.539E-03    0.274E-03
DAV:  12    -0.471271436350E+03   -0.28384E-04   -0.23992E-06   976   0.338E-03    0.190E-03
DAV:  13    -0.471271456424E+03   -0.20074E-04   -0.17458E-06   960   0.227E-03    0.108E-03
DAV:  14    -0.471271468388E+03   -0.11965E-04   -0.12149E-06   968   0.169E-03    0.752E-04
DAV:  15    -0.471271474847E+03   -0.64584E-05   -0.63283E-07   960   0.125E-03
  21 F= -.47127147E+03 E0= -.47127145E+03  d E =-.117074E+01
 curvature:  -4.81 expect dE=-0.386E+01 dE for cont linesearch -0.246E-04
 trial: gam= 1.01343 g(F)=  0.797E+00 g(S)=  0.715E-02 ort =-0.370E-02 (trialstep = 0.152E+01)
 search vector abs. value=  0.354E+01
 bond charge predicted
       N       E                     dE             d eps       ncg     rms          rms(c)
DAV:   1    -0.471778345088E+03   -0.50688E+00   -0.39932E+02  1392   0.413E+01    0.315E+00
DAV:   2    -0.472212430342E+03   -0.43409E+00   -0.51941E+00  1576   0.548E+00    0.208E+00
DAV:   3    -0.472191685998E+03    0.20744E-01   -0.20884E-01  1624   0.134E+00    0.140E+00
DAV:   4    -0.472182059023E+03    0.96270E-02   -0.54725E-02  1600   0.702E-01    0.781E-01
DAV:   5    -0.472180741130E+03    0.13179E-02   -0.10607E-02  1528   0.304E-01    0.246E-01
DAV:   6    -0.472181058844E+03   -0.31771E-03   -0.21639E-03  1616   0.136E-01    0.134E-01
DAV:   7    -0.472181112679E+03   -0.53835E-04   -0.47899E-04  1488   0.643E-02    0.728E-02
DAV:   8    -0.472181230766E+03   -0.11809E-03   -0.19716E-04  1608   0.435E-02    0.280E-02
DAV:   9    -0.472181312935E+03   -0.82169E-04   -0.33819E-05  1248   0.176E-02    0.162E-02
DAV:  10    -0.472181410251E+03   -0.97316E-04   -0.10381E-05   976   0.825E-03    0.610E-03
DAV:  11    -0.472181494024E+03   -0.83773E-04   -0.62814E-06   984   0.574E-03    0.383E-03
DAV:  12    -0.472181555966E+03   -0.61942E-04   -0.43615E-06   984   0.503E-03    0.242E-03
DAV:  13    -0.472181609461E+03   -0.53495E-04   -0.41199E-06   976   0.419E-03    0.164E-03
DAV:  14    -0.472181633917E+03   -0.24456E-04   -0.24412E-06   992   0.263E-03    0.120E-03
DAV:  15    -0.472181647095E+03   -0.13178E-04   -0.13551E-06   968   0.199E-03    0.777E-04
DAV:  16    -0.472181652652E+03   -0.55568E-05   -0.67690E-07   968   0.124E-03
  22 F= -.47218165E+03 E0= -.47218165E+03  d E =-.910178E+00
 trial-energy change:   -0.910178  1 .order   -0.910475   -1.220316   -0.600634
 step:   3.0028(harm=  3.0028)  dis= 0.31977  next Energy=  -472.473035 (dE=-0.120E+01)
 bond charge predicted
       N       E                     dE             d eps       ncg     rms          rms(c)
DAV:   1    -0.472098791933E+03    0.82855E-01   -0.37462E+02  1392   0.400E+01    0.305E+00
DAV:   2    -0.472503156783E+03   -0.40436E+00   -0.48604E+00  1568   0.531E+00    0.195E+00
DAV:   3    -0.472484017987E+03    0.19139E-01   -0.19690E-01  1584   0.131E+00    0.131E+00
DAV:   4    -0.472475469223E+03    0.85488E-02   -0.50465E-02  1624   0.676E-01    0.721E-01
DAV:   5    -0.472474310833E+03    0.11584E-02   -0.92839E-03  1568   0.288E-01    0.227E-01
DAV:   6    -0.472474600027E+03   -0.28919E-03   -0.19265E-03  1568   0.131E-01    0.119E-01
DAV:   7    -0.472474665961E+03   -0.65933E-04   -0.46727E-04  1520   0.647E-02    0.675E-02
DAV:   8    -0.472474783402E+03   -0.11744E-03   -0.15864E-04  1608   0.398E-02    0.273E-02
DAV:   9    -0.472474857304E+03   -0.73902E-04   -0.30135E-05  1248   0.182E-02    0.173E-02
DAV:  10    -0.472474948582E+03   -0.91278E-04   -0.10006E-05   944   0.851E-03    0.725E-03
DAV:  11    -0.472475038337E+03   -0.89755E-04   -0.64315E-06   984   0.589E-03    0.381E-03
DAV:  12    -0.472475100971E+03   -0.62633E-04   -0.41332E-06   976   0.529E-03    0.293E-03
DAV:  13    -0.472475148581E+03   -0.47611E-04   -0.36875E-06   976   0.434E-03    0.146E-03
DAV:  14    -0.472475181615E+03   -0.33033E-04   -0.32567E-06   984   0.304E-03    0.126E-03
DAV:  15    -0.472475193643E+03   -0.12028E-04   -0.13403E-06   968   0.198E-03    0.741E-04
DAV:  16    -0.472475192163E+03    0.14798E-05   -0.56823E-07   956   0.121E-03
  23 F= -.47247519E+03 E0= -.47247519E+03  d E =-.120372E+01
 curvature:  -6.63 expect dE=-0.440E+01 dE for cont linesearch -0.167E-04
 trial: gam= 0.82451 g(F)=  0.657E+00 g(S)=  0.682E-02 ort = 0.299E-02 (trialstep = 0.182E+01)
 search vector abs. value=  0.307E+01
 bond charge predicted
       N       E                     dE             d eps       ncg     rms          rms(c)
DAV:   1    -0.472749350408E+03   -0.27416E+00   -0.46217E+02  1376   0.466E+01    0.411E+00
DAV:   2    -0.473295501281E+03   -0.54615E+00   -0.67859E+00  1592   0.646E+00    0.241E+00
DAV:   3    -0.473268014664E+03    0.27487E-01   -0.26984E-01  1616   0.156E+00    0.171E+00
DAV:   4    -0.473255834830E+03    0.12180E-01   -0.62684E-02  1592   0.748E-01    0.104E+00
DAV:   5    -0.473253557800E+03    0.22770E-02   -0.13544E-02  1552   0.383E-01    0.297E-01
DAV:   6    -0.473254028256E+03   -0.47046E-03   -0.40260E-03  1576   0.188E-01    0.169E-01
DAV:   7    -0.473254141159E+03   -0.11290E-03   -0.73054E-04  1512   0.818E-02    0.110E-01
DAV:   8    -0.473254305013E+03   -0.16385E-03   -0.27950E-04  1536   0.565E-02    0.385E-02
DAV:   9    -0.473254422514E+03   -0.11750E-03   -0.83850E-05  1552   0.278E-02    0.209E-02
DAV:  10    -0.473254517690E+03   -0.95176E-04   -0.11915E-05   960   0.115E-02    0.115E-02
DAV:  11    -0.473254648350E+03   -0.13066E-03   -0.14482E-05   976   0.968E-03    0.406E-03
DAV:  12    -0.473254718765E+03   -0.70415E-04   -0.66606E-06  1008   0.626E-03    0.391E-03
DAV:  13    -0.473254796454E+03   -0.77689E-04   -0.78313E-06   944   0.597E-03    0.272E-03
DAV:  14    -0.473254831343E+03   -0.34888E-04   -0.51020E-06   984   0.424E-03    0.242E-03
DAV:  15    -0.473254841756E+03   -0.10414E-04   -0.15340E-06   992   0.302E-03    0.128E-03
DAV:  16    -0.473254853176E+03   -0.11419E-04   -0.15641E-06   928   0.229E-03    0.133E-03
DAV:  17    -0.473254856015E+03   -0.28398E-05   -0.44278E-07   960   0.172E-03
  24 F= -.47325486E+03 E0= -.47325486E+03  d E =-.779664E+00
 trial-energy change:   -0.779664  1 .order   -0.783097   -1.212019   -0.354174
 step:   2.5987(harm=  2.5720)  dis= 0.23584  next Energy=  -473.330296 (dE=-0.855E+00)
 bond charge predicted
       N       E                     dE             d eps       ncg     rms          rms(c)
DAV:   1    -0.473244514012E+03    0.10339E-01   -0.82225E+01  1376   0.197E+01    0.159E+00
DAV:   2    -0.473337141513E+03   -0.92628E-01   -0.11567E+00  1600   0.265E+00    0.921E-01
DAV:   3    -0.473331976722E+03    0.51648E-02   -0.45796E-02  1600   0.643E-01    0.647E-01
DAV:   4    -0.473330209465E+03    0.17673E-02   -0.11240E-02  1600   0.313E-01    0.348E-01
DAV:   5    -0.473330067885E+03    0.14158E-03   -0.21199E-03  1568   0.146E-01    0.968E-02
DAV:   6    -0.473330140790E+03   -0.72905E-04   -0.45913E-04  1568   0.681E-02    0.523E-02
DAV:   7    -0.473330168708E+03   -0.27918E-04   -0.87497E-05  1496   0.294E-02    0.340E-02
DAV:   8    -0.473330212278E+03   -0.43570E-04   -0.33585E-05  1176   0.198E-02    0.114E-02
DAV:   9    -0.473330239604E+03   -0.27326E-04   -0.10766E-05   952   0.107E-02    0.706E-03
DAV:  10    -0.473330266060E+03   -0.26455E-04   -0.37020E-06   920   0.554E-03    0.412E-03
DAV:  11    -0.473330299331E+03   -0.33271E-04   -0.32066E-06   952   0.440E-03    0.176E-03
DAV:  12    -0.473330315501E+03   -0.16170E-04   -0.15524E-06   952   0.277E-03    0.151E-03
DAV:  13    -0.473330333466E+03   -0.17965E-04   -0.17808E-06   920   0.257E-03    0.674E-04
DAV:  14    -0.473330343184E+03   -0.97180E-05   -0.12131E-06   944   0.185E-03
  25 F= -.47333034E+03 E0= -.47333034E+03  d E =-.855151E+00
 curvature:  -5.93 expect dE=-0.322E+01 dE for cont linesearch -0.171E-06
 trial: gam= 0.82120 g(F)=  0.494E+00 g(S)=  0.495E-01 ort = 0.298E-03 (trialstep = 0.198E+01)
 search vector abs. value=  0.262E+01
 bond charge predicted
       N       E                     dE             d eps       ncg     rms          rms(c)
DAV:   1    -0.473524918593E+03   -0.19459E+00   -0.43482E+02  1376   0.478E+01    0.456E+00
DAV:   2    -0.474038834275E+03   -0.51392E+00   -0.70284E+00  1600   0.670E+00    0.221E+00
DAV:   3    -0.474006725244E+03    0.32109E-01   -0.28638E-01  1600   0.167E+00    0.161E+00
DAV:   4    -0.473996883557E+03    0.98417E-02   -0.71735E-02  1616   0.854E-01    0.903E-01
DAV:   5    -0.473995773104E+03    0.11105E-02   -0.12078E-02  1544   0.383E-01    0.287E-01
DAV:   6    -0.473995992804E+03   -0.21970E-03   -0.36035E-03  1600   0.200E-01    0.105E-01
DAV:   7    -0.473996093174E+03   -0.10037E-03   -0.71068E-04  1520   0.799E-02    0.743E-02
DAV:   8    -0.473996187405E+03   -0.94231E-04   -0.15528E-04  1592   0.400E-02    0.259E-02
DAV:   9    -0.473996255769E+03   -0.68364E-04   -0.37772E-05  1328   0.199E-02    0.136E-02
DAV:  10    -0.473996316731E+03   -0.60962E-04   -0.87194E-06   912   0.976E-03    0.612E-03
DAV:  11    -0.473996391841E+03   -0.75109E-04   -0.61712E-06   968   0.768E-03    0.284E-03
DAV:  12    -0.473996445430E+03   -0.53589E-04   -0.48862E-06   984   0.596E-03    0.247E-03
DAV:  13    -0.473996489153E+03   -0.43724E-04   -0.37915E-06   944   0.475E-03    0.129E-03
DAV:  14    -0.473996512178E+03   -0.23025E-04   -0.27222E-06   952   0.316E-03    0.111E-03
DAV:  15    -0.473996518431E+03   -0.62522E-05   -0.92367E-07   968   0.193E-03
  26 F= -.47399652E+03 E0= -.47399652E+03  d E =-.666175E+00
 trial-energy change:   -0.666175  1 .order   -0.661465   -1.073846   -0.249083
 step:   2.5476(harm=  2.5729)  dis= 0.18864  next Energy=  -474.032653 (dE=-0.702E+00)
 bond charge predicted
       N       E                     dE             d eps       ncg     rms          rms(c)
DAV:   1    -0.473996657664E+03   -0.14549E-03   -0.35808E+01  1376   0.137E+01    0.118E+00
DAV:   2    -0.474036270706E+03   -0.39613E-01   -0.55053E-01  1624   0.189E+00    0.627E-01
DAV:   3    -0.474033635385E+03    0.26353E-02   -0.22993E-02  1552   0.485E-01    0.425E-01
DAV:   4    -0.474032928161E+03    0.70722E-03   -0.63000E-03  1616   0.256E-01    0.225E-01
DAV:   5    -0.474032899236E+03    0.28925E-04   -0.10087E-03  1528   0.111E-01    0.764E-02
DAV:   6    -0.474032932030E+03   -0.32794E-04   -0.25095E-04  1552   0.487E-02    0.290E-02
DAV:   7    -0.474032939490E+03   -0.74604E-05   -0.41087E-05  1216   0.200E-02
  27 F= -.47403294E+03 E0= -.47403294E+03  d E =-.702596E+00
 curvature:  -6.18 expect dE=-0.204E+01 dE for cont linesearch -0.532E-06
 trial: gam= 0.52467 g(F)=  0.321E+00 g(S)=  0.887E-02 ort = 0.475E-03 (trialstep = 0.209E+01)
 search vector abs. value=  0.105E+01
 bond charge predicted
       N       E                     dE             d eps       ncg     rms          rms(c)
DAV:   1    -0.474283096333E+03   -0.25016E+00   -0.17363E+02  1376   0.324E+01    0.312E+00
DAV:   2    -0.474471119056E+03   -0.18802E+00   -0.29458E+00  1584   0.449E+00    0.158E+00
DAV:   3    -0.474453381262E+03    0.17738E-01   -0.13708E-01  1624   0.117E+00    0.103E+00
DAV:   4    -0.474448317359E+03    0.50639E-02   -0.38849E-02  1568   0.628E-01    0.514E-01
DAV:   5    -0.474447794003E+03    0.52336E-03   -0.54857E-03  1584   0.266E-01    0.179E-01
DAV:   6    -0.474447937393E+03   -0.14339E-03   -0.13534E-03  1544   0.110E-01    0.733E-02
DAV:   7    -0.474447976917E+03   -0.39524E-04   -0.19761E-04  1520   0.448E-02    0.403E-02
DAV:   8    -0.474448043457E+03   -0.66540E-04   -0.51497E-05  1528   0.227E-02    0.116E-02
DAV:   9    -0.474448076641E+03   -0.33184E-04   -0.86851E-06   952   0.993E-03    0.678E-03
DAV:  10    -0.474448118888E+03   -0.42247E-04   -0.44482E-06   920   0.648E-03    0.275E-03
DAV:  11    -0.474448152430E+03   -0.33542E-04   -0.21627E-06   944   0.372E-03    0.194E-03
DAV:  12    -0.474448177963E+03   -0.25533E-04   -0.15603E-06   928   0.258E-03    0.120E-03
DAV:  13    -0.474448204045E+03   -0.26083E-04   -0.20290E-06   952   0.248E-03    0.828E-04
DAV:  14    -0.474448213536E+03   -0.94907E-05   -0.82859E-07   952   0.158E-03
  28 F= -.47444821E+03 E0= -.47444821E+03  d E =-.415274E+00
 trial-energy change:   -0.415274  1 .order   -0.413935   -0.689424   -0.138445
 step:   2.6063(harm=  2.6157)  dis= 0.09585  next Energy=  -474.465317 (dE=-0.432E+00)
 bond charge predicted
       N       E                     dE             d eps       ncg     rms          rms(c)
DAV:   1    -0.474455539418E+03   -0.73354E-02   -0.10560E+01  1376   0.799E+00    0.735E-01
DAV:   2    -0.474466545070E+03   -0.11006E-01   -0.17380E-01  1616   0.110E+00    0.400E-01
DAV:   3    -0.474465465748E+03    0.10793E-02   -0.80023E-03  1600   0.290E-01    0.254E-01
DAV:   4    -0.474465194063E+03    0.27168E-03   -0.25061E-03  1528   0.159E-01    0.122E-01
DAV:   5    -0.474465173979E+03    0.20085E-04   -0.33803E-04  1576   0.666E-02    0.438E-02
DAV:   6    -0.474465186027E+03   -0.12049E-04   -0.83147E-05  1552   0.265E-02    0.190E-02
DAV:   7    -0.474465189615E+03   -0.35875E-05   -0.11237E-05   920   0.113E-02
  29 F= -.47446519E+03 E0= -.47446519E+03  d E =-.432250E+00
 curvature:  -4.16 expect dE=-0.102E+01 dE for cont linesearch -0.562E-06
 trial: gam= 0.71576 g(F)=  0.224E+00 g(S)=  0.202E-01 ort =-0.377E-03 (trialstep = 0.219E+01)
 search vector abs. value=  0.782E+00
 bond charge predicted
       N       E                     dE             d eps       ncg     rms          rms(c)
DAV:   1    -0.474594669651E+03   -0.12948E+00   -0.14070E+02  1376   0.304E+01    0.257E+00
DAV:   2    -0.474774105575E+03   -0.17944E+00   -0.24114E+00  1600   0.401E+00    0.146E+00
DAV:   3    -0.474760702363E+03    0.13403E-01   -0.10076E-01  1640   0.990E-01    0.102E+00
DAV:   4    -0.474756415651E+03    0.42867E-02   -0.25731E-02  1560   0.471E-01    0.532E-01
DAV:   5    -0.474756203423E+03    0.21223E-03   -0.49303E-03  1696   0.239E-01    0.141E-01
DAV:   6    -0.474756450454E+03   -0.24703E-03   -0.10901E-03  1544   0.967E-02    0.773E-02
DAV:   7    -0.474756569412E+03   -0.11896E-03   -0.13091E-04  1504   0.368E-02    0.428E-02
DAV:   8    -0.474756720459E+03   -0.15105E-03   -0.70360E-05  1544   0.274E-02    0.148E-02
DAV:   9    -0.474756790257E+03   -0.69799E-04   -0.15866E-05  1008   0.130E-02    0.860E-03
DAV:  10    -0.474756864359E+03   -0.74102E-04   -0.68464E-06   968   0.723E-03    0.402E-03
DAV:  11    -0.474756948036E+03   -0.83677E-04   -0.70832E-06   968   0.577E-03    0.262E-03
DAV:  12    -0.474757001985E+03   -0.53950E-04   -0.58421E-06  1008   0.430E-03    0.207E-03
DAV:  13    -0.474757039945E+03   -0.37959E-04   -0.45889E-06   952   0.338E-03    0.107E-03
DAV:  14    -0.474757053180E+03   -0.13235E-04   -0.18092E-06   968   0.220E-03    0.783E-04
DAV:  15    -0.474757059143E+03   -0.59631E-05   -0.85349E-07   952   0.143E-03
  30 F= -.47475706E+03 E0= -.47475706E+03  d E =-.291870E+00
 trial-energy change:   -0.291870  1 .order   -0.292116   -0.535577   -0.048656
 step:   2.4128(harm=  2.4128)  dis= 0.05862  next Energy=  -474.759737 (dE=-0.295E+00)
 bond charge predicted
       N       E                     dE             d eps       ncg     rms          rms(c)
DAV:   1    -0.474757961445E+03   -0.90826E-03   -0.14016E+00  1376   0.304E+00    0.239E-01
DAV:   2    -0.474759673922E+03   -0.17125E-02   -0.23095E-02  1584   0.392E-01    0.142E-01
DAV:   3    -0.474759549659E+03    0.12426E-03   -0.99568E-04  1596   0.987E-02    0.937E-02
DAV:   4    -0.474759517172E+03    0.32486E-04   -0.26698E-04  1544   0.486E-02    0.459E-02
DAV:   5    -0.474759517789E+03   -0.61652E-06   -0.45471E-05  1264   0.231E-02
  31 F= -.47475952E+03 E0= -.47475952E+03  d E =-.294328E+00
 curvature:  -3.86 expect dE=-0.562E+00 dE for cont linesearch -0.184E-06
 trial: gam= 0.58454 g(F)=  0.145E+00 g(S)=  0.847E-03 ort = 0.193E-03 (trialstep = 0.224E+01)
 search vector abs. value=  0.413E+00
 bond charge predicted
       N       E                     dE             d eps       ncg     rms          rms(c)
DAV:   1    -0.474866425319E+03   -0.10691E+00   -0.76430E+01  1376   0.229E+01    0.180E+00
DAV:   2    -0.474963629402E+03   -0.97204E-01   -0.13179E+00  1632   0.297E+00    0.106E+00
DAV:   3    -0.474955408177E+03    0.82212E-02   -0.52914E-02  1696   0.697E-01    0.684E-01
DAV:   4    -0.474953612816E+03    0.17954E-02   -0.11889E-02  1528   0.325E-01    0.306E-01
DAV:   5    -0.474953822670E+03   -0.20985E-03   -0.24515E-03  1712   0.152E-01    0.819E-02
DAV:   6    -0.474953899732E+03   -0.77062E-04   -0.39318E-04  1568   0.582E-02    0.454E-02
DAV:   7    -0.474953943793E+03   -0.44061E-04   -0.45358E-05  1312   0.226E-02    0.185E-02
DAV:   8    -0.474953987330E+03   -0.43537E-04   -0.15559E-05   928   0.129E-02    0.668E-03
DAV:   9    -0.474954016374E+03   -0.29044E-04   -0.46933E-06   960   0.637E-03    0.406E-03
DAV:  10    -0.474954052297E+03   -0.35923E-04   -0.31390E-06   908   0.450E-03    0.192E-03
DAV:  11    -0.474954079075E+03   -0.26778E-04   -0.26731E-06   968   0.357E-03    0.160E-03
DAV:  12    -0.474954098050E+03   -0.18975E-04   -0.17631E-06   920   0.302E-03    0.992E-04
DAV:  13    -0.474954114964E+03   -0.16914E-04   -0.16132E-06   920   0.229E-03    0.609E-04
DAV:  14    -0.474954119591E+03   -0.46273E-05   -0.71735E-07   952   0.140E-03
  32 F= -.47495412E+03 E0= -.47495412E+03  d E =-.194602E+00
 trial-energy change:   -0.194602  1 .order   -0.195002   -0.325731   -0.064273
 step:   2.7874(harm=  2.7874)  dis= 0.03565  next Energy=  -474.962420 (dE=-0.203E+00)
 bond charge predicted
       N       E                     dE             d eps       ncg     rms          rms(c)
DAV:   1    -0.474956938764E+03   -0.28238E-02   -0.46150E+00  1376   0.563E+00    0.424E-01
DAV:   2    -0.474962622637E+03   -0.56839E-02   -0.77688E-02  1612   0.720E-01    0.257E-01
DAV:   3    -0.474962146638E+03    0.47600E-03   -0.31453E-03  1680   0.171E-01    0.160E-01
DAV:   4    -0.474962068694E+03    0.77945E-04   -0.74586E-04  1496   0.825E-02    0.683E-02
DAV:   5    -0.474962086077E+03   -0.17383E-04   -0.14456E-04  1696   0.379E-02    0.202E-02
DAV:   6    -0.474962089975E+03   -0.38982E-05   -0.19882E-05  1016   0.142E-02
  33 F= -.47496209E+03 E0= -.47496209E+03  d E =-.202572E+00
 curvature:  -3.95 expect dE=-0.629E+00 dE for cont linesearch -0.144E-06
 trial: gam= 1.08913 g(F)=  0.155E+00 g(S)=  0.373E-02 ort = 0.123E-03 (trialstep = 0.149E+01)
 search vector abs. value=  0.649E+00
 bond charge predicted
       N       E                     dE             d eps       ncg     rms          rms(c)
DAV:   1    -0.475083705160E+03   -0.12162E+00   -0.51997E+01  1376   0.190E+01    0.137E+00
DAV:   2    -0.475147669378E+03   -0.63964E-01   -0.85565E-01  1668   0.237E+00    0.866E-01
DAV:   3    -0.475142961711E+03    0.47077E-02   -0.31157E-02  1680   0.534E-01    0.536E-01
DAV:   4    -0.475142194614E+03    0.76710E-03   -0.83024E-03  1552   0.285E-01    0.224E-01
DAV:   5    -0.475142452564E+03   -0.25795E-03   -0.15733E-03  1664   0.139E-01    0.713E-02
DAV:   6    -0.475142510014E+03   -0.57450E-04   -0.27129E-04  1496   0.497E-02    0.418E-02
DAV:   7    -0.475142525853E+03   -0.15839E-04   -0.39716E-05  1224   0.222E-02    0.180E-02
DAV:   8    -0.475142549465E+03   -0.23612E-04   -0.15787E-05   928   0.120E-02    0.562E-03
DAV:   9    -0.475142563625E+03   -0.14160E-04   -0.32235E-06   952   0.639E-03    0.323E-03
DAV:  10    -0.475142583689E+03   -0.20064E-04   -0.23609E-06   908   0.562E-03    0.121E-03
DAV:  11    -0.475142595364E+03   -0.11674E-04   -0.15382E-06   968   0.326E-03    0.120E-03
DAV:  12    -0.475142605337E+03   -0.99730E-05   -0.83169E-07   920   0.196E-03
  34 F= -.47514261E+03 E0= -.47514261E+03  d E =-.180515E+00
 trial-energy change:   -0.180515  1 .order   -0.180326   -0.237830   -0.122822
 step:   3.0872(harm=  3.0872)  dis= 0.04908  next Energy=  -475.208000 (dE=-0.246E+00)
 bond charge predicted
       N       E                     dE             d eps       ncg     rms          rms(c)
DAV:   1    -0.475140331493E+03    0.22639E-02   -0.59323E+01  1376   0.203E+01    0.147E+00
DAV:   2    -0.475213195856E+03   -0.72864E-01   -0.97472E-01  1668   0.254E+00    0.927E-01
DAV:   3    -0.475207780813E+03    0.54150E-02   -0.35566E-02  1680   0.571E-01    0.573E-01
DAV:   4    -0.475206830533E+03    0.95028E-03   -0.92929E-03  1568   0.303E-01    0.241E-01
DAV:   5    -0.475207123194E+03   -0.29266E-03   -0.18034E-03  1672   0.148E-01    0.759E-02
DAV:   6    -0.475207181477E+03   -0.58283E-04   -0.30548E-04  1512   0.528E-02    0.444E-02
DAV:   7    -0.475207206453E+03   -0.24976E-04   -0.45472E-05  1248   0.237E-02    0.192E-02
DAV:   8    -0.475207234095E+03   -0.27642E-04   -0.17337E-05   928   0.126E-02    0.601E-03
DAV:   9    -0.475207251402E+03   -0.17307E-04   -0.36688E-06   968   0.686E-03    0.339E-03
DAV:  10    -0.475207275680E+03   -0.24278E-04   -0.27414E-06   896   0.603E-03    0.130E-03
DAV:  11    -0.475207290200E+03   -0.14520E-04   -0.18430E-06   968   0.354E-03    0.131E-03
DAV:  12    -0.475207302095E+03   -0.11895E-04   -0.10068E-06   928   0.213E-03    0.608E-04
DAV:  13    -0.475207310236E+03   -0.81410E-05   -0.84396E-07   920   0.176E-03
  35 F= -.47520731E+03 E0= -.47520731E+03  d E =-.245220E+00
 curvature:  -6.29 expect dE=-0.954E+00 dE for cont linesearch -0.172E-04
 trial: gam= 0.94985 g(F)=  0.146E+00 g(S)=  0.595E-02 ort =-0.133E-02 (trialstep = 0.160E+01)
 search vector abs. value=  0.735E+00
 bond charge predicted
       N       E                     dE             d eps       ncg     rms          rms(c)
DAV:   1    -0.475303753091E+03   -0.96451E-01   -0.69563E+01  1376   0.221E+01    0.161E+00
DAV:   2    -0.475391893021E+03   -0.88140E-01   -0.11876E+00  1712   0.277E+00    0.101E+00
DAV:   3    -0.475384007923E+03    0.78851E-02   -0.41520E-02  1668   0.602E-01    0.621E-01
DAV:   4    -0.475382624078E+03    0.13838E-02   -0.11487E-02  1608   0.325E-01    0.245E-01
DAV:   5    -0.475383015184E+03   -0.39111E-03   -0.21809E-03  1720   0.148E-01    0.790E-02
DAV:   6    -0.475383059076E+03   -0.43892E-04   -0.32075E-04  1528   0.520E-02    0.494E-02
DAV:   7    -0.475383080148E+03   -0.21072E-04   -0.61198E-05  1480   0.246E-02    0.144E-02
DAV:   8    -0.475383101462E+03   -0.21314E-04   -0.11263E-05   936   0.112E-02    0.562E-03
DAV:   9    -0.475383120419E+03   -0.18957E-04   -0.36478E-06   912   0.636E-03    0.310E-03
DAV:  10    -0.475383142432E+03   -0.22013E-04   -0.19988E-06   896   0.416E-03    0.139E-03
DAV:  11    -0.475383160649E+03   -0.18217E-04   -0.18521E-06   936   0.319E-03    0.119E-03
DAV:  12    -0.475383173718E+03   -0.13069E-04   -0.12293E-06   904   0.235E-03    0.100E-03
DAV:  13    -0.475383180771E+03   -0.70527E-05   -0.72464E-07   952   0.158E-03
  36 F= -.47538318E+03 E0= -.47538318E+03  d E =-.175871E+00
 trial-energy change:   -0.175871  1 .order   -0.175746   -0.240660   -0.110833
 step:   2.9671(harm=  2.9671)  dis= 0.06102  next Energy=  -475.430365 (dE=-0.223E+00)
 bond charge predicted
       N       E                     dE             d eps       ncg     rms          rms(c)
DAV:   1    -0.475372893508E+03    0.10280E-01   -0.50708E+01  1376   0.189E+01    0.136E+00
DAV:   2    -0.475436894824E+03   -0.64001E-01   -0.86462E-01  1688   0.237E+00    0.862E-01
DAV:   3    -0.475431242267E+03    0.56526E-02   -0.30619E-02  1668   0.517E-01    0.526E-01
DAV:   4    -0.475430329174E+03    0.91309E-03   -0.83827E-03  1608   0.279E-01    0.207E-01
DAV:   5    -0.475430615583E+03   -0.28641E-03   -0.15912E-03  1712   0.126E-01    0.672E-02
DAV:   6    -0.475430646062E+03   -0.30479E-04   -0.23038E-04  1516   0.440E-02    0.422E-02
DAV:   7    -0.475430661958E+03   -0.15896E-04   -0.44738E-05  1348   0.215E-02    0.120E-02
DAV:   8    -0.475430678825E+03   -0.16868E-04   -0.91490E-06   936   0.997E-03    0.486E-03
DAV:   9    -0.475430692579E+03   -0.13754E-04   -0.25944E-06   904   0.558E-03    0.289E-03
DAV:  10    -0.475430708032E+03   -0.15453E-04   -0.14596E-06   896   0.358E-03    0.149E-03
DAV:  11    -0.475430723308E+03   -0.15276E-04   -0.13967E-06   936   0.294E-03    0.110E-03
DAV:  12    -0.475430735506E+03   -0.12198E-04   -0.11035E-06   912   0.220E-03    0.941E-04
DAV:  13    -0.475430743258E+03   -0.77526E-05   -0.74426E-07   936   0.160E-03
  37 F= -.47543074E+03 E0= -.47543074E+03  d E =-.223433E+00
 curvature:  -7.25 expect dE=-0.757E+00 dE for cont linesearch -0.871E-07
 trial: gam= 0.66761 g(F)=  0.101E+00 g(S)=  0.310E-02 ort = 0.940E-04 (trialstep = 0.187E+01)
 search vector abs. value=  0.432E+00
 bond charge predicted
       N       E                     dE             d eps       ncg     rms          rms(c)
DAV:   1    -0.475493182398E+03   -0.62447E-01   -0.54754E+01  1376   0.197E+01    0.149E+00
DAV:   2    -0.475565181475E+03   -0.71999E-01   -0.98461E-01  1656   0.255E+00    0.943E-01
DAV:   3    -0.475558512952E+03    0.66685E-02   -0.36513E-02  1672   0.563E-01    0.601E-01
DAV:   4    -0.475556997433E+03    0.15155E-02   -0.94046E-03  1576   0.307E-01    0.242E-01
DAV:   5    -0.475557311203E+03   -0.31377E-03   -0.21351E-03  1672   0.143E-01    0.836E-02
DAV:   6    -0.475557372977E+03   -0.61774E-04   -0.29882E-04  1488   0.539E-02    0.466E-02
DAV:   7    -0.475557395213E+03   -0.22236E-04   -0.52412E-05  1296   0.253E-02    0.178E-02
DAV:   8    -0.475557421983E+03   -0.26771E-04   -0.17585E-05   928   0.150E-02    0.700E-03
DAV:   9    -0.475557439794E+03   -0.17811E-04   -0.46866E-06   944   0.667E-03    0.441E-03
DAV:  10    -0.475557468227E+03   -0.28433E-04   -0.38597E-06   900   0.652E-03    0.184E-03
DAV:  11    -0.475557484253E+03   -0.16026E-04   -0.28076E-06   944   0.373E-03    0.169E-03
DAV:  12    -0.475557498618E+03   -0.14365E-04   -0.16318E-06   900   0.321E-03    0.118E-03
DAV:  13    -0.475557508624E+03   -0.10006E-04   -0.13801E-06   948   0.206E-03    0.807E-04
DAV:  14    -0.475557513602E+03   -0.49780E-05   -0.59568E-07   920   0.147E-03
  38 F= -.47555751E+03 E0= -.47555751E+03  d E =-.126770E+00
 trial-energy change:   -0.126770  1 .order   -0.126851   -0.195810   -0.057892
 step:   2.6605(harm=  2.6605)  dis= 0.04846  next Energy=  -475.569745 (dE=-0.139E+00)
 bond charge predicted
       N       E                     dE             d eps       ncg     rms          rms(c)
DAV:   1    -0.475558574169E+03   -0.10655E-02   -0.96484E+00  1376   0.828E+00    0.610E-01
DAV:   2    -0.475570999551E+03   -0.12425E-01   -0.17148E-01  1636   0.106E+00    0.390E-01
DAV:   3    -0.475569812058E+03    0.11875E-02   -0.64212E-03  1648   0.237E-01    0.241E-01
DAV:   4    -0.475569645100E+03    0.16696E-03   -0.16794E-03  1568   0.129E-01    0.933E-02
DAV:   5    -0.475569704196E+03   -0.59096E-04   -0.35236E-04  1664   0.581E-02    0.337E-02
DAV:   6    -0.475569713843E+03   -0.96470E-05   -0.47269E-05  1248   0.219E-02
  39 F= -.47556971E+03 E0= -.47556971E+03  d E =-.138971E+00
 curvature:  -5.50 expect dE=-0.544E+00 dE for cont linesearch -0.125E-07
 trial: gam= 0.94180 g(F)=  0.888E-01 g(S)=  0.102E-01 ort =-0.314E-04 (trialstep = 0.182E+01)
 search vector abs. value=  0.482E+00
 bond charge predicted
       N       E                     dE             d eps       ncg     rms          rms(c)
DAV:   1    -0.475628209747E+03   -0.58506E-01   -0.57560E+01  1376   0.201E+01    0.150E+00
DAV:   2    -0.475702086764E+03   -0.73877E-01   -0.10100E+00  1608   0.255E+00    0.903E-01
DAV:   3    -0.475695880396E+03    0.62064E-02   -0.35390E-02  1688   0.561E-01    0.553E-01
DAV:   4    -0.475694745263E+03    0.11351E-02   -0.95054E-03  1560   0.305E-01    0.224E-01
DAV:   5    -0.475695077897E+03   -0.33263E-03   -0.17536E-03  1616   0.146E-01    0.824E-02
DAV:   6    -0.475695166827E+03   -0.88930E-04   -0.29351E-04  1500   0.518E-02    0.431E-02
DAV:   7    -0.475695202028E+03   -0.35202E-04   -0.47176E-05  1232   0.261E-02    0.173E-02
DAV:   8    -0.475695239199E+03   -0.37170E-04   -0.16933E-05   976   0.134E-02    0.611E-03
DAV:   9    -0.475695269801E+03   -0.30602E-04   -0.57710E-06   920   0.759E-03    0.368E-03
DAV:  10    -0.475695315664E+03   -0.45862E-04   -0.67226E-06   944   0.806E-03    0.182E-03
DAV:  11    -0.475695335711E+03   -0.20047E-04   -0.40357E-06   984   0.460E-03    0.187E-03
DAV:  12    -0.475695352120E+03   -0.16410E-04   -0.19828E-06   896   0.323E-03    0.970E-04
DAV:  13    -0.475695362591E+03   -0.10471E-04   -0.15048E-06   928   0.194E-03    0.649E-04
DAV:  14    -0.475695367388E+03   -0.47967E-05   -0.59409E-07   968   0.131E-03
  40 F= -.47569537E+03 E0= -.47569537E+03  d E =-.125654E+00
 trial-energy change:   -0.125654  1 .order   -0.125522   -0.180110   -0.070934
 step:   3.0028(harm=  3.0028)  dis= 0.06325  next Energy=  -475.718279 (dE=-0.149E+00)
 bond charge predicted
       N       E                     dE             d eps       ncg     rms          rms(c)
DAV:   1    -0.475690235172E+03    0.51274E-02   -0.24295E+01  1376   0.131E+01    0.951E-01
DAV:   2    -0.475720999342E+03   -0.30764E-01   -0.42197E-01  1620   0.165E+00    0.585E-01
DAV:   3    -0.475718367092E+03    0.26323E-02   -0.14636E-02  1692   0.363E-01    0.352E-01
DAV:   4    -0.475718040500E+03    0.32659E-03   -0.40976E-03  1576   0.200E-01    0.140E-01
DAV:   5    -0.475718180612E+03   -0.14011E-03   -0.72293E-04  1624   0.941E-02    0.531E-02
DAV:   6    -0.475718210849E+03   -0.30237E-04   -0.11818E-04  1512   0.326E-02    0.280E-02
DAV:   7    -0.475718222643E+03   -0.11795E-04   -0.19144E-05   992   0.169E-02    0.111E-02
DAV:   8    -0.475718236134E+03   -0.13490E-04   -0.84935E-06   928   0.907E-03    0.406E-03
DAV:   9    -0.475718247339E+03   -0.11205E-04   -0.24560E-06   908   0.510E-03    0.237E-03
DAV:  10    -0.475718264209E+03   -0.16870E-04   -0.25909E-06   924   0.491E-03    0.121E-03
DAV:  11    -0.475718272680E+03   -0.84715E-05   -0.14313E-06   952   0.290E-03
  41 F= -.47571827E+03 E0= -.47571827E+03  d E =-.148559E+00
 curvature:  -7.32 expect dE=-0.616E+00 dE for cont linesearch -0.818E-06
 trial: gam= 0.83480 g(F)=  0.801E-01 g(S)=  0.405E-02 ort =-0.232E-03 (trialstep = 0.206E+01)
 search vector abs. value=  0.420E+00
 bond charge predicted
       N       E                     dE             d eps       ncg     rms          rms(c)
DAV:   1    -0.475760129305E+03   -0.41865E-01   -0.63691E+01  1376   0.212E+01    0.178E+00
DAV:   2    -0.475836223679E+03   -0.76094E-01   -0.11568E+00  1596   0.278E+00    0.973E-01
DAV:   3    -0.475829131131E+03    0.70925E-02   -0.43708E-02  1696   0.634E-01    0.594E-01
DAV:   4    -0.475827845479E+03    0.12857E-02   -0.11058E-02  1560   0.336E-01    0.257E-01
DAV:   5    -0.475828183023E+03   -0.33754E-03   -0.19706E-03  1600   0.153E-01    0.881E-02
DAV:   6    -0.475828300947E+03   -0.11792E-03   -0.33128E-04  1524   0.528E-02    0.423E-02
DAV:   7    -0.475828346137E+03   -0.45190E-04   -0.55744E-05  1352   0.253E-02    0.173E-02
DAV:   8    -0.475828377647E+03   -0.31510E-04   -0.12989E-05   920   0.108E-02    0.597E-03
DAV:   9    -0.475828403624E+03   -0.25977E-04   -0.41489E-06   936   0.520E-03    0.307E-03
DAV:  10    -0.475828436380E+03   -0.32756E-04   -0.37526E-06   920   0.397E-03    0.142E-03
DAV:  11    -0.475828454748E+03   -0.18368E-04   -0.19616E-06   952   0.248E-03    0.108E-03
DAV:  12    -0.475828472518E+03   -0.17770E-04   -0.20321E-06   920   0.230E-03    0.615E-04
DAV:  13    -0.475828479954E+03   -0.74355E-05   -0.93582E-07   944   0.145E-03
  42 F= -.47582848E+03 E0= -.47582848E+03  d E =-.110207E+00
 trial-energy change:   -0.110207  1 .order   -0.110242   -0.172678   -0.047806
 step:   2.8441(harm=  2.8441)  dis= 0.05952  next Energy=  -475.837665 (dE=-0.119E+00)
 bond charge predicted
       N       E                     dE             d eps       ncg     rms          rms(c)
DAV:   1    -0.475827791713E+03    0.68081E-03   -0.93490E+00  1376   0.810E+00    0.642E-01
DAV:   2    -0.475838542769E+03   -0.10751E-01   -0.16537E-01  1588   0.105E+00    0.375E-01
DAV:   3    -0.475837509594E+03    0.10332E-02   -0.63404E-03  1712   0.244E-01    0.222E-01
DAV:   4    -0.475837414571E+03    0.95023E-04   -0.17330E-03  1536   0.133E-01    0.906E-02
DAV:   5    -0.475837472296E+03   -0.57725E-04   -0.29386E-04  1576   0.592E-02    0.336E-02
DAV:   6    -0.475837488246E+03   -0.15950E-04   -0.47872E-05  1304   0.199E-02    0.166E-02
DAV:   7    -0.475837493101E+03   -0.48554E-05   -0.88527E-06   872   0.104E-02
  43 F= -.47583749E+03 E0= -.47583749E+03  d E =-.119220E+00
 curvature:  -7.11 expect dE=-0.564E+00 dE for cont linesearch -0.234E-05
 trial: gam= 0.94715 g(F)=  0.753E-01 g(S)=  0.399E-02 ort =-0.372E-03 (trialstep = 0.204E+01)
 search vector abs. value=  0.455E+00
 bond charge predicted
       N       E                     dE             d eps       ncg     rms          rms(c)
DAV:   1    -0.475860361481E+03   -0.22873E-01   -0.68944E+01  1408   0.220E+01    0.177E+00
DAV:   2    -0.475951759482E+03   -0.91398E-01   -0.12481E+00  1592   0.284E+00    0.101E+00
DAV:   3    -0.475943487987E+03    0.82715E-02   -0.43075E-02  1680   0.604E-01    0.657E-01
DAV:   4    -0.475941899777E+03    0.15882E-02   -0.10897E-02  1608   0.315E-01    0.285E-01
DAV:   5    -0.475942407091E+03   -0.50731E-03   -0.20791E-03  1728   0.159E-01    0.888E-02
DAV:   6    -0.475942547498E+03   -0.14041E-03   -0.43035E-04  1504   0.618E-02    0.461E-02
DAV:   7    -0.475942605559E+03   -0.58062E-04   -0.47085E-05  1276   0.260E-02    0.185E-02
DAV:   8    -0.475942653281E+03   -0.47721E-04   -0.15134E-05   980   0.130E-02    0.648E-03
DAV:   9    -0.475942689960E+03   -0.36679E-04   -0.63721E-06   960   0.772E-03    0.411E-03
DAV:  10    -0.475942734815E+03   -0.44855E-04   -0.47052E-06   900   0.646E-03    0.174E-03
DAV:  11    -0.475942761917E+03   -0.27102E-04   -0.38779E-06   976   0.457E-03    0.177E-03
DAV:  12    -0.475942782118E+03   -0.20202E-04   -0.25236E-06   948   0.318E-03    0.690E-04
DAV:  13    -0.475942791493E+03   -0.93747E-05   -0.14442E-06   952   0.204E-03
  44 F= -.47594279E+03 E0= -.47594279E+03  d E =-.105298E+00
 trial-energy change:   -0.105298  1 .order   -0.105170   -0.161184   -0.049156
 step:   2.9381(harm=  2.9381)  dis= 0.06691  next Energy=  -475.953447 (dE=-0.116E+00)
 bond charge predicted
       N       E                     dE             d eps       ncg     rms          rms(c)
DAV:   1    -0.475938161308E+03    0.46208E-02   -0.13285E+01  1392   0.966E+00    0.719E-01
DAV:   2    -0.475954923807E+03   -0.16762E-01   -0.23206E-01  1576   0.123E+00    0.434E-01
DAV:   3    -0.475953413172E+03    0.15106E-02   -0.83534E-03  1668   0.268E-01    0.267E-01
DAV:   4    -0.475953280192E+03    0.13298E-03   -0.22007E-03  1584   0.143E-01    0.112E-01
DAV:   5    -0.475953388333E+03   -0.10814E-03   -0.39338E-04  1720   0.713E-02    0.374E-02
DAV:   6    -0.475953412516E+03   -0.24183E-04   -0.73278E-05  1428   0.259E-02    0.201E-02
DAV:   7    -0.475953425119E+03   -0.12603E-04   -0.83588E-06   900   0.112E-02    0.788E-03
DAV:   8    -0.475953436438E+03   -0.11319E-04   -0.40840E-06   932   0.619E-03    0.272E-03
DAV:   9    -0.475953444966E+03   -0.85278E-05   -0.13151E-06   920   0.363E-03
  45 F= -.47595344E+03 E0= -.47595344E+03  d E =-.115952E+00
 curvature:  -8.47 expect dE=-0.697E+00 dE for cont linesearch -0.176E-05
 trial: gam= 1.01503 g(F)=  0.817E-01 g(S)=  0.587E-03 ort =-0.308E-03 (trialstep = 0.184E+01)
 search vector abs. value=  0.551E+00
 bond charge predicted
       N       E                     dE             d eps       ncg     rms          rms(c)
DAV:   1    -0.475978313632E+03   -0.24877E-01   -0.67954E+01  1424   0.218E+01    0.167E+00
DAV:   2    -0.476067133927E+03   -0.88820E-01   -0.11775E+00  1568   0.274E+00    0.979E-01
DAV:   3    -0.476059657106E+03    0.74768E-02   -0.40766E-02  1712   0.569E-01    0.650E-01
DAV:   4    -0.476058168973E+03    0.14881E-02   -0.92196E-03  1576   0.296E-01    0.271E-01
[...]
 search vector abs. value=  0.607E-02
 bond charge predicted
       N       E                     dE             d eps       ncg     rms          rms(c)
DAV:   1    -0.480475712085E+03   -0.92970E-03   -0.52429E-01  1440   0.192E+00    0.144E-01
DAV:   2    -0.480476350464E+03   -0.63838E-03   -0.88737E-03  1504   0.249E-01    0.863E-02
DAV:   3    -0.480476317733E+03    0.32731E-04   -0.36756E-04  1632   0.589E-02    0.534E-02
DAV:   4    -0.480476324553E+03   -0.68200E-05   -0.87311E-05  1528   0.297E-02
 407 F= -.48047632E+03 E0= -.48047632E+03  d E =-.153451E-02
 trial-energy change:   -0.001535  1 .order   -0.001440   -0.001930   -0.000949
 step:   2.3775(harm=  3.0888)  dis= 0.00541  next Energy=  -480.476582 (dE=-0.179E-02)
 bond charge predicted
       N       E                     dE             d eps       ncg     rms          rms(c)
DAV:   1    -0.480476567294E+03   -0.24956E-03   -0.13869E-01  1440   0.986E-01    0.776E-02
DAV:   2    -0.480476731165E+03   -0.16387E-03   -0.23224E-03  1536   0.128E-01    0.460E-02
DAV:   3    -0.480476723920E+03    0.72444E-05   -0.10050E-04  1616   0.310E-02    0.280E-02
DAV:   4    -0.480476727177E+03   -0.32573E-05   -0.21717E-05   912   0.156E-02
 408 F= -.48047673E+03 E0= -.48047673E+03  d E =-.193713E-02
 curvature:  -5.95 expect dE=-0.325E-02 dE for cont linesearch -0.941E-04
 ZBRENT: increasing intervall
 opt :   3.9933  next Energy=  -480.476751 (dE=-0.196E-02)
 bond charge predicted
       N       E                     dE             d eps       ncg     rms          rms(c)
DAV:   1    -0.480476059298E+03    0.66462E-03   -0.55504E-01  1440   0.197E+00    0.148E-01
DAV:   2    -0.480476734813E+03   -0.67551E-03   -0.94140E-03  1544   0.257E-01    0.882E-02
DAV:   3    -0.480476698693E+03    0.36120E-04   -0.38964E-04  1632   0.604E-02    0.544E-02
DAV:   4    -0.480476703961E+03   -0.52679E-05   -0.91185E-05  1520   0.304E-02
 409 F= -.48047670E+03 E0= -.48047670E+03  d E =-.191392E-02
 curvature:  -1.50 expect dE=-0.261E-02 dE for cont linesearch -0.364E-04
 ZBRENT: bracketing found
 ZBRENT: interpolating
 opt :   3.0996  next Energy=  -480.476839 (dE=-0.205E-02)
 bond charge predicted
       N       E                     dE             d eps       ncg     rms          rms(c)
DAV:   1    -0.480476647121E+03    0.51572E-04   -0.17015E-01  1440   0.109E+00    0.759E-02
DAV:   2    -0.480476870821E+03   -0.22370E-03   -0.29495E-03  1512   0.143E-01    0.469E-02
DAV:   3    -0.480476857397E+03    0.13424E-04   -0.11381E-04  1640   0.323E-02    0.298E-02
DAV:   4    -0.480476857327E+03    0.70027E-07   -0.24299E-05  1008   0.165E-02
 410 F= -.48047686E+03 E0= -.48047686E+03  d E =-.206728E-02
 curvature:  -4.62 expect dE=-0.432E-02 dE for cont linesearch -0.125E-05
 trial: gam= 0.92573 g(F)=  0.906E-03 g(S)=  0.291E-04 ort = 0.405E-04 (trialstep = 0.183E+01)
 search vector abs. value=  0.621E-02
 bond charge predicted
       N       E                     dE             d eps       ncg     rms          rms(c)
DAV:   1    -0.480477228983E+03   -0.37159E-03   -0.75762E-01  1440   0.230E+00    0.147E-01
DAV:   2    -0.480478182707E+03   -0.95372E-03   -0.12232E-02  1492   0.286E-01    0.945E-02
DAV:   3    -0.480478131455E+03    0.51252E-04   -0.39755E-04  1688   0.604E-02    0.584E-02
DAV:   4    -0.480478137926E+03   -0.64706E-05   -0.11146E-04  1504   0.338E-02    0.221E-02
DAV:   5    -0.480478144923E+03   -0.69966E-05   -0.20420E-05  1024   0.153E-02
 411 F= -.48047814E+03 E0= -.48047814E+03  d E =-.128760E-02
 trial-energy change:   -0.001288  1 .order   -0.001286   -0.001783   -0.000788
 step:   3.2857(harm=  3.2857)  dis= 0.00682  next Energy=  -480.478455 (dE=-0.160E-02)
 bond charge predicted
       N       E                     dE             d eps       ncg     rms          rms(c)
DAV:   1    -0.480477925486E+03    0.21244E-03   -0.47596E-01  1440   0.182E+00    0.119E-01
DAV:   2    -0.480478523959E+03   -0.59847E-03   -0.76448E-03  1504   0.226E-01    0.751E-02
DAV:   3    -0.480478495972E+03    0.27987E-04   -0.24855E-04  1688   0.480E-02    0.462E-02
DAV:   4    -0.480478503614E+03   -0.76421E-05   -0.69400E-05  1544   0.267E-02
 412 F= -.48047850E+03 E0= -.48047850E+03  d E =-.164629E-02
 curvature: -10.49 expect dE=-0.117E-01 dE for cont linesearch -0.185E-05
 trial: gam= 1.09693 g(F)=  0.107E-02 g(S)=  0.416E-04 ort =-0.331E-04 (trialstep = 0.155E+01)
 search vector abs. value=  0.852E-02
 bond charge predicted
       N       E                     dE             d eps       ncg     rms          rms(c)
DAV:   1    -0.480479030107E+03   -0.53413E-03   -0.74105E-01  1440   0.227E+00    0.154E-01
DAV:   2    -0.480479932031E+03   -0.90192E-03   -0.11999E-02  1484   0.287E-01    0.972E-02
DAV:   3    -0.480479894706E+03    0.37325E-04   -0.45109E-04  1656   0.633E-02    0.601E-02
DAV:   4    -0.480479904146E+03   -0.94398E-05   -0.10353E-04  1532   0.315E-02    0.264E-02
DAV:   5    -0.480479912455E+03   -0.83092E-05   -0.17893E-05   944   0.150E-02
 413 F= -.48047991E+03 E0= -.48047991E+03  d E =-.140884E-02
 trial-energy change:   -0.001409  1 .order   -0.001312   -0.001669   -0.000954
 step:   2.4511(harm=  3.6179)  dis= 0.00596  next Energy=  -480.480210 (dE=-0.171E-02)
 bond charge predicted
       N       E                     dE             d eps       ncg     rms          rms(c)
DAV:   1    -0.480480043881E+03   -0.13974E-03   -0.25129E-01  1440   0.132E+00    0.894E-02
DAV:   2    -0.480480354857E+03   -0.31098E-03   -0.40957E-03  1492   0.167E-01    0.557E-02
DAV:   3    -0.480480343424E+03    0.11433E-04   -0.15171E-04  1664   0.367E-02    0.345E-02
DAV:   4    -0.480480346619E+03   -0.31952E-05   -0.32805E-05  1212   0.181E-02
 414 F= -.48048035E+03 E0= -.48048035E+03  d E =-.184301E-02
 curvature:  -9.75 expect dE=-0.748E-02 dE for cont linesearch -0.907E-04
 ZBRENT: increasing intervall
 opt :   4.2554  next Energy=  -480.480251 (dE=-0.175E-02)
 bond charge predicted
       N       E                     dE             d eps       ncg     rms          rms(c)
DAV:   1    -0.480479181402E+03    0.11620E-02   -0.10042E+00  1440   0.264E+00    0.179E-01
DAV:   2    -0.480480402104E+03   -0.12207E-02   -0.16288E-02  1476   0.335E-01    0.113E-01
DAV:   3    -0.480480349620E+03    0.52484E-04   -0.61470E-04  1664   0.738E-02    0.698E-02
DAV:   4    -0.480480358688E+03   -0.90672E-05   -0.13943E-04  1552   0.366E-02    0.308E-02
DAV:   5    -0.480480369322E+03   -0.10635E-04   -0.24805E-05  1104   0.178E-02    0.897E-03
DAV:   6    -0.480480371124E+03   -0.18014E-05   -0.61903E-06   888   0.751E-03
 415 F= -.48048037E+03 E0= -.48048037E+03  d E =-.186751E-02
 curvature:  10.33 expect dE= 0.239E-01 dE for cont linesearch  0.117E-03
 ZBRENT: bracketing found
 ZBRENT: interpolating
 opt :   3.3079  next Energy=  -480.480467 (dE=-0.196E-02)
 bond charge predicted
       N       E                     dE             d eps       ncg     rms          rms(c)
DAV:   1    -0.480480173657E+03    0.19567E-03   -0.27659E-01  1440   0.138E+00    0.919E-02
DAV:   2    -0.480480510952E+03   -0.33729E-03   -0.44794E-03  1492   0.176E-01    0.590E-02
DAV:   3    -0.480480496135E+03    0.14817E-04   -0.16862E-04  1664   0.385E-02    0.363E-02
DAV:   4    -0.480480499578E+03   -0.34432E-05   -0.37313E-05  1288   0.192E-02
 416 F= -.48048050E+03 E0= -.48048050E+03  d E =-.199596E-02
 curvature: -10.60 expect dE=-0.143E-01 dE for cont linesearch -0.764E-05
 trial: gam= 1.27513 g(F)=  0.132E-02 g(S)=  0.200E-04 ort = 0.783E-04 (trialstep = 0.105E+01)
 search vector abs. value=  0.154E-01
 bond charge predicted
       N       E                     dE             d eps       ncg     rms          rms(c)
DAV:   1    -0.480480972774E+03   -0.47664E-03   -0.62162E-01  1440   0.207E+00    0.133E-01
DAV:   2    -0.480481750019E+03   -0.77725E-03   -0.99258E-03  1440   0.259E-01    0.854E-02
DAV:   3    -0.480481710408E+03    0.39611E-04   -0.32963E-04  1704   0.537E-02    0.528E-02
DAV:   4    -0.480481715539E+03   -0.51309E-05   -0.82991E-05  1528   0.281E-02
 417 F= -.48048172E+03 E0= -.48048172E+03  d E =-.121596E-02
 trial-energy change:   -0.001216  1 .order   -0.001185   -0.001519   -0.000851
 step:   2.3915(harm=  2.3915)  dis= 0.00725  next Energy=  -480.482227 (dE=-0.173E-02)
 bond charge predicted
       N       E                     dE             d eps       ncg     rms          rms(c)
DAV:   1    -0.480481417719E+03    0.29269E-03   -0.10085E+00  1440   0.264E+00    0.175E-01
DAV:   2    -0.480482654103E+03   -0.12364E-02   -0.15842E-02  1432   0.327E-01    0.110E-01
DAV:   3    -0.480482594172E+03    0.59930E-04   -0.52726E-04  1620   0.687E-02    0.673E-02
DAV:   4    -0.480482610892E+03   -0.16719E-04   -0.13835E-04  1584   0.358E-02    0.264E-02
DAV:   5    -0.480482621341E+03   -0.10450E-04   -0.22226E-05  1056   0.160E-02    0.834E-03
DAV:   6    -0.480482625748E+03   -0.44065E-05   -0.52621E-06   888   0.642E-03
 418 F= -.48048263E+03 E0= -.48048263E+03  d E =-.212617E-02
 curvature: -12.74 expect dE=-0.117E-01 dE for cont linesearch -0.115E-03
 ZBRENT: increasing intervall
 opt :   5.0711  next Energy=  -480.482452 (dE=-0.195E-02)
 bond charge predicted
       N       E                     dE             d eps       ncg     rms          rms(c)
DAV:   1    -0.480477303420E+03    0.53179E-02   -0.40345E+00  1440   0.528E+00    0.346E-01
DAV:   2    -0.480482363432E+03   -0.50600E-02   -0.64221E-02  1436   0.659E-01    0.219E-01
DAV:   3    -0.480482108722E+03    0.25471E-03   -0.21178E-03  1632   0.137E-01    0.135E-01
DAV:   4    -0.480482141150E+03   -0.32428E-04   -0.54360E-04  1560   0.715E-02    0.536E-02
DAV:   5    -0.480482182284E+03   -0.41134E-04   -0.10343E-04  1680   0.324E-02    0.172E-02
DAV:   6    -0.480482189998E+03   -0.77135E-05   -0.14843E-05   964   0.117E-02
 419 F= -.48048219E+03 E0= -.48048219E+03  d E =-.169042E-02
 curvature:  19.25 expect dE= 0.737E-01 dE for cont linesearch  0.701E-03
 ZBRENT: bracketing found
 ZBRENT: interpolating
 opt :   3.2814  next Energy=  -480.482791 (dE=-0.229E-02)
 bond charge predicted
       N       E                     dE             d eps       ncg     rms          rms(c)
DAV:   1    -0.480480663046E+03    0.15192E-02   -0.17965E+00  1440   0.352E+00    0.228E-01
DAV:   2    -0.480482884637E+03   -0.22216E-02   -0.28326E-02  1460   0.438E-01    0.146E-01
DAV:   3    -0.480482774941E+03    0.10970E-03   -0.95137E-04  1664   0.916E-02    0.890E-02
DAV:   4    -0.480482794406E+03   -0.19465E-04   -0.24249E-04  1528   0.479E-02    0.347E-02
DAV:   5    -0.480482814137E+03   -0.19731E-04   -0.44116E-05  1312   0.217E-02    0.113E-02
DAV:   6    -0.480482816660E+03   -0.25233E-05   -0.77813E-06   904   0.825E-03
 420 F= -.48048282E+03 E0= -.48048282E+03  d E =-.231708E-02
 curvature:  -4.55 expect dE=-0.681E-02 dE for cont linesearch -0.103E-05
 trial: gam= 1.05329 g(F)=  0.140E-02 g(S)=  0.916E-04 ort = 0.591E-04 (trialstep = 0.123E+01)
 search vector abs. value=  0.187E-01
 bond charge predicted
       N       E                     dE             d eps       ncg     rms          rms(c)
DAV:   1    -0.480483098460E+03   -0.28432E-03   -0.10421E+00  1440   0.268E+00    0.173E-01
DAV:   2    -0.480484340689E+03   -0.12422E-02   -0.16343E-02  1432   0.336E-01    0.111E-01
DAV:   3    -0.480484271603E+03    0.69086E-04   -0.59143E-04  1680   0.720E-02    0.664E-02
DAV:   4    -0.480484278704E+03   -0.71010E-05   -0.14246E-04  1576   0.397E-02    0.258E-02
DAV:   5    -0.480484287720E+03   -0.90162E-05   -0.28678E-05  1120   0.184E-02
 421 F= -.48048429E+03 E0= -.48048429E+03  d E =-.147106E-02
 trial-energy change:   -0.001471  1 .order   -0.001479   -0.001922   -0.001036
 step:   2.6753(harm=  2.6753)  dis= 0.00941  next Energy=  -480.484902 (dE=-0.208E-02)
 bond charge predicted
       N       E                     dE             d eps       ncg     rms          rms(c)
DAV:   1    -0.480483351495E+03    0.92721E-03   -0.14281E+00  1440   0.313E+00    0.205E-01
DAV:   2    -0.480485079131E+03   -0.17276E-02   -0.22480E-02  1452   0.393E-01    0.130E-01
DAV:   3    -0.480484991471E+03    0.87660E-04   -0.80521E-04  1676   0.842E-02    0.780E-02
DAV:   4    -0.480485001987E+03   -0.10516E-04   -0.19336E-04  1576   0.464E-02    0.304E-02
DAV:   5    -0.480485014375E+03   -0.12388E-04   -0.40204E-05  1240   0.215E-02    0.106E-02
DAV:   6    -0.480485019875E+03   -0.54995E-05   -0.70394E-06   892   0.829E-03
 422 F= -.48048502E+03 E0= -.48048502E+03  d E =-.220321E-02
 curvature: -16.05 expect dE=-0.192E-01 dE for cont linesearch -0.990E-05
 trial: gam= 0.72064 g(F)=  0.119E-02 g(S)=  0.369E-05 ort = 0.107E-03 (trialstep = 0.152E+01)
 search vector abs. value=  0.111E-01
 bond charge predicted
       N       E                     dE             d eps       ncg     rms          rms(c)
DAV:   1    -0.480485373829E+03   -0.35945E-03   -0.93257E-01  1440   0.254E+00    0.171E-01
DAV:   2    -0.480486505294E+03   -0.11315E-02   -0.15040E-02  1452   0.324E-01    0.109E-01
DAV:   3    -0.480486438989E+03    0.66305E-04   -0.57962E-04  1636   0.711E-02    0.648E-02
DAV:   4    -0.480486444762E+03   -0.57731E-05   -0.13608E-04  1552   0.381E-02    0.265E-02
DAV:   5    -0.480486453766E+03   -0.90040E-05   -0.25879E-05  1080   0.174E-02
 423 F= -.48048645E+03 E0= -.48048645E+03  d E =-.143389E-02
 trial-energy change:   -0.001434  1 .order   -0.001397   -0.001933   -0.000860
 step:   2.7402(harm=  2.7402)  dis= 0.00811  next Energy=  -480.486761 (dE=-0.174E-02)
 bond charge predicted
       N       E                     dE             d eps       ncg     rms          rms(c)
DAV:   1    -0.480486129831E+03    0.31493E-03   -0.59787E-01  1440   0.203E+00    0.138E-01
DAV:   2    -0.480486858827E+03   -0.72900E-03   -0.96173E-03  1472   0.259E-01    0.866E-02
DAV:   3    -0.480486818018E+03    0.40808E-04   -0.36824E-04  1640   0.568E-02    0.517E-02
DAV:   4    -0.480486822652E+03   -0.46340E-05   -0.85923E-05  1568   0.301E-02
 424 F= -.48048682E+03 E0= -.48048682E+03  d E =-.180278E-02
 curvature: -11.92 expect dE=-0.103E-01 dE for cont linesearch -0.617E-05
 trial: gam= 0.84231 g(F)=  0.833E-03 g(S)=  0.306E-04 ort =-0.757E-04 (trialstep = 0.177E+01)
 search vector abs. value=  0.858E-02
 bond charge predicted
       N       E                     dE             d eps       ncg     rms          rms(c)
DAV:   1    -0.480486919304E+03   -0.10129E-03   -0.97437E-01  1440   0.259E+00    0.169E-01
DAV:   2    -0.480488102277E+03   -0.11830E-02   -0.15199E-02  1472   0.322E-01    0.109E-01
DAV:   3    -0.480488041361E+03    0.60915E-04   -0.54424E-04  1684   0.683E-02    0.650E-02
DAV:   4    -0.480488050431E+03   -0.90700E-05   -0.13037E-04  1552   0.363E-02    0.248E-02
DAV:   5    -0.480488061528E+03   -0.11097E-04   -0.24451E-05  1024   0.168E-02    0.824E-03
DAV:   6    -0.480488062982E+03   -0.14538E-05   -0.53738E-06   904   0.654E-03
 425 F= -.48048806E+03 E0= -.48048806E+03  d E =-.124033E-02
 trial-energy change:   -0.001240  1 .order   -0.001142   -0.001413   -0.000871
 step:   2.8029(harm=  4.6007)  dis= 0.00741  next Energy=  -480.488339 (dE=-0.152E-02)
 bond charge predicted
       N       E                     dE             d eps       ncg     rms          rms(c)
DAV:   1    -0.480488072487E+03   -0.10959E-04   -0.33719E-01  1440   0.152E+00    0.974E-02
DAV:   2    -0.480488489880E+03   -0.41739E-03   -0.53225E-03  1452   0.190E-01    0.634E-02
DAV:   3    -0.480488469199E+03    0.20681E-04   -0.18676E-04  1736   0.399E-02    0.380E-02
DAV:   4    -0.480488471553E+03   -0.23539E-05   -0.45092E-05  1504   0.214E-02
 426 F= -.48048847E+03 E0= -.48048847E+03  d E =-.164890E-02
 curvature: -14.75 expect dE=-0.980E-02 dE for cont linesearch -0.737E-04
 ZBRENT: increasing intervall
 opt :   4.8784  next Energy=  -480.488307 (dE=-0.148E-02)
 bond charge predicted
       N       E                     dE             d eps       ncg     rms          rms(c)
DAV:   1    -0.480486999288E+03    0.14699E-02   -0.13471E+00  1440   0.304E+00    0.197E-01
DAV:   2    -0.480488641778E+03   -0.16425E-02   -0.21066E-02  1424   0.379E-01    0.128E-01
DAV:   3    -0.480488555924E+03    0.85853E-04   -0.74979E-04  1696   0.801E-02    0.761E-02
DAV:   4    -0.480488563574E+03   -0.76496E-05   -0.17874E-04  1568   0.424E-02    0.291E-02
DAV:   5    -0.480488576910E+03   -0.13336E-04   -0.34431E-05  1108   0.196E-02    0.972E-03
DAV:   6    -0.480488578781E+03   -0.18709E-05   -0.69170E-06   888   0.759E-03
 427 F= -.48048858E+03 E0= -.48048858E+03  d E =-.175613E-02
 curvature:  32.90 expect dE= 0.559E-01 dE for cont linesearch  0.147E-03
 ZBRENT: bracketing found
 ZBRENT: interpolating
 opt :   3.8703  next Energy=  -480.488677 (dE=-0.185E-02)
 bond charge predicted
       N       E                     dE             d eps       ncg     rms          rms(c)
DAV:   1    -0.480488279242E+03    0.29767E-03   -0.31710E-01  1440   0.148E+00    0.939E-02
DAV:   2    -0.480488665384E+03   -0.38614E-03   -0.49523E-03  1452   0.184E-01    0.618E-02
DAV:   3    -0.480488644982E+03    0.20402E-04   -0.17680E-04  1720   0.388E-02    0.366E-02
DAV:   4    -0.480488647299E+03   -0.23167E-05   -0.41881E-05  1472   0.206E-02
 428 F= -.48048865E+03 E0= -.48048865E+03  d E =-.182465E-02
 curvature: -22.12 expect dE=-0.240E-01 dE for cont linesearch -0.346E-04
 trial: gam= 1.13440 g(F)=  0.108E-02 g(S)=  0.290E-05 ort = 0.116E-03 (trialstep = 0.151E+01)
 search vector abs. value=  0.124E-01
 bond charge predicted
       N       E                     dE             d eps       ncg     rms          rms(c)
DAV:   1    -0.480488768735E+03   -0.12375E-03   -0.10346E+00  1440   0.267E+00    0.169E-01
DAV:   2    -0.480490031100E+03   -0.12624E-02   -0.16355E-02  1440   0.334E-01    0.112E-01
DAV:   3    -0.480489958180E+03    0.72921E-04   -0.57492E-04  1672   0.694E-02    0.664E-02
DAV:   4    -0.480489957874E+03    0.30559E-06   -0.13788E-04  1568   0.371E-02    0.244E-02
DAV:   5    -0.480489965257E+03   -0.73830E-05   -0.26683E-05  1064   0.169E-02
 429 F= -.48048997E+03 E0= -.48048996E+03  d E =-.131796E-02
 trial-energy change:   -0.001318  1 .order   -0.001356   -0.001842   -0.000870
 step:   2.8702(harm=  2.8702)  dis= 0.00908  next Energy=  -480.490393 (dE=-0.175E-02)
 bond charge predicted
       N       E                     dE             d eps       ncg     rms          rms(c)
DAV:   1    -0.480489503255E+03    0.45462E-03   -0.83056E-01  1440   0.239E+00    0.154E-01
DAV:   2    -0.480490519543E+03   -0.10163E-02   -0.13055E-02  1444   0.298E-01    0.100E-01
DAV:   3    -0.480490467013E+03    0.52530E-04   -0.45827E-04  1652   0.622E-02    0.595E-02
DAV:   4    -0.480490471622E+03   -0.46094E-05   -0.10947E-04  1584   0.330E-02    0.219E-02
DAV:   5    -0.480490478035E+03   -0.64130E-05   -0.20363E-05   992   0.150E-02
 430 F= -.48049048E+03 E0= -.48049048E+03  d E =-.183074E-02
 curvature: -14.62 expect dE=-0.122E-01 dE for cont linesearch -0.171E-04
 trial: gam= 0.68844 g(F)=  0.831E-03 g(S)=  0.602E-05 ort = 0.120E-03 (trialstep = 0.179E+01)
 search vector abs. value=  0.688E-02
 bond charge predicted
       N       E                     dE             d eps       ncg     rms          rms(c)
DAV:   1    -0.480490696201E+03   -0.22458E-03   -0.80149E-01  1440   0.236E+00    0.160E-01
DAV:   2    -0.480491655001E+03   -0.95880E-03   -0.12996E-02  1488   0.301E-01    0.101E-01
DAV:   3    -0.480491604789E+03    0.50212E-04   -0.56529E-04  1712   0.698E-02    0.604E-02
DAV:   4    -0.480491609223E+03   -0.44340E-05   -0.10432E-04  1504   0.320E-02    0.271E-02
DAV:   5    -0.480491617501E+03   -0.82784E-05   -0.18825E-05   968   0.151E-02
 431 F= -.48049162E+03 E0= -.48049162E+03  d E =-.113947E-02
 trial-energy change:   -0.001139  1 .order   -0.001095   -0.001641   -0.000549
 step:   2.4582(harm=  2.6831)  dis= 0.00486  next Energy=  -480.491723 (dE=-0.125E-02)
 reached required accuracy - stopping structural energy minimisation
