slab_Cel1-OPT                           
           1
    14.265900    0.000000    0.000000
     0.000000   12.356997    0.000000
     0.000000    0.000000   15.000000
   C    N    Au   Ag
    24    32     1     1
Direct configuration=     1
   0.06537593  0.40364000  0.13333000
   0.98097748  0.23494000  0.13333000
   0.22593437  0.39820000  0.13333000
   0.81543575  0.57710000  0.13333000
   0.14973747  0.23490000  0.13333000
   0.90517930  0.39797000  0.13333000
   0.56537593  0.40364000  0.13333000
   0.48097748  0.23494000  0.13333000
   0.72593437  0.39820000  0.13333000
   0.31543575  0.57710000  0.13333000
   0.64973747  0.23490000  0.13333000
   0.40517930  0.39797000  0.13333000
   0.81551954  0.90364000  0.13333000
   0.73112108  0.73494000  0.13333000
   0.97607797  0.89820000  0.13333000
   0.06529214  0.07710000  0.13333000
   0.89988107  0.73490000  0.13333000
   0.65532291  0.89797000  0.13333000
   0.31551954  0.90364000  0.13333000
   0.23112108  0.73494000  0.13333000
   0.47607797  0.89820000  0.13333000
   0.56529214  0.07710000  0.13333000
   0.39988107  0.73490000  0.13333000
   0.15532291  0.89797000  0.13333000
   0.98400093  0.45588000  0.13333000
   0.90111835  0.29021000  0.13333000
   0.14710595  0.45595000  0.13333000
   0.14840652  0.12714000  0.13333000
   0.98256150  0.12707000  0.13333000
   0.22992331  0.29008000  0.13333000
   0.06536362  0.29116000  0.13333000
   0.81553147  0.45774000  0.13333000
   0.48400093  0.45588000  0.13333000
   0.40111835  0.29021000  0.13333000
   0.64710595  0.45595000  0.13333000
   0.64840652  0.12714000  0.13333000
   0.48256150  0.12707000  0.13333000
   0.72992331  0.29008000  0.13333000
   0.56536362  0.29116000  0.13333000
   0.31553147  0.45774000  0.13333000
   0.73414454  0.95588000  0.13333000
   0.65126196  0.79021000  0.13333000
   0.89724956  0.95595000  0.13333000
   0.89855012  0.62714000  0.13333000
   0.73270510  0.62707000  0.13333000
   0.98006692  0.79008000  0.13333000
   0.81550723  0.79116000  0.13333000
   0.56567507  0.95774000  0.13333000
   0.23414454  0.95588000  0.13333000
   0.15126196  0.79021000  0.13333000
   0.39724956  0.95595000  0.13333000
   0.39855012  0.62714000  0.13333000
   0.23270510  0.62707000  0.13333000
   0.48006692  0.79008000  0.13333000
   0.31550723  0.79116000  0.13333000
   0.06567507  0.95774000  0.13333000
   0.51318019  0.65760505  0.14333042
   0.63498818  0.58816656  0.13951958
slab_Cel1-OPT                           
           1
    14.551566    0.000000    0.000000
     0.000000   12.503633    0.000000
     0.000000    0.000000   15.000000
   C    N    Au   Ag
    24    32     1     1
Direct configuration=     2
   0.06552214  0.40385149  0.13333528
   0.98093170  0.23455633  0.13332953
   0.22590444  0.39798362  0.13332711
   0.81782937  0.57551564  0.13328442
   0.14990339  0.23465076  0.13333135
   0.90536886  0.39779615  0.13333261
   0.56421001  0.40215275  0.13316698
   0.48039455  0.23408287  0.13335070
   0.72821475  0.39660299  0.13331584
   0.31429542  0.57486236  0.13340448
   0.65022784  0.23393862  0.13334948
   0.40362130  0.39751582  0.13337279
   0.81587655  0.90445884  0.13335237
   0.73250236  0.73768709  0.13313239
   0.97652870  0.89828888  0.13332575
   0.06542350  0.07690093  0.13333393
   0.90064533  0.73495354  0.13334608
   0.65482728  0.89959053  0.13335895
   0.31504753  0.90457896  0.13337176
   0.23022210  0.73493960  0.13337657
   0.47720999  0.90030727  0.13340529
   0.56547013  0.07675537  0.13332374
   0.39310620  0.73962268  0.13275096
   0.15488883  0.89825054  0.13332497
   0.98391922  0.45605326  0.13332957
   0.90094164  0.29028595  0.13333094
   0.14698192  0.45607594  0.13333093
   0.14843391  0.12728245  0.13332941
   0.98240039  0.12731807  0.13332568
   0.22996435  0.29015615  0.13333345
   0.06537713  0.29119317  0.13333068
   0.81491471  0.45814341  0.13332207
   0.48467278  0.45593605  0.13310449
   0.40136251  0.29034400  0.13333212
   0.64812176  0.44516455  0.13270223
   0.64854849  0.12773829  0.13330710
   0.48228264  0.12776052  0.13331342
   0.72958507  0.29067353  0.13336067
   0.56558547  0.29202237  0.13338024
   0.31594158  0.45794592  0.13332666
   0.73419184  0.95568426  0.13334437
   0.65154024  0.78991077  0.13303498
   0.89659469  0.95583248  0.13330678
   0.89795632  0.62723102  0.13336816
   0.75235954  0.63543104  0.13192924
   0.97972390  0.78974228  0.13330703
   0.81521159  0.79067990  0.13340394
   0.56567896  0.95732020  0.13334385
   0.23476074  0.95576550  0.13327931
   0.15161327  0.78972449  0.13327606
   0.39727046  0.95529437  0.13332316
   0.38934842  0.62593772  0.13195197
   0.23327019  0.62737602  0.13332749
   0.47647327  0.79869641  0.13210565
   0.31599421  0.79078914  0.13358738
   0.06557274  0.95771429  0.13335637
   0.51973266  0.65378535  0.14679102
   0.62372386  0.58283911  0.14153028
slab_Cel1-OPT                           
           1
    14.451678    0.000000    0.000000
     0.000000   12.452359    0.000000
     0.000000    0.000000   15.000000
   C    N    Au   Ag
    24    32     1     1
Direct configuration=     3
   0.06547202  0.40377840  0.13333344
   0.98094739  0.23468891  0.13332970
   0.22591470  0.39805839  0.13332812
   0.81700883  0.57606315  0.13330036
   0.14984651  0.23473689  0.13333088
   0.90530388  0.39785623  0.13333170
   0.56460969  0.40266670  0.13322398
   0.48059438  0.23437907  0.13334346
   0.72743303  0.39715487  0.13332079
   0.31468633  0.57563562  0.13337843
   0.65005974  0.23427084  0.13334267
   0.40415539  0.39767277  0.13335783
   0.81575416  0.90417588  0.13334455
   0.73202885  0.73673778  0.13320149
   0.97637419  0.89825817  0.13332724
   0.06537847  0.07696972  0.13333256
   0.90038334  0.73493504  0.13334045
   0.65499718  0.89903053  0.13334883
   0.31520934  0.90425449  0.13335716
   0.23053028  0.73493974  0.13336028
   0.47682193  0.89957907  0.13337896
   0.56540911  0.07687446  0.13332593
   0.39542865  0.73799068  0.13295343
   0.15503763  0.89815359  0.13332673
   0.98394723  0.45599339  0.13332972
   0.90100222  0.29025970  0.13333061
   0.14702444  0.45603242  0.13333060
   0.14842452  0.12723322  0.13332962
   0.98245562  0.12723235  0.13332719
   0.22995028  0.29012984  0.13333224
   0.06537250  0.29118171  0.13333044
   0.81512614  0.45800401  0.13332484
   0.48444247  0.45591668  0.13318334
   0.40127881  0.29029770  0.13333138
   0.64777354  0.44889165  0.13292174
   0.64849982  0.12753154  0.13331511
   0.48237823  0.12752190  0.13331922
   0.72970102  0.29046842  0.13334995
   0.56550942  0.29172436  0.13336267
   0.31580099  0.45787476  0.13332783
   0.73417563  0.95575190  0.13333934
   0.65144484  0.79001417  0.13313814
   0.89681918  0.95587309  0.13331490
   0.89815988  0.62719957  0.13335481
   0.74562192  0.63254174  0.13241904
   0.97984149  0.78985898  0.13331506
   0.81531294  0.79084581  0.13337808
   0.56567763  0.95746527  0.13333901
   0.23454951  0.95580507  0.13329704
   0.15149284  0.78989227  0.13329492
   0.39726329  0.95552093  0.13332555
   0.39250280  0.62635319  0.13243382
   0.23307648  0.62727027  0.13332837
   0.47770519  0.79571886  0.13253377
   0.31582727  0.79091730  0.13349738
   0.06560782  0.95772317  0.13334715
   0.51748645  0.65510531  0.14558096
   0.62758531  0.58468010  0.14082721
slab_Cel1-OPT                           
           1
    14.663502    0.000000    0.000000
     0.000000   12.544963    0.000000
     0.000000    0.000000   15.000000
   C    N    Au   Ag
    24    32     1     1
Direct configuration=     4
   0.06556967  0.40401534  0.13333952
   0.98092266  0.23450915  0.13333269
   0.22560313  0.39779647  0.13332251
   0.82132595  0.57408949  0.13328070
   0.14995587  0.23464619  0.13333102
   0.90574125  0.39763658  0.13332928
   0.56357675  0.40018160  0.13302227
   0.48015897  0.23365801  0.13336192
   0.72978882  0.39505911  0.13329292
   0.31230853  0.57356498  0.13351663
   0.65058316  0.23364520  0.13335804
   0.40304120  0.39717487  0.13338593
   0.81604155  0.90477631  0.13336614
   0.73381332  0.73952970  0.13298088
   0.97636706  0.89831286  0.13331595
   0.06545791  0.07714910  0.13333862
   0.90087361  0.73461770  0.13335906
   0.65477431  0.90029692  0.13337494
   0.31498637  0.90528069  0.13339542
   0.22978912  0.73467916  0.13341905
   0.47753166  0.90304951  0.13345876
   0.56553468  0.07689148  0.13331428
   0.39109146  0.74081272  0.13235620
   0.15489371  0.89831962  0.13331670
   0.98388503  0.45578423  0.13333121
   0.90116694  0.29039099  0.13332963
   0.14694965  0.45580269  0.13333397
   0.14808431  0.12737233  0.13332772
   0.98271074  0.12743857  0.13332374
   0.22968430  0.29027286  0.13333609
   0.06539621  0.29115782  0.13333098
   0.81483356  0.45811322  0.13328385
   0.48498713  0.45576077  0.13297792
   0.40168866  0.29065281  0.13334598
   0.64830661  0.44073116  0.13233436
   0.64826209  0.12805174  0.13329519
   0.48250391  0.12812274  0.13329872
   0.72936615  0.29055744  0.13340963
   0.56537683  0.29211776  0.13338637
   0.31591046  0.45773701  0.13332355
   0.73413754  0.95530658  0.13337871
   0.65217575  0.78946729  0.13275790
   0.89646602  0.95550280  0.13327550
   0.89865467  0.62745541  0.13344454
   0.75126101  0.63673693  0.13145403
   0.97935899  0.78975316  0.13327144
   0.81551537  0.79159655  0.13352607
   0.56577271  0.95751223  0.13333991
   0.23489866  0.95539679  0.13325457
   0.15197733  0.78976617  0.13323159
   0.39716486  0.95496227  0.13335694
   0.38761108  0.62790833  0.13103126
   0.23338818  0.62752161  0.13335482
   0.47411401  0.79848087  0.13160076
   0.31509117  0.79136547  0.13372462
   0.06555899  0.95768769  0.13338042
   0.51103218  0.65958846  0.14917056
   0.63520090  0.57792609  0.14193804
slab_Cel1-OPT                           
           1
    14.723648    0.000000    0.000000
     0.000000   12.571257    0.000000
     0.000000    0.000000   15.000000
   C    N    Au   Ag
    24    32     1     1
Direct configuration=     5
   0.06559700  0.40408212  0.13334124
   0.98091574  0.23445849  0.13333353
   0.22551595  0.39772265  0.13332092
   0.82253404  0.57353323  0.13327512
   0.14998647  0.23462063  0.13333106
   0.90586364  0.39757467  0.13332860
   0.56328770  0.39948119  0.13296500
   0.48003713  0.23345479  0.13336717
   0.73044805  0.39446844  0.13328501
   0.31164313  0.57298138  0.13355587
   0.65072963  0.23346887  0.13336240
   0.40272940  0.39703454  0.13339390
   0.81612198  0.90494554  0.13337228
   0.73431268  0.74031658  0.13291824
   0.97636507  0.89832827  0.13331274
   0.06548014  0.07719966  0.13334034
   0.90101081  0.73452825  0.13336435
   0.65471195  0.90065385  0.13338235
   0.31492398  0.90556992  0.13340629
   0.22958171  0.73460572  0.13343573
   0.47773027  0.90402763  0.13348141
   0.56556982  0.07689627  0.13331098
   0.38987775  0.74160809  0.13218662
   0.15485343  0.89836641  0.13331385
   0.98386762  0.45572528  0.13333163
   0.90121303  0.29042800  0.13332935
   0.14692873  0.45573794  0.13333492
   0.14798911  0.12741154  0.13332718
   0.98278213  0.12749669  0.13332276
   0.22960987  0.29031317  0.13333718
   0.06540284  0.29115109  0.13333113
   0.81475169  0.45814400  0.13327221
   0.48513954  0.45571683  0.13291959
   0.40180336  0.29075290  0.13335012
   0.64845579  0.43843119  0.13216757
   0.64819557  0.12819836  0.13328953
   0.48253908  0.12829208  0.13329290
   0.72927244  0.29058252  0.13342657
   0.56533973  0.29222864  0.13339310
   0.31594109  0.45769819  0.13332234
   0.73412688  0.95518108  0.13338989
   0.65238029  0.78931316  0.13264993
   0.89636719  0.95539843  0.13326431
   0.89879313  0.62752752  0.13347002
   0.75283904  0.63791931  0.13118003
   0.97922396  0.78972334  0.13325905
   0.81557202  0.79180815  0.13356809
   0.56579931  0.95752546  0.13334016
   0.23499637  0.95528172  0.13324252
   0.15211291  0.78973064  0.13321360
   0.39713731  0.95480481  0.13336585
   0.38624220  0.62834663  0.13063301
   0.23347541  0.62759244  0.13336232
   0.47310907  0.79925932  0.13133585
   0.31488518  0.79149179  0.13378914
   0.06554533  0.95767769  0.13338987
   0.50922604  0.66085200  0.15018979
   0.63733202  0.57602252  0.14225345
slab_Cel1-OPT                           
           1
    14.705514    0.000000    0.000000
     0.000000   12.569539    0.000000
     0.000000    0.000000   15.000000
   C    N    Au   Ag
    24    32     1     1
Direct configuration=     6
   0.06559077  0.40408213  0.13334137
   0.98105480  0.23452889  0.13333597
   0.22485128  0.39731794  0.13333047
   0.82426580  0.57415507  0.13319669
   0.14983751  0.23467786  0.13332930
   0.90660797  0.39712372  0.13332047
   0.56326811  0.39745984  0.13284138
   0.48007011  0.23343356  0.13337090
   0.73099142  0.39274746  0.13322332
   0.30959653  0.57270778  0.13364828
   0.65097060  0.23367748  0.13335869
   0.40291810  0.39679492  0.13336688
   0.81636275  0.90511610  0.13339150
   0.73599165  0.74160636  0.13276054
   0.97582737  0.89824145  0.13329872
   0.06545820  0.07771079  0.13334453
   0.90117421  0.73443537  0.13338402
   0.65519752  0.90067220  0.13337598
   0.31487200  0.90641158  0.13343526
   0.22904949  0.73428038  0.13348179
   0.47705665  0.90602595  0.13349679
   0.56560723  0.07765100  0.13331343
   0.38834625  0.74228597  0.13151062
   0.15519941  0.89830331  0.13328624
   0.98394081  0.45506853  0.13333522
   0.90185527  0.29061511  0.13332787
   0.14688182  0.45511371  0.13334511
   0.14728023  0.12764277  0.13332853
   0.98350624  0.12771404  0.13332367
   0.22896743  0.29051008  0.13333544
   0.06543618  0.29120295  0.13333031
   0.81558348  0.45769113  0.13324083
   0.48526217  0.45529918  0.13290892
   0.40221687  0.29114451  0.13338519
   0.64775015  0.43351340  0.13166409
   0.64745663  0.12831291  0.13327897
   0.48322994  0.12827855  0.13328477
   0.72949034  0.28903772  0.13349987
   0.56456508  0.29088641  0.13337911
   0.31542923  0.45709378  0.13332907
   0.73384474  0.95466512  0.13343229
   0.65330086  0.78934725  0.13241837
   0.89645120  0.95493870  0.13322848
   0.90073707  0.62774648  0.13356880
   0.75286482  0.63881327  0.13056667
   0.97863333  0.78997165  0.13322330
   0.81643933  0.79377081  0.13373735
   0.56598994  0.95835971  0.13334468
   0.23485120  0.95475276  0.13323485
   0.15258823  0.79007365  0.13317963
   0.39699077  0.95505299  0.13343848
   0.38376279  0.63006758  0.12911414
   0.23307473  0.62755996  0.13344027
   0.47042607  0.80110675  0.13025892
   0.31259631  0.79305392  0.13405690
   0.06555108  0.95769942  0.13340945
   0.51070488  0.65902387  0.15351194
   0.64039779  0.57711581  0.14312534
slab_Cel1-OPT                           
           1
    14.681404    0.000000    0.000000
     0.000000   12.567255    0.000000
     0.000000    0.000000   15.000000
   C    N    Au   Ag
    24    32     1     1
Direct configuration=     7
   0.06558247  0.40408215  0.13334155
   0.98123992  0.23462250  0.13333921
   0.22396645  0.39677977  0.13334317
   0.82657117  0.57498197  0.13309241
   0.14963920  0.23475395  0.13332695
   0.90759884  0.39652407  0.13330967
   0.56324203  0.39477189  0.13267702
   0.48011400  0.23340534  0.13337587
   0.73171476  0.39045894  0.13314130
   0.30687204  0.57234395  0.13377114
   0.65129138  0.23395489  0.13335375
   0.40316931  0.39647630  0.13333095
   0.81668328  0.90534291  0.13341707
   0.73822675  0.74332147  0.13255086
   0.97511157  0.89812599  0.13328009
   0.06542900  0.07839047  0.13335009
   0.90139175  0.73431186  0.13341018
   0.65584393  0.90069659  0.13336751
   0.31480281  0.90753081  0.13347378
   0.22834098  0.73384774  0.13354304
   0.47615991  0.90868326  0.13351724
   0.56565703  0.07865463  0.13331669
   0.38630747  0.74318739  0.13061181
   0.15565998  0.89821939  0.13324954
   0.98403823  0.45419519  0.13334000
   0.90271023  0.29086394  0.13332591
   0.14681938  0.45428362  0.13335865
   0.14633655  0.12795027  0.13333033
   0.98447020  0.12800307  0.13332488
   0.22811220  0.29077193  0.13333313
   0.06548056  0.29127192  0.13332923
   0.81669078  0.45708892  0.13319911
   0.48542542  0.45474379  0.13289474
   0.40276736  0.29166527  0.13343183
   0.64681079  0.42697385  0.13099465
   0.64647295  0.12846523  0.13326492
   0.48414963  0.12826057  0.13327397
   0.72978041  0.28698348  0.13359732
   0.56353385  0.28910154  0.13336051
   0.31474783  0.45629006  0.13333802
   0.73346914  0.95397901  0.13348867
   0.65452635  0.78939258  0.13211048
   0.89656305  0.95432735  0.13318083
   0.90332491  0.62803764  0.13370014
   0.75289915  0.64000204  0.12975116
   0.97784705  0.79030186  0.13317577
   0.81759392  0.79638071  0.13396240
   0.56624371  0.95946907  0.13335069
   0.23465794  0.95404937  0.13322465
   0.15322100  0.79052978  0.13313446
   0.39679569  0.95538302  0.13353504
   0.38046212  0.63235607  0.12709465
   0.23254134  0.62751676  0.13354390
   0.46685438  0.80356342  0.12882705
   0.30954928  0.79513120  0.13441292
   0.06555874  0.95772831  0.13343549
   0.51267356  0.65659287  0.15792905
   0.64447903  0.57856964  0.14428460
slab_Cel1-OPT                           
           1
    14.637982    0.000000    0.000000
     0.000000   12.539210    0.000000
     0.000000    0.000000   15.000000
   C    N    Au   Ag
    24    32     1     1
Direct configuration=     8
   0.06558505  0.40366330  0.13334323
   0.98180576  0.23468214  0.13334303
   0.22345837  0.39619822  0.13337082
   0.82718221  0.57655486  0.13287283
   0.14907663  0.23478235  0.13332375
   0.90820538  0.39609556  0.13328306
   0.56256614  0.39270854  0.13252089
   0.48033036  0.23314601  0.13337628
   0.73177154  0.38870495  0.13300574
   0.30600980  0.57258847  0.13362050
   0.65096960  0.23324394  0.13334770
   0.40390251  0.39705826  0.13329831
   0.81694463  0.90630244  0.13346769
   0.73994104  0.74438764  0.13227232
   0.97484375  0.89781038  0.13325745
   0.06544095  0.07850626  0.13335570
   0.90214836  0.73512031  0.13345926
   0.65618911  0.89996310  0.13330033
   0.31452634  0.90831896  0.13354267
   0.22768574  0.73391070  0.13360448
   0.47523225  0.90932941  0.13340537
   0.56597325  0.07950236  0.13332874
   0.38500566  0.74379388  0.12959858
   0.15603234  0.89797134  0.13318815
   0.98457088  0.45363492  0.13334377
   0.90351138  0.29055371  0.13332360
   0.14647715  0.45380804  0.13337607
   0.14600754  0.12849364  0.13333316
   0.98481397  0.12850929  0.13332999
   0.22738065  0.29049626  0.13332753
   0.06546815  0.29140873  0.13332844
   0.81816992  0.45645869  0.13314084
   0.48556952  0.45390368  0.13298075
   0.40299505  0.29140469  0.13348496
   0.64644699  0.42722561  0.13051109
   0.64604644  0.12853240  0.13326295
   0.48425171  0.12815950  0.13327463
   0.73113841  0.28345706  0.13374726
   0.56232571  0.28595444  0.13333406
   0.31359675  0.45562631  0.13336274
   0.73365994  0.95397937  0.13356118
   0.65566254  0.78992691  0.13189242
   0.89671938  0.95471157  0.13312300
   0.90595366  0.62823363  0.13387851
   0.75512259  0.64119197  0.12854213
   0.97769854  0.79104750  0.13312479
   0.81887617  0.79753609  0.13423068
   0.56623130  0.96067025  0.13336131
   0.23385366  0.95477198  0.13324131
   0.15245412  0.79115433  0.13310930
   0.39514781  0.95792027  0.13374381
   0.38031570  0.63501437  0.12498932
   0.22958027  0.62796661  0.13388391
   0.46485371  0.80228374  0.12737459
   0.30762783  0.79630279  0.13478569
   0.06554416  0.95777438  0.13344505
   0.51262927  0.65526882  0.16273964
   0.64669514  0.57596667  0.14535464
slab_Cel1-OPT                           
           1
    14.593434    0.000000    0.000000
     0.000000   12.510437    0.000000
     0.000000    0.000000   15.000000
   C    N    Au   Ag
    24    32     1     1
Direct configuration=     9
   0.06558770  0.40323262  0.13334495
   0.98238800  0.23474346  0.13334696
   0.22293557  0.39560024  0.13339918
   0.82781096  0.57817216  0.13264754
   0.14849774  0.23481154  0.13332048
   0.90882949  0.39565495  0.13325576
   0.56187066  0.39058692  0.13236072
   0.48055299  0.23287935  0.13337671
   0.73182996  0.38690143  0.13286666
   0.30512257  0.57283988  0.13346594
   0.65063850  0.23251291  0.13334149
   0.40465696  0.39765666  0.13326482
   0.81721356  0.90728907  0.13351963
   0.74170503  0.74548391  0.13198656
   0.97456817  0.89748585  0.13323422
   0.06545324  0.07862532  0.13336147
   0.90292690  0.73595159  0.13350962
   0.65654431  0.89920889  0.13323141
   0.31424184  0.90912936  0.13361336
   0.22701150  0.73397544  0.13366751
   0.47427769  0.90999381  0.13329060
   0.56629864  0.08037403  0.13334110
   0.38366612  0.74441749  0.12855906
   0.15641549  0.89771629  0.13312516
   0.98511897  0.45305884  0.13334764
   0.90433576  0.29023472  0.13332122
   0.14612500  0.45331902  0.13339393
   0.14566899  0.12905236  0.13333605
   0.98516771  0.12902981  0.13333523
   0.22662789  0.29021281  0.13332179
   0.06545538  0.29154941  0.13332763
   0.81969195  0.45581066  0.13308105
   0.48571780  0.45303986  0.13306900
   0.40322933  0.29113675  0.13353947
   0.64607264  0.42748447  0.13001498
   0.64560756  0.12860148  0.13326093
   0.48435675  0.12805557  0.13327532
   0.73253578  0.27983105  0.13390110
   0.56108255  0.28271847  0.13330693
   0.31241229  0.45494381  0.13338810
   0.73385626  0.95397975  0.13363557
   0.65683166  0.79047633  0.13166870
   0.89688024  0.95510663  0.13306367
   0.90865862  0.62843516  0.13406152
   0.75741049  0.64241551  0.12730174
   0.97754573  0.79181420  0.13307248
   0.82019558  0.79872409  0.13450593
   0.56621853  0.96190536  0.13337219
   0.23302607  0.95551500  0.13325840
   0.15166501  0.79179652  0.13308349
   0.39345216  0.96052917  0.13395800
   0.38016503  0.63774774  0.12282936
   0.22653336  0.62842917  0.13423274
   0.46279505  0.80096792  0.12588445
   0.30565067  0.79750747  0.13516814
   0.06552916  0.95782175  0.13345486
   0.51258369  0.65390738  0.16767503
   0.64897549  0.57329019  0.14645244
slab_Cel1-OPT                           
           1
    14.581024    0.000000    0.000000
     0.000000   12.523878    0.000000
     0.000000    0.000000   15.000000
   C    N    Au   Ag
    24    32     1     1
Direct configuration=    10
   0.06573059  0.40250712  0.13335106
   0.98321141  0.23493163  0.13335333
   0.22278046  0.39521478  0.13343985
   0.82998915  0.57883211  0.13231364
   0.14772928  0.23498851  0.13331939
   0.90890970  0.39565681  0.13320387
   0.56181643  0.38918988  0.13210724
   0.47924101  0.23125596  0.13338758
   0.73188925  0.38474505  0.13265897
   0.30503267  0.57521133  0.13272561
   0.65028852  0.23084301  0.13335347
   0.40460399  0.39736290  0.13326157
   0.81741000  0.90876499  0.13366260
   0.74240968  0.74592070  0.13151585
   0.97516106  0.89851438  0.13320841
   0.06548118  0.07782555  0.13336424
   0.90389260  0.73646321  0.13362800
   0.65664949  0.89923957  0.13313972
   0.31244423  0.90999563  0.13380166
   0.22544812  0.73536914  0.13382800
   0.47257863  0.90867283  0.13286032
   0.56590025  0.07994153  0.13335979
   0.38227754  0.74565682  0.12725523
   0.15591124  0.89811232  0.13305520
   0.98566787  0.45330418  0.13334202
   0.90451470  0.28953800  0.13331323
   0.14593244  0.45349806  0.13340878
   0.14609302  0.12906092  0.13333816
   0.98474070  0.12896959  0.13334728
   0.22661418  0.28936207  0.13331667
   0.06544471  0.29142135  0.13333131
   0.82055499  0.45525259  0.13297738
   0.48578083  0.45224473  0.13320865
   0.40272140  0.29101174  0.13358806
   0.64594897  0.42752626  0.12943496
   0.64652344  0.12752541  0.13328923
   0.48334741  0.12702737  0.13329507
   0.73368235  0.27789089  0.13405745
   0.56235131  0.28270917  0.13322767
   0.31192373  0.45565415  0.13338447
   0.73433670  0.95499021  0.13371494
   0.65778226  0.79042803  0.13141741
   0.89758615  0.95708801  0.13297454
   0.91046198  0.62872138  0.13432681
   0.75876595  0.64385840  0.12556380
   0.97912585  0.79291124  0.13300671
   0.82157235  0.79865037  0.13488323
   0.56552295  0.96167449  0.13334927
   0.23201885  0.95769782  0.13329046
   0.14955082  0.79203888  0.13305794
   0.39254458  0.96348976  0.13429374
   0.38010914  0.63714098  0.12051697
   0.22400437  0.62762117  0.13488268
   0.46330816  0.80020088  0.12442233
   0.30560015  0.79746852  0.13547446
   0.06527991  0.95812054  0.13343220
   0.51191004  0.65296065  0.17377265
   0.65011400  0.57141805  0.14793487
slab_Cel1-OPT                           
           1
    14.568782    0.000000    0.000000
     0.000000   12.537138    0.000000
     0.000000    0.000000   15.000000
   C    N    Au   Ag
    24    32     1     1
Direct configuration=    11
   0.06587167  0.40179220  0.13335708
   0.98402438  0.23511705  0.13335961
   0.22262732  0.39483495  0.13347997
   0.83213972  0.57948243  0.13198426
   0.14697057  0.23516291  0.13331833
   0.90898890  0.39565864  0.13315268
   0.56176290  0.38781321  0.13185719
   0.47794567  0.22965623  0.13339831
   0.73194778  0.38262010  0.13245410
   0.30494391  0.57754821  0.13199530
   0.64994298  0.22919745  0.13336529
   0.40455170  0.39707342  0.13325838
   0.81760396  0.91021939  0.13380364
   0.74310539  0.74635111  0.13105150
   0.97574643  0.89952791  0.13318294
   0.06550877  0.07703743  0.13336697
   0.90484605  0.73696738  0.13374478
   0.65675334  0.89926979  0.13304926
   0.31066940  0.91084927  0.13398742
   0.22390458  0.73674253  0.13398631
   0.47090112  0.90737111  0.13243587
   0.56550692  0.07951533  0.13337823
   0.38090658  0.74687809  0.12596903
   0.15541339  0.89850258  0.13298619
   0.98620980  0.45354594  0.13333646
   0.90469138  0.28885142  0.13330534
   0.14574233  0.45367449  0.13342342
   0.14651168  0.12906937  0.13334024
   0.98431911  0.12891024  0.13335916
   0.22660064  0.28852374  0.13331162
   0.06543418  0.29129516  0.13333494
   0.82140709  0.45470266  0.13287511
   0.48584305  0.45146119  0.13334642
   0.40221991  0.29088856  0.13363598
   0.64582686  0.42756743  0.12886279
   0.64742769  0.12646504  0.13331714
   0.48235087  0.12601417  0.13331456
   0.73481438  0.27597901  0.13421168
   0.56360398  0.28270000  0.13314949
   0.31144137  0.45635413  0.13338089
   0.73481103  0.95598593  0.13379323
   0.65872080  0.79038043  0.13116952
   0.89828312  0.95904050  0.13288660
   0.91224248  0.62900342  0.13458851
   0.76010422  0.64528025  0.12384936
   0.98068593  0.79399229  0.13294182
   0.82293166  0.79857772  0.13525544
   0.56483619  0.96144699  0.13332665
   0.23102440  0.95984882  0.13332210
   0.14746344  0.79227771  0.13303274
   0.39164851  0.96640718  0.13462493
   0.38005395  0.63654306  0.11823584
   0.22150745  0.62682495  0.13552382
   0.46381477  0.79944503  0.12297999
   0.30555027  0.79743013  0.13577664
   0.06503381  0.95841498  0.13340984
   0.51124493  0.65202773  0.17978783
   0.65123807  0.56957320  0.14939726
slab_Cel1-OPT                           
           1
    14.517495    0.000000    0.000000
     0.000000   12.533569    0.000000
     0.000000    0.000000   15.000000
   C    N    Au   Ag
    24    32     1     1
Direct configuration=    12
   0.06601459  0.40165331  0.13336462
   0.98411169  0.23486952  0.13336840
   0.22282272  0.39480394  0.13351159
   0.83356129  0.58023281  0.13148318
   0.14687283  0.23489893  0.13332386
   0.90904652  0.39543893  0.13309001
   0.56209787  0.38765008  0.13157287
   0.47708883  0.22891158  0.13343902
   0.73158375  0.38066064  0.13219184
   0.30406812  0.57938358  0.13110045
   0.65033935  0.22809933  0.13339783
   0.40402605  0.39646371  0.13327924
   0.81852330  0.91114418  0.13401304
   0.74375482  0.74690377  0.13052383
   0.97641749  0.90127689  0.13314882
   0.06542617  0.07675158  0.13336392
   0.90650610  0.73800320  0.13391380
   0.65691471  0.89969203  0.13297601
   0.30957321  0.91240048  0.13430373
   0.22198592  0.73682334  0.13427218
   0.46912236  0.90659905  0.13189974
   0.56495210  0.07795033  0.13339102
   0.38202437  0.74603047  0.12437244
   0.15387502  0.89975613  0.13294415
   0.98635250  0.45364096  0.13331535
   0.90478619  0.28881416  0.13328988
   0.14582071  0.45348229  0.13342453
   0.14662755  0.12870511  0.13334061
   0.98424891  0.12854529  0.13337592
   0.22677169  0.28820899  0.13331267
   0.06554393  0.29111180  0.13334588
   0.82201250  0.45425726  0.13271816
   0.48584915  0.45054663  0.13337179
   0.40156592  0.29065365  0.13367620
   0.64661654  0.42603461  0.12804691
   0.64777265  0.12453406  0.13335743
   0.48153056  0.12491918  0.13332677
   0.73518995  0.27555198  0.13436442
   0.56417831  0.28209512  0.13307206
   0.31150932  0.45732316  0.13334247
   0.73491645  0.95691028  0.13382999
   0.65919334  0.79063249  0.13089151
   0.89882828  0.96082492  0.13280015
   0.91370299  0.62955745  0.13492850
   0.76062731  0.64425071  0.12203417
   0.98197405  0.79472726  0.13288763
   0.82396101  0.79912047  0.13568984
   0.56409044  0.96039264  0.13326785
   0.22986473  0.96114722  0.13334455
   0.14603977  0.79280871  0.13301512
   0.39094913  0.96701637  0.13497497
   0.38033680  0.63626004  0.11609295
   0.22053778  0.62731670  0.13621402
   0.46451268  0.79900801  0.12159457
   0.30445822  0.79821837  0.13606345
   0.06496814  0.95891925  0.13336001
   0.51031507  0.65138513  0.18616193
   0.65186101  0.57037354  0.15125217
slab_Cel1-OPT                           
           1
    14.414448    0.000000    0.000000
     0.000000   12.526399    0.000000
     0.000000    0.000000   15.000000
   C    N    Au   Ag
    24    32     1     1
Direct configuration=    13
   0.06630276  0.40137416  0.13337977
   0.98428775  0.23437204  0.13338607
   0.22321671  0.39474163  0.13357512
   0.83642764  0.58174092  0.13047640
   0.14667576  0.23436840  0.13333498
   0.90916271  0.39499734  0.13296409
   0.56277329  0.38732222  0.13100159
   0.47536116  0.22741498  0.13352083
   0.73084974  0.37672252  0.13166490
   0.30230223  0.58307230  0.12930250