 running on   48 total cores
 distrk:  each k-point on   48 cores,    1 groups
 distr:  one band on   12 cores,    4 groups
 vasp.6.3.2 27Jun22 (build May 04 2024 18:40:40) complex                        
  
 POSCAR found type information on POSCAR C N AgCu
 POSCAR found :  4 types and      58 ions
 Reading from existing POTCAR
 scaLAPACK will be used
 Reading from existing POTCAR
 LDA part: xc-table for Pade appr. of Perdew
 POSCAR found type information on POSCAR C N AgCu
 POSCAR found :  4 types and      58 ions
 POSCAR, INCAR and KPOINTS ok, starting setup
 FFT: planning ... GRIDC
 FFT: planning ... GRID_SOFT
 FFT: planning ... GRID
 WAVECAR not read
 entering main loop
       N       E                     dE             d eps       ncg     rms          rms(c)
DAV:   1     0.266942057749E+04    0.26694E+04   -0.96457E+04  1576   0.102E+03
DAV:   2     0.835802607040E+02   -0.25858E+04   -0.24533E+04  2008   0.288E+02
DAV:   3    -0.471621207016E+03   -0.55520E+03   -0.54841E+03  1736   0.147E+02
DAV:   4    -0.502200029685E+03   -0.30579E+02   -0.29859E+02  2072   0.515E+01
DAV:   5    -0.503089312114E+03   -0.88928E+00   -0.86913E+00  1856   0.528E+00    0.582E+01
DAV:   6    -0.480688772786E+03    0.22401E+02   -0.20751E+02  2080   0.120E+02    0.435E+01
DAV:   7    -0.460874690892E+03    0.19814E+02   -0.11618E+02  1960   0.133E+02    0.231E+01
DAV:   8    -0.462551274780E+03   -0.16766E+01   -0.41702E+01  2144   0.340E+01    0.199E+01
DAV:   9    -0.463118821613E+03   -0.56755E+00   -0.94131E+01  2144   0.686E+01    0.141E+01
DAV:  10    -0.460460579728E+03    0.26582E+01   -0.21668E+01  2096   0.690E+01    0.840E+00
DAV:  11    -0.461046472025E+03   -0.58589E+00   -0.11108E+01  2040   0.256E+01    0.923E+00
DAV:  12    -0.460901356831E+03    0.14512E+00   -0.60025E-01  2136   0.536E+00    0.890E+00
DAV:  13    -0.460591375334E+03    0.30998E+00   -0.34150E-01  2096   0.994E+00    0.731E+00
DAV:  14    -0.460400781309E+03    0.19059E+00   -0.38730E-01  2080   0.796E+00    0.431E+00
DAV:  15    -0.460379080007E+03    0.21701E-01   -0.16109E-01  2112   0.194E+00    0.320E+00
DAV:  16    -0.460364321952E+03    0.14758E-01   -0.23464E-02  2112   0.128E+00    0.210E+00
DAV:  17    -0.460360114414E+03    0.42075E-02   -0.16688E-02  1880   0.633E-01    0.523E-01
DAV:  18    -0.460363052341E+03   -0.29379E-02   -0.14969E-02  1960   0.694E-01    0.131E+00
DAV:  19    -0.460360653207E+03    0.23991E-02   -0.10531E-02  1960   0.610E-01    0.171E-01
DAV:  20    -0.460365640865E+03   -0.49877E-02   -0.76394E-03  1928   0.649E-01    0.991E-01
DAV:  21    -0.460368575364E+03   -0.29345E-02   -0.11729E-02  2040   0.106E+00    0.657E-01
DAV:  22    -0.460368947948E+03   -0.37258E-03   -0.32177E-03  1888   0.201E-01    0.136E-01
DAV:  23    -0.460369635471E+03   -0.68752E-03   -0.90884E-04  1912   0.126E-01    0.130E-01
DAV:  24    -0.460371204064E+03   -0.15686E-02   -0.20435E-03  2072   0.451E-01    0.542E-01
DAV:  25    -0.460372271514E+03   -0.10675E-02   -0.11594E-03  1928   0.178E-01    0.620E-02
DAV:  26    -0.460373778641E+03   -0.15071E-02   -0.24155E-04  1792   0.620E-02    0.565E-02
DAV:  27    -0.460374680399E+03   -0.90176E-03   -0.11425E-04  1680   0.874E-02    0.512E-02
DAV:  28    -0.460375237476E+03   -0.55708E-03   -0.37198E-05  1216   0.413E-02    0.318E-02
DAV:  29    -0.460375674667E+03   -0.43719E-03   -0.59587E-05  1424   0.283E-02    0.507E-02
DAV:  30    -0.460375800129E+03   -0.12546E-03   -0.18154E-05   984   0.247E-02    0.153E-02
DAV:  31    -0.460375849910E+03   -0.49781E-04   -0.94667E-06   976   0.112E-02    0.365E-02
DAV:  32    -0.460375867304E+03   -0.17394E-04   -0.12792E-05  1056   0.313E-02    0.179E-02
DAV:  33    -0.460375872659E+03   -0.53541E-05   -0.29993E-06   960   0.149E-02
   1 F= -.46037587E+03 E0= -.46031182E+03  d E =-.460376E+03
 curvature:   0.00 expect dE= 0.000E+00 dE for cont linesearch  0.000E+00
 trial: gam= 0.00000 g(F)=  0.107E+02 g(S)=  0.131E+01 ort = 0.000E+00 (trialstep = 0.100E+01)
 search vector abs. value=  0.120E+02
 bond charge predicted
       N       E                     dE             d eps       ncg     rms          rms(c)
DAV:   1    -0.464039639552E+03   -0.36638E+01   -0.55607E+02  1544   0.606E+01    0.179E+01
DAV:   2    -0.466092008709E+03   -0.20524E+01   -0.26417E+01  2016   0.347E+01    0.260E+01
DAV:   3    -0.465045990704E+03    0.10460E+01   -0.20790E+00  2100   0.881E+00    0.189E+01
DAV:   4    -0.468552320615E+03   -0.35063E+01   -0.13764E+01  2128   0.271E+01    0.238E+01
DAV:   5    -0.464821004650E+03    0.37313E+01   -0.97944E+00  2012   0.212E+01    0.921E+00
DAV:   6    -0.464657601542E+03    0.16340E+00   -0.14102E+00  1820   0.374E+00    0.278E+00
DAV:   7    -0.464661880592E+03   -0.42791E-02   -0.26677E-01  1924   0.157E+00    0.326E+00
DAV:   8    -0.464641862292E+03    0.20018E-01   -0.88933E-02  1896   0.794E-01    0.149E+00
DAV:   9    -0.464641556368E+03    0.30592E-03   -0.15290E-02  1968   0.547E-01    0.171E+00
DAV:  10    -0.464636212728E+03    0.53436E-02   -0.33792E-02  1944   0.110E+00    0.667E-01
DAV:  11    -0.464635855919E+03    0.35681E-03   -0.51705E-03  1920   0.498E-01    0.489E-01
DAV:  12    -0.464635762239E+03    0.93680E-04   -0.14491E-03  1984   0.215E-01    0.385E-01
DAV:  13    -0.464635607183E+03    0.15506E-03   -0.38763E-04  1864   0.995E-02    0.259E-01
DAV:  14    -0.464635583636E+03    0.23547E-04   -0.31935E-04  1808   0.925E-02    0.696E-02
DAV:  15    -0.464635666160E+03   -0.82524E-04   -0.13795E-04  1824   0.388E-02    0.385E-02
DAV:  16    -0.464635700834E+03   -0.34674E-04   -0.12797E-05  1024   0.254E-02    0.156E-02
DAV:  17    -0.464635741999E+03   -0.41165E-04   -0.89002E-06   960   0.145E-02    0.972E-03
DAV:  18    -0.464635758433E+03   -0.16434E-04   -0.54727E-06  1024   0.197E-02    0.294E-03
DAV:  19    -0.464635766689E+03   -0.82558E-05   -0.25705E-06   968   0.470E-03
   2 F= -.46463577E+03 E0= -.46458099E+03  d E =-.425989E+01
 trial-energy change:   -4.259894  1 .order   -4.946043  -11.966544    2.074457
 step:   0.8065(harm=  0.8523)  dis= 0.11110  next Energy=  -464.841441 (dE=-0.447E+01)
 bond charge predicted
       N       E                     dE             d eps       ncg     rms          rms(c)
DAV:   1    -0.464848283390E+03   -0.21252E+00   -0.19846E+01  1464   0.111E+01    0.407E+00
DAV:   2    -0.465512959638E+03   -0.66468E+00   -0.80381E+00  2068   0.261E+01    0.653E+00
DAV:   3    -0.464929841055E+03    0.58312E+00   -0.20852E+00  2072   0.206E+01    0.420E+00
DAV:   4    -0.464924258685E+03    0.55824E-02   -0.79003E-02  1828   0.766E-01    0.382E+00
DAV:   5    -0.464878548627E+03    0.45710E-01   -0.63692E-02  2004   0.209E+00    0.255E+00
DAV:   6    -0.464840080470E+03    0.38468E-01   -0.17196E-01  2072   0.387E+00    0.600E-01
DAV:   7    -0.464849809260E+03   -0.97288E-02   -0.79240E-02  2032   0.163E+00    0.271E+00
DAV:   8    -0.464840203434E+03    0.96058E-02   -0.11059E-01  1956   0.182E+00    0.747E-01
DAV:   9    -0.464838363086E+03    0.18403E-02   -0.54456E-03  1872   0.371E-01    0.448E-01
DAV:  10    -0.464837575148E+03    0.78794E-03   -0.69207E-04  2032   0.193E-01    0.342E-01
DAV:  11    -0.464837228046E+03    0.34710E-03   -0.66344E-04  1988   0.173E-01    0.234E-01
DAV:  12    -0.464837348393E+03   -0.12035E-03   -0.55069E-04  1756   0.591E-02    0.314E-01
DAV:  13    -0.464837122881E+03    0.22551E-03   -0.26654E-04  1972   0.139E-01    0.138E-01
DAV:  14    -0.464837120467E+03    0.24144E-05   -0.66995E-05  1416   0.771E-02
   3 F= -.46483712E+03 E0= -.46478116E+03  d E =-.446125E+01
 curvature:  -0.39 expect dE=-0.119E+01 dE for cont linesearch -0.584E-04
 trial: gam= 0.25476 g(F)=  0.294E+01 g(S)=  0.152E+00 ort = 0.426E-01 (trialstep = 0.961E+00)
 search vector abs. value=  0.389E+01
 bond charge predicted
       N       E                     dE             d eps       ncg     rms          rms(c)
DAV:   1    -0.466866205393E+03   -0.20291E+01   -0.14143E+02  1632   0.317E+01    0.455E+00
DAV:   2    -0.467010658947E+03   -0.14445E+00   -0.31602E+00  1964   0.729E+00    0.530E+00
DAV:   3    -0.466991774675E+03    0.18884E-01   -0.44086E-01  2064   0.517E+00    0.322E+00
DAV:   4    -0.467069817392E+03   -0.78043E-01   -0.75384E-01  2120   0.881E+00    0.724E+00
DAV:   5    -0.466990272303E+03    0.79545E-01   -0.31037E+00  2036   0.932E+00    0.107E+00
DAV:   6    -0.466970103505E+03    0.20169E-01   -0.12670E-01  1880   0.129E+00    0.989E-01
DAV:   7    -0.466960371460E+03    0.97320E-02   -0.20530E-02  1960   0.855E-01    0.812E-01
DAV:   8    -0.466952860598E+03    0.75109E-02   -0.10765E-02  2160   0.855E-01    0.487E-01
DAV:   9    -0.466951121879E+03    0.17387E-02   -0.50028E-03  2080   0.587E-01    0.342E-01
DAV:  10    -0.466950513081E+03    0.60880E-03   -0.10953E-03  2272   0.256E-01    0.263E-01
DAV:  11    -0.466949876255E+03    0.63683E-03   -0.93987E-04  2064   0.357E-01    0.163E-01
DAV:  12    -0.466949683456E+03    0.19280E-03   -0.10012E-03  1984   0.331E-01    0.647E-02
DAV:  13    -0.466949820429E+03   -0.13697E-03   -0.30956E-04  1924   0.555E-02    0.419E-02
DAV:  14    -0.466949886622E+03   -0.66193E-04   -0.27010E-05  1152   0.659E-02    0.213E-02
DAV:  15    -0.466950003435E+03   -0.11681E-03   -0.45509E-05  1472   0.517E-02    0.537E-03
DAV:  16    -0.466950058295E+03   -0.54860E-04   -0.12361E-05  1112   0.256E-02    0.115E-02
DAV:  17    -0.466950086406E+03   -0.28111E-04   -0.86375E-06  1080   0.117E-02    0.764E-03
DAV:  18    -0.466950111724E+03   -0.25319E-04   -0.37452E-06  1024   0.127E-02    0.242E-03
DAV:  19    -0.466950138418E+03   -0.26694E-04   -0.50719E-06  1040   0.565E-03    0.295E-03
DAV:  20    -0.466950153176E+03   -0.14758E-04   -0.19699E-06  1032   0.896E-03    0.118E-03
DAV:  21    -0.466950162156E+03   -0.89798E-05   -0.20709E-06   992   0.300E-03
   4 F= -.46695016E+03 E0= -.46690225E+03  d E =-.211304E+01
 trial-energy change:   -2.113042  1 .order   -2.133894   -2.981961   -1.285827
 step:   1.8074(harm=  1.6901)  dis= 0.15146  next Energy=  -467.501812 (dE=-0.266E+01)
 bond charge predicted
       N       E                     dE             d eps       ncg     rms          rms(c)
DAV:   1    -0.467476421201E+03   -0.52627E+00   -0.10873E+02  1664   0.275E+01    0.368E+00
DAV:   2    -0.467564765611E+03   -0.88344E-01   -0.21571E+00  1868   0.502E+00    0.326E+00
DAV:   3    -0.467548208021E+03    0.16558E-01   -0.19739E-01  2024   0.280E+00    0.201E+00
DAV:   4    -0.467553027646E+03   -0.48196E-02   -0.24594E-01  2044   0.453E+00    0.122E+00
DAV:   5    -0.467530328612E+03    0.22699E-01   -0.15436E-01  1996   0.353E+00    0.509E-01
DAV:   6    -0.467531457782E+03   -0.11292E-02   -0.12078E-02  1904   0.478E-01    0.167E-01
DAV:   7    -0.467531427345E+03    0.30437E-04   -0.21264E-03  2096   0.304E-01    0.114E-01
DAV:   8    -0.467531490123E+03   -0.62778E-04   -0.12142E-03  1984   0.199E-01    0.652E-02
DAV:   9    -0.467531657399E+03   -0.16728E-03   -0.33446E-04  1944   0.146E-01    0.294E-02
DAV:  10    -0.467531748739E+03   -0.91340E-04   -0.17659E-04  1592   0.834E-02    0.176E-02
DAV:  11    -0.467531839521E+03   -0.90782E-04   -0.29304E-05  1072   0.326E-02    0.979E-03
DAV:  12    -0.467531959265E+03   -0.11974E-03   -0.22193E-05  1184   0.114E-02    0.479E-03
DAV:  13    -0.467532054313E+03   -0.95049E-04   -0.83700E-06  1104   0.116E-02    0.342E-03
DAV:  14    -0.467532127520E+03   -0.73206E-04   -0.89206E-06  1096   0.743E-03    0.234E-03
DAV:  15    -0.467532168164E+03   -0.40644E-04   -0.40799E-06  1032   0.918E-03    0.188E-03
DAV:  16    -0.467532193620E+03   -0.25456E-04   -0.42470E-06  1064   0.706E-03    0.104E-03
DAV:  17    -0.467532204362E+03   -0.10743E-04   -0.20625E-06  1024   0.558E-03    0.102E-03
DAV:  18    -0.467532210467E+03   -0.61042E-05   -0.13951E-06   960   0.479E-03
   5 F= -.46753221E+03 E0= -.46748527E+03  d E =-.269509E+01
 curvature:  -1.03 expect dE=-0.988E+00 dE for cont linesearch -0.161E-02
 trial: gam= 0.28206 g(F)=  0.773E+00 g(S)=  0.185E+00 ort = 0.778E-01 (trialstep = 0.113E+01)
 search vector abs. value=  0.131E+01
 bond charge predicted
       N       E                     dE             d eps       ncg     rms          rms(c)
DAV:   1    -0.468280623170E+03   -0.74842E+00   -0.66747E+01  1444   0.212E+01    0.292E+00
DAV:   2    -0.468431665775E+03   -0.15104E+00   -0.19827E+00  2016   0.724E+00    0.206E+00
DAV:   3    -0.468427734629E+03    0.39311E-02   -0.34854E-01  2056   0.553E+00    0.129E+00
DAV:   4    -0.468415892624E+03    0.11842E-01   -0.13013E-01  2072   0.417E+00    0.692E-01
DAV:   5    -0.468414408597E+03    0.14840E-02   -0.26711E-02  2000   0.129E+00    0.208E-01
DAV:   6    -0.468414494218E+03   -0.85620E-04   -0.64821E-03  1952   0.222E-01    0.140E-01
DAV:   7    -0.468414356679E+03    0.13754E-03   -0.24754E-03  1840   0.120E-01    0.756E-02
DAV:   8    -0.468414419984E+03   -0.63305E-04   -0.44118E-04  1952   0.109E-01    0.453E-02
DAV:   9    -0.468414466812E+03   -0.46829E-04   -0.14307E-04  1808   0.805E-02    0.255E-02
DAV:  10    -0.468414514953E+03   -0.48141E-04   -0.51601E-05  1304   0.567E-02    0.113E-02
DAV:  11    -0.468414546115E+03   -0.31162E-04   -0.10071E-05   960   0.254E-02    0.506E-03
DAV:  12    -0.468414578838E+03   -0.32723E-04   -0.64479E-06   984   0.809E-03    0.277E-03
DAV:  13    -0.468414619704E+03   -0.40867E-04   -0.35630E-06   944   0.774E-03    0.193E-03
DAV:  14    -0.468414637905E+03   -0.18201E-04   -0.15353E-06   984   0.528E-03    0.141E-03
DAV:  15    -0.468414659311E+03   -0.21406E-04   -0.18761E-06   960   0.526E-03    0.128E-03
DAV:  16    -0.468414665541E+03   -0.62298E-05   -0.93814E-07   984   0.465E-03
   6 F= -.46841467E+03 E0= -.46836814E+03  d E =-.882455E+00
 trial-energy change:   -0.882455  1 .order   -0.881177   -1.107310   -0.655045
 step:   2.7679(harm=  2.7679)  dis= 0.11622  next Energy=  -468.887759 (dE=-0.136E+01)
 bond charge predicted
       N       E                     dE             d eps       ncg     rms          rms(c)
DAV:   1    -0.468587083963E+03   -0.17242E+00   -0.14123E+02  1448   0.309E+01    0.404E+00
DAV:   2    -0.468908502317E+03   -0.32142E+00   -0.43236E+00  2032   0.121E+01    0.295E+00
DAV:   3    -0.468891050615E+03    0.17452E-01   -0.82362E-01  2088   0.926E+00    0.178E+00
DAV:   4    -0.468867734704E+03    0.23316E-01   -0.23046E-01  2072   0.559E+00    0.948E-01
DAV:   5    -0.468865694746E+03    0.20400E-02   -0.55323E-02  1960   0.149E+00    0.286E-01
DAV:   6    -0.468865739307E+03   -0.44561E-04   -0.10645E-02  2072   0.505E-01    0.218E-01
DAV:   7    -0.468865335120E+03    0.40419E-03   -0.42350E-03  2000   0.302E-01    0.107E-01
DAV:   8    -0.468865493209E+03   -0.15809E-03   -0.75535E-04  1888   0.116E-01    0.561E-02
DAV:   9    -0.468865584174E+03   -0.90965E-04   -0.28796E-04  1888   0.566E-02    0.300E-02
DAV:  10    -0.468865657687E+03   -0.73513E-04   -0.11937E-04  1400   0.478E-02    0.143E-02
DAV:  11    -0.468865705794E+03   -0.48107E-04   -0.22661E-05  1016   0.209E-02    0.734E-03
DAV:  12    -0.468865764098E+03   -0.58304E-04   -0.67350E-06   936   0.101E-02    0.388E-03
DAV:  13    -0.468865830064E+03   -0.65966E-04   -0.61487E-06  1000   0.145E-02    0.285E-03
DAV:  14    -0.468865870266E+03   -0.40202E-04   -0.38046E-06  1032   0.110E-02    0.210E-03
DAV:  15    -0.468865900846E+03   -0.30579E-04   -0.34706E-06  1000   0.835E-03    0.174E-03
DAV:  16    -0.468865915290E+03   -0.14444E-04   -0.28509E-06  1032   0.902E-03    0.122E-03
DAV:  17    -0.468865922051E+03   -0.67607E-05   -0.15874E-06   992   0.552E-03
   7 F= -.46886592E+03 E0= -.46881939E+03  d E =-.133371E+01
 curvature:  -1.85 expect dE=-0.112E+01 dE for cont linesearch -0.158E-02
 trial: gam= 0.72216 g(F)=  0.585E+00 g(S)=  0.204E-01 ort =-0.335E-01 (trialstep = 0.146E+01)
 search vector abs. value=  0.124E+01
 bond charge predicted
       N       E                     dE             d eps       ncg     rms          rms(c)
DAV:   1    -0.469238633875E+03   -0.37272E+00   -0.10992E+02  1428   0.264E+01    0.279E+00
DAV:   2    -0.469484081304E+03   -0.24545E+00   -0.30637E+00  2008   0.756E+00    0.226E+00
DAV:   3    -0.469469888085E+03    0.14193E-01   -0.30692E-01  2080   0.474E+00    0.136E+00
DAV:   4    -0.469465994516E+03    0.38936E-02   -0.11058E-01  2128   0.408E+00    0.101E+00
DAV:   5    -0.469461979268E+03    0.40152E-02   -0.46061E-02  2088   0.237E+00    0.356E-01
DAV:   6    -0.469462202273E+03   -0.22301E-03   -0.17707E-02  2024   0.601E-01    0.211E-01
DAV:   7    -0.469461869471E+03    0.33280E-03   -0.49387E-03  2000   0.371E-01    0.911E-02
DAV:   8    -0.469461908180E+03   -0.38708E-04   -0.59230E-04  1872   0.802E-02    0.472E-02
DAV:   9    -0.469461932519E+03   -0.24339E-04   -0.19043E-04  1840   0.445E-02    0.262E-02
DAV:  10    -0.469461957896E+03   -0.25377E-04   -0.76250E-05  1152   0.210E-02    0.140E-02
DAV:  11    -0.469461977883E+03   -0.19987E-04   -0.13756E-05   992   0.115E-02    0.586E-03
DAV:  12    -0.469461999455E+03   -0.21572E-04   -0.34336E-06  1008   0.833E-03    0.220E-03
DAV:  13    -0.469462019494E+03   -0.20039E-04   -0.22039E-06   992   0.630E-03    0.143E-03
DAV:  14    -0.469462032265E+03   -0.12771E-04   -0.14869E-06  1008   0.682E-03    0.112E-03
DAV:  15    -0.469462044146E+03   -0.11882E-04   -0.11841E-06  1000   0.501E-03    0.626E-04
DAV:  16    -0.469462053953E+03   -0.98061E-05   -0.14399E-06   992   0.347E-03
   8 F= -.46946205E+03 E0= -.46941889E+03  d E =-.596132E+00
 trial-energy change:   -0.596132  1 .order   -0.595907   -0.848035   -0.343779
 step:   2.4520(harm=  2.4520)  dis= 0.09403  next Energy=  -469.579015 (dE=-0.713E+00)
 bond charge predicted
       N       E                     dE             d eps       ncg     rms          rms(c)
DAV:   1    -0.469479937053E+03   -0.17893E-01   -0.50844E+01  1400   0.179E+01    0.181E+00
DAV:   2    -0.469588196523E+03   -0.10826E+00   -0.13591E+00  2016   0.506E+00    0.143E+00
DAV:   3    -0.469582372485E+03    0.58240E-02   -0.13780E-01  2048   0.318E+00    0.856E-01
DAV:   4    -0.469580212048E+03    0.21604E-02   -0.46811E-02  2136   0.268E+00    0.622E-01
DAV:   5    -0.469578786383E+03    0.14257E-02   -0.17446E-02  2056   0.143E+00    0.225E-01
DAV:   6    -0.469578952035E+03   -0.16565E-03   -0.69667E-03  1996   0.379E-01    0.135E-01
DAV:   7    -0.469578776538E+03    0.17550E-03   -0.20929E-03  1972   0.233E-01    0.558E-02
DAV:   8    -0.469578807333E+03   -0.30794E-04   -0.24275E-04  1856   0.503E-02    0.305E-02
DAV:   9    -0.469578819865E+03   -0.12532E-04   -0.80147E-05  1208   0.251E-02    0.178E-02
DAV:  10    -0.469578835540E+03   -0.15675E-04   -0.35124E-05  1088   0.160E-02    0.839E-03
DAV:  11    -0.469578847143E+03   -0.11603E-04   -0.65447E-06   992   0.925E-03    0.389E-03
DAV:  12    -0.469578859047E+03   -0.11904E-04   -0.21114E-06  1000   0.695E-03    0.144E-03
DAV:  13    -0.469578869123E+03   -0.10076E-04   -0.13356E-06  1008   0.522E-03    0.113E-03
DAV:  14    -0.469578875407E+03   -0.62838E-05   -0.82438E-07   992   0.563E-03
   9 F= -.46957888E+03 E0= -.46953806E+03  d E =-.712953E+00
 curvature:  -2.62 expect dE=-0.950E+00 dE for cont linesearch -0.228E-05
 trial: gam= 0.50968 g(F)=  0.353E+00 g(S)=  0.104E-01 ort =-0.104E-02 (trialstep = 0.166E+01)
 search vector abs. value=  0.685E+00
 bond charge predicted
       N       E                     dE             d eps       ncg     rms          rms(c)
DAV:   1    -0.469863959656E+03   -0.28509E+00   -0.72487E+01  1392   0.216E+01    0.212E+00
DAV:   2    -0.470013387123E+03   -0.14943E+00   -0.20055E+00  1976   0.490E+00    0.177E+00
DAV:   3    -0.469999227686E+03    0.14159E-01   -0.18656E-01  2024   0.279E+00    0.106E+00
DAV:   4    -0.469997437277E+03    0.17904E-02   -0.51274E-02  2016   0.215E+00    0.834E-01
DAV:   5    -0.469994609289E+03    0.28280E-02   -0.29485E-02  2084   0.176E+00    0.349E-01
DAV:   6    -0.469994838907E+03   -0.22962E-03   -0.14168E-02  2048   0.755E-01    0.166E-01
DAV:   7    -0.469994728983E+03    0.10992E-03   -0.36655E-03  1976   0.223E-01    0.823E-02
DAV:   8    -0.469994807388E+03   -0.78405E-04   -0.40099E-04  1896   0.101E-01    0.440E-02
DAV:   9    -0.469994867878E+03   -0.60489E-04   -0.17470E-04  1968   0.862E-02    0.266E-02
DAV:  10    -0.469994922360E+03   -0.54482E-04   -0.54045E-05  1352   0.713E-02    0.104E-02
DAV:  11    -0.469994963681E+03   -0.41321E-04   -0.11448E-05  1032   0.172E-02    0.508E-03
DAV:  12    -0.469995006633E+03   -0.42952E-04   -0.71087E-06  1024   0.104E-02    0.247E-03
DAV:  13    -0.469995040660E+03   -0.34027E-04   -0.54257E-06  1040   0.125E-02    0.227E-03
DAV:  14    -0.469995064258E+03   -0.23598E-04   -0.33886E-06  1024   0.103E-02    0.118E-03
DAV:  15    -0.469995083235E+03   -0.18977E-04   -0.50578E-06  1080   0.650E-03    0.146E-03
DAV:  16    -0.469995089129E+03   -0.58943E-05   -0.19119E-06   992   0.741E-03
  10 F= -.46999509E+03 E0= -.46995281E+03  d E =-.416214E+00
 trial-energy change:   -0.416214  1 .order   -0.417338   -0.600993   -0.233682
 step:   2.7439(harm=  2.7109)  dis= 0.09213  next Energy=  -470.071437 (dE=-0.493E+00)
 bond charge predicted
       N       E                     dE             d eps       ncg     rms          rms(c)
DAV:   1    -0.470019619311E+03   -0.24536E-01   -0.31068E+01  1392   0.141E+01    0.135E+00
DAV:   2    -0.470079399404E+03   -0.59780E-01   -0.80949E-01  1984   0.319E+00    0.113E+00
DAV:   3    -0.470073887944E+03    0.55115E-02   -0.78418E-02  1996   0.191E+00    0.676E-01
DAV:   4    -0.470073216920E+03    0.67102E-03   -0.22507E-02  2056   0.148E+00    0.527E-01
DAV:   5    -0.470072022993E+03    0.11939E-02   -0.11553E-02  2076   0.116E+00    0.217E-01
DAV:   6    -0.470072147983E+03   -0.12499E-03   -0.54055E-03  2032   0.492E-01    0.108E-01
DAV:   7    -0.470072091927E+03    0.56056E-04   -0.14612E-03  1984   0.162E-01    0.515E-02
DAV:   8    -0.470072128622E+03   -0.36696E-04   -0.15832E-04  1864   0.665E-02    0.286E-02
DAV:   9    -0.470072151072E+03   -0.22450E-04   -0.65509E-05  1400   0.573E-02    0.174E-02
DAV:  10    -0.470072180692E+03   -0.29620E-04   -0.20842E-05  1056   0.459E-02    0.575E-03
DAV:  11    -0.470072202499E+03   -0.21807E-04   -0.12197E-05  1056   0.109E-02    0.383E-03
DAV:  12    -0.470072223147E+03   -0.20648E-04   -0.37907E-06   984   0.115E-02    0.199E-03
DAV:  13    -0.470072242453E+03   -0.19306E-04   -0.26266E-06  1016   0.774E-03    0.136E-03
DAV:  14    -0.470072251837E+03   -0.93836E-05   -0.15323E-06   984   0.690E-03
  11 F= -.47007225E+03 E0= -.47002892E+03  d E =-.493376E+00
 curvature:  -2.56 expect dE=-0.752E+00 dE for cont linesearch -0.818E-05
 trial: gam= 0.81871 g(F)=  0.233E+00 g(S)=  0.615E-01 ort = 0.148E-02 (trialstep = 0.170E+01)
 search vector abs. value=  0.756E+00
 bond charge predicted
       N       E                     dE             d eps       ncg     rms          rms(c)
DAV:   1    -0.470305955161E+03   -0.23371E+00   -0.78575E+01  1376   0.223E+01    0.238E+00
DAV:   2    -0.470436231129E+03   -0.13028E+00   -0.18555E+00  2048   0.595E+00    0.135E+00
DAV:   3    -0.470429977375E+03    0.62538E-02   -0.20656E-01  2056   0.390E+00    0.972E-01
DAV:   4    -0.470421968782E+03    0.80086E-02   -0.68202E-02  2024   0.292E+00    0.561E-01
DAV:   5    -0.470420556183E+03    0.14126E-02   -0.15543E-02  1968   0.742E-01    0.197E-01
DAV:   6    -0.470420652039E+03   -0.95857E-04   -0.31554E-03  2072   0.366E-01    0.116E-01
DAV:   7    -0.470420598299E+03    0.53740E-04   -0.15883E-03  2072   0.307E-01    0.683E-02
DAV:   8    -0.470420647628E+03   -0.49330E-04   -0.24964E-04  1944   0.126E-01    0.363E-02
DAV:   9    -0.470420698588E+03   -0.50960E-04   -0.14524E-04  1400   0.367E-02    0.221E-02
DAV:  10    -0.470420733854E+03   -0.35266E-04   -0.60191E-05  1104   0.348E-02    0.638E-03
DAV:  11    -0.470420763880E+03   -0.30026E-04   -0.74904E-06  1032   0.180E-02    0.357E-03
DAV:  12    -0.470420801945E+03   -0.38065E-04   -0.56865E-06  1008   0.933E-03    0.249E-03
DAV:  13    -0.470420832545E+03   -0.30600E-04   -0.38211E-06  1032   0.136E-02    0.173E-03
DAV:  14    -0.470420850918E+03   -0.18373E-04   -0.22308E-06  1032   0.797E-03    0.124E-03
DAV:  15    -0.470420867298E+03   -0.16380E-04   -0.26745E-06   988   0.582E-03    0.109E-03
DAV:  16    -0.470420873136E+03   -0.58374E-05   -0.15815E-06  1040   0.633E-03
  12 F= -.47042087E+03 E0= -.47037808E+03  d E =-.348621E+00
 trial-energy change:   -0.348621  1 .order   -0.347714   -0.501919   -0.193509
 step:   2.7338(harm=  2.7632)  dis= 0.10846  next Energy=  -470.480110 (dE=-0.408E+00)
 bond charge predicted
       N       E                     dE             d eps       ncg     rms          rms(c)
DAV:   1    -0.470436301695E+03   -0.15434E-01   -0.29193E+01  1376   0.136E+01    0.145E+00
DAV:   2    -0.470485042308E+03   -0.48741E-01   -0.69006E-01  2032   0.364E+00    0.822E-01
DAV:   3    -0.470482593913E+03    0.24484E-02   -0.74391E-02  2084   0.234E+00    0.591E-01
DAV:   4    -0.470479704452E+03    0.28895E-02   -0.25039E-02  2032   0.176E+00    0.341E-01
DAV:   5    -0.470479200563E+03    0.50389E-03   -0.57607E-03  1932   0.425E-01    0.120E-01
DAV:   6    -0.470479251862E+03   -0.51299E-04   -0.13034E-03  2032   0.284E-01    0.786E-02
DAV:   7    -0.470479203590E+03    0.48272E-04   -0.66512E-04  2040   0.211E-01    0.417E-02
DAV:   8    -0.470479234306E+03   -0.30716E-04   -0.93203E-05  1576   0.633E-02    0.228E-02
DAV:   9    -0.470479257076E+03   -0.22770E-04   -0.53245E-05  1056   0.182E-02    0.131E-02
DAV:  10    -0.470479273456E+03   -0.16379E-04   -0.23021E-05  1032   0.181E-02    0.403E-03
DAV:  11    -0.470479286291E+03   -0.12835E-04   -0.33127E-06   976   0.125E-02    0.237E-03
DAV:  12    -0.470479302345E+03   -0.16054E-04   -0.22061E-06  1000   0.637E-03    0.150E-03
DAV:  13    -0.470479316193E+03   -0.13849E-04   -0.16960E-06  1008   0.826E-03    0.122E-03
DAV:  14    -0.470479323268E+03   -0.70744E-05   -0.10285E-06  1008   0.590E-03
  13 F= -.47047932E+03 E0= -.47043676E+03  d E =-.407071E+00
 curvature:  -3.53 expect dE=-0.579E+00 dE for cont linesearch -0.131E-04
 trial: gam= 0.54193 g(F)=  0.163E+00 g(S)=  0.681E-03 ort =-0.168E-02 (trialstep = 0.191E+01)
 search vector abs. value=  0.384E+00
 bond charge predicted
       N       E                     dE             d eps       ncg     rms          rms(c)
DAV:   1    -0.470615980519E+03   -0.13666E+00   -0.57384E+01  1376   0.184E+01    0.173E+00
DAV:   2    -0.470697759993E+03   -0.81779E-01   -0.11703E+00  1992   0.372E+00    0.924E-01
DAV:   3    -0.470693883330E+03    0.38767E-02   -0.93084E-02  2028   0.171E+00    0.658E-01
DAV:   4    -0.470691345082E+03    0.25382E-02   -0.43428E-02  2072   0.169E+00    0.433E-01
DAV:   5    -0.470690149289E+03    0.11958E-02   -0.10723E-02  1996   0.703E-01    0.154E-01
DAV:   6    -0.470690383185E+03   -0.23390E-03   -0.17006E-03  1936   0.175E-01    0.845E-02
DAV:   7    -0.470690409100E+03   -0.25915E-04   -0.59600E-04  2020   0.201E-01    0.565E-02
DAV:   8    -0.470690411022E+03   -0.19222E-05   -0.15546E-04  1616   0.118E-01    0.289E-02
DAV:   9    -0.470690439603E+03   -0.28581E-04   -0.33233E-05  1080   0.342E-02    0.996E-03
DAV:  10    -0.470690463680E+03   -0.24077E-04   -0.19792E-05  1048   0.187E-02    0.593E-03
DAV:  11    -0.470690473239E+03   -0.95594E-05   -0.78680E-06   992   0.223E-02
  14 F= -.47069047E+03 E0= -.47064581E+03  d E =-.211150E+00
 trial-energy change:   -0.211150  1 .order   -0.210791   -0.310544   -0.111039
 step:   2.9654(harm=  2.9654)  dis= 0.09723  next Energy=  -470.721015 (dE=-0.242E+00)
 bond charge predicted
       N       E                     dE             d eps       ncg     rms          rms(c)
DAV:   1    -0.470697403803E+03   -0.69401E-02   -0.17718E+01  1376   0.103E+01    0.958E-01
DAV:   2    -0.470723408793E+03   -0.26005E-01   -0.36775E-01  1940   0.208E+00    0.523E-01
DAV:   3    -0.470722392533E+03    0.10163E-02   -0.31858E-02  2024   0.960E-01    0.377E-01
DAV:   4    -0.470721458455E+03    0.93408E-03   -0.14816E-02  2060   0.891E-01    0.240E-01
DAV:   5    -0.470721172569E+03    0.28589E-03   -0.33795E-03  1960   0.352E-01    0.829E-02
DAV:   6    -0.470721255081E+03   -0.82513E-04   -0.49017E-04  1896   0.935E-02    0.439E-02
DAV:   7    -0.470721271688E+03   -0.16607E-04   -0.14222E-04  1876   0.974E-02    0.287E-02
DAV:   8    -0.470721277757E+03   -0.60687E-05   -0.44916E-05  1328   0.702E-02
  15 F= -.47072128E+03 E0= -.47067523E+03  d E =-.241954E+00
 curvature:  -3.49 expect dE=-0.649E+00 dE for cont linesearch -0.273E-05
 trial: gam= 1.08269 g(F)=  0.171E+00 g(S)=  0.145E-01 ort =-0.548E-03 (trialstep = 0.128E+01)
 search vector abs. value=  0.635E+00
 bond charge predicted
       N       E                     dE             d eps       ncg     rms          rms(c)
DAV:   1    -0.470841821987E+03   -0.12055E+00   -0.46732E+01  1376   0.156E+01    0.115E+00
DAV:   2    -0.470918489624E+03   -0.76668E-01   -0.88959E-01  1992   0.322E+00    0.842E-01
DAV:   3    -0.470915209776E+03    0.32798E-02   -0.33693E-02  2192   0.153E+00    0.548E-01
DAV:   4    -0.470915018775E+03    0.19100E-03   -0.18991E-02  2184   0.158E+00    0.456E-01
DAV:   5    -0.470913674430E+03    0.13443E-02   -0.97316E-03  2116   0.116E+00    0.156E-01
DAV:   6    -0.470913816920E+03   -0.14249E-03   -0.22833E-03  1936   0.177E-01    0.761E-02
DAV:   7    -0.470913781844E+03    0.35076E-04   -0.57582E-04  1764   0.559E-02    0.525E-02
DAV:   8    -0.470913791184E+03   -0.93399E-05   -0.12952E-04  1764   0.356E-02    0.214E-02
DAV:   9    -0.470913819298E+03   -0.28114E-04   -0.20936E-05  1016   0.150E-02    0.800E-03
DAV:  10    -0.470913836499E+03   -0.17201E-04   -0.10042E-05  1000   0.114E-02    0.614E-03
DAV:  11    -0.470913846106E+03   -0.96071E-05   -0.39359E-06   956   0.885E-03
  16 F= -.47091385E+03 E0= -.47086732E+03  d E =-.192568E+00
 trial-energy change:   -0.192568  1 .order   -0.192199   -0.237222   -0.147177
 step:   3.3743(harm=  3.3743)  dis= 0.15859  next Energy=  -471.033758 (dE=-0.312E+00)
 bond charge predicted
       N       E                     dE             d eps       ncg     rms          rms(c)
DAV:   1    -0.470815173793E+03    0.98663E-01   -0.12623E+02  1376   0.256E+01    0.191E+00
DAV:   2    -0.471044467691E+03   -0.22929E+00   -0.26423E+00  1984   0.549E+00    0.149E+00
DAV:   3    -0.471035256843E+03    0.92108E-02   -0.10267E-01  2192   0.264E+00    0.951E-01
DAV:   4    -0.471034479093E+03    0.77775E-03   -0.51600E-02  2160   0.256E+00    0.804E-01
DAV:   5    -0.471030355115E+03    0.41240E-02   -0.29825E-02  2128   0.192E+00    0.302E-01
DAV:   6    -0.471030656380E+03   -0.30127E-03   -0.65453E-03  1956   0.334E-01    0.135E-01
DAV:   7    -0.471030610675E+03    0.45706E-04   -0.14222E-03  1704   0.904E-02    0.973E-02
DAV:   8    -0.471030604885E+03    0.57897E-05   -0.36709E-04  1928   0.752E-02    0.455E-02
DAV:   9    -0.471030669103E+03   -0.64218E-04   -0.11466E-04  1672   0.292E-02    0.186E-02
DAV:  10    -0.471030700856E+03   -0.31753E-04   -0.45184E-05  1040   0.162E-02    0.117E-02
DAV:  11    -0.471030730111E+03   -0.29255E-04   -0.11884E-05  1016   0.130E-02    0.517E-03
DAV:  12    -0.471030770649E+03   -0.40538E-04   -0.42164E-06   992   0.895E-03    0.252E-03
DAV:  13    -0.471030803920E+03   -0.33271E-04   -0.30346E-06  1032   0.851E-03    0.193E-03
DAV:  14    -0.471030831418E+03   -0.27498E-04   -0.30793E-06  1016   0.833E-03    0.144E-03
DAV:  15    -0.471030851641E+03   -0.20223E-04   -0.30859E-06  1016   0.673E-03    0.125E-03
DAV:  16    -0.471030860346E+03   -0.87050E-05   -0.22826E-06  1008   0.613E-03
  17 F= -.47103086E+03 E0= -.47098362E+03  d E =-.309583E+00
 curvature:  -5.78 expect dE=-0.112E+01 dE for cont linesearch -0.122E-03
 trial: gam= 0.99678 g(F)=  0.193E+00 g(S)=  0.137E-03 ort =-0.366E-02 (trialstep = 0.132E+01)
 search vector abs. value=  0.816E+00
 bond charge predicted
       N       E                     dE             d eps       ncg     rms          rms(c)
DAV:   1    -0.471126613376E+03   -0.95762E-01   -0.71018E+01  1376   0.181E+01    0.125E+00
DAV:   2    -0.471252388741E+03   -0.12578E+00   -0.14372E+00  1972   0.382E+00    0.109E+00
DAV:   3    -0.471247581741E+03    0.48070E-02   -0.50178E-02  2164   0.168E+00    0.661E-01
DAV:   4    -0.471246994289E+03    0.58745E-03   -0.26183E-02  2124   0.155E+00    0.551E-01
DAV:   5    -0.471244963186E+03    0.20311E-02   -0.19128E-02  2068   0.131E+00    0.209E-01
DAV:   6    -0.471245174069E+03   -0.21088E-03   -0.33993E-03  1932   0.279E-01    0.942E-02
DAV:   7    -0.471245143278E+03    0.30790E-04   -0.41186E-04  1640   0.538E-02    0.620E-02
DAV:   8    -0.471245129951E+03    0.13327E-04   -0.16562E-04  1840   0.542E-02    0.345E-02
DAV:   9    -0.471245147888E+03   -0.17937E-04   -0.82697E-05  1756   0.387E-02    0.113E-02
DAV:  10    -0.471245163679E+03   -0.15791E-04   -0.15214E-05  1064   0.311E-02    0.639E-03
DAV:  11    -0.471245172945E+03   -0.92663E-05   -0.64897E-06  1028   0.153E-02
  18 F= -.47124517E+03 E0= -.47119594E+03  d E =-.214313E+00
 trial-energy change:   -0.214313  1 .order   -0.214238   -0.250137   -0.178339
 step:   4.6042(harm=  4.6042)  dis= 0.26267  next Energy=  -471.466588 (dE=-0.436E+00)
 bond charge predicted
       N       E                     dE             d eps       ncg     rms          rms(c)
DAV:   1    -0.470542786955E+03    0.70238E+00   -0.47130E+02  1408   0.473E+01    0.346E+00
DAV:   2    -0.471505341778E+03   -0.96255E+00   -0.11944E+01  1696   0.965E+00    0.360E+00
DAV:   3    -0.471472758259E+03    0.32584E-01   -0.85839E-01  1684   0.293E+00    0.192E+00
DAV:   4    -0.471458530073E+03    0.14228E-01   -0.18218E-01  1880   0.132E+00    0.147E+00
DAV:   5    -0.471453803342E+03    0.47267E-02   -0.13088E-01  1964   0.116E+00    0.973E-01
DAV:   6    -0.471450696041E+03    0.31073E-02   -0.58108E-02  1920   0.884E-01    0.461E-01
DAV:   7    -0.471450643882E+03    0.52159E-04   -0.98275E-03  1832   0.378E-01    0.238E-01
DAV:   8    -0.471450271037E+03    0.37284E-03   -0.25186E-03  1960   0.191E-01    0.136E-01
DAV:   9    -0.471450363065E+03   -0.92028E-04   -0.89844E-04  1992   0.182E-01    0.719E-02
DAV:  10    -0.471450488706E+03   -0.12564E-03   -0.30559E-04  2088   0.149E-01    0.317E-02
DAV:  11    -0.471450561534E+03   -0.72829E-04   -0.13090E-04  1432   0.980E-02    0.180E-02
DAV:  12    -0.471450636565E+03   -0.75030E-04   -0.27694E-05  1088   0.357E-02    0.742E-03
DAV:  13    -0.471450711355E+03   -0.74790E-04   -0.14702E-05  1048   0.945E-03    0.342E-03
DAV:  14    -0.471450789576E+03   -0.78221E-04   -0.89552E-06  1024   0.811E-03    0.217E-03
DAV:  15    -0.471450837550E+03   -0.47974E-04   -0.56117E-06  1032   0.673E-03    0.253E-03
DAV:  16    -0.471450869074E+03   -0.31524E-04   -0.41936E-06  1008   0.645E-03    0.176E-03
DAV:  17    -0.471450881846E+03   -0.12772E-04   -0.22924E-06  1056   0.513E-03    0.908E-04
DAV:  18    -0.471450887185E+03   -0.53388E-05   -0.10342E-06   976   0.345E-03
  19 F= -.47145089E+03 E0= -.47139865E+03  d E =-.420027E+00
 curvature:  -9.93 expect dE=-0.318E+01 dE for cont linesearch -0.174E-02
 trial: gam= 1.55445 g(F)=  0.317E+00 g(S)=  0.333E-02 ort =-0.120E-01 (trialstep = 0.716E+00)
 search vector abs. value=  0.226E+01
 bond charge predicted
       N       E                     dE             d eps       ncg     rms          rms(c)
DAV:   1    -0.471549070479E+03   -0.98189E-01   -0.59466E+01  1384   0.161E+01    0.115E+00
DAV:   2    -0.471655945760E+03   -0.10688E+00   -0.13884E+00  1876   0.346E+00    0.119E+00
DAV:   3    -0.471641203818E+03    0.14742E-01   -0.12341E-01  1792   0.126E+00    0.572E-01
DAV:   4    -0.471640132716E+03    0.10711E-02   -0.12246E-02  1696   0.330E-01    0.371E-01
DAV:   5    -0.471640247225E+03   -0.11451E-03   -0.96722E-03  1848   0.225E-01    0.189E-01
DAV:   6    -0.471639895027E+03    0.35220E-03   -0.53159E-03  1808   0.165E-01    0.809E-02
DAV:   7    -0.471639969407E+03   -0.74380E-04   -0.69876E-04  1784   0.747E-02    0.351E-02
DAV:   8    -0.471639989612E+03   -0.20206E-04   -0.12896E-04  1768   0.342E-02    0.218E-02
DAV:   9    -0.471640013023E+03   -0.23411E-04   -0.14979E-05  1032   0.163E-02    0.106E-02
DAV:  10    -0.471640040853E+03   -0.27830E-04   -0.11611E-05  1072   0.232E-02    0.529E-03
DAV:  11    -0.471640053075E+03   -0.12222E-04   -0.54062E-06  1000   0.248E-02    0.310E-03
DAV:  12    -0.471640066813E+03   -0.13738E-04   -0.29318E-06   992   0.105E-02    0.158E-03
DAV:  13    -0.471640091112E+03   -0.24299E-04   -0.31510E-06   992   0.582E-03    0.142E-03
DAV:  14    -0.471640104038E+03   -0.12926E-04   -0.20384E-06  1024   0.770E-03    0.117E-03
DAV:  15    -0.471640113915E+03   -0.98771E-05   -0.13647E-06   992   0.497E-03
  20 F= -.47164011E+03 E0= -.47158757E+03  d E =-.189227E+00
 ZBRENT: can't locate minimum, use default step
 trial-energy change:   -0.189227  1 .order   -0.189009   -0.215806   -0.162213
 step:   2.8639(harm=  2.8831)  dis= 0.27260  next Energy=  -471.885384 (dE=-0.434E+00)
 bond charge predicted
       N       E                     dE             d eps       ncg     rms          rms(c)
DAV:   1    -0.470868854800E+03    0.77125E+00   -0.59522E+02  1464   0.524E+01    0.397E+00
DAV:   2    -0.472037473507E+03   -0.11686E+01   -0.15647E+01  1792   0.102E+01    0.405E+00
DAV:   3    -0.471882352383E+03    0.15512E+00   -0.12689E+00  1840   0.392E+00    0.198E+00
DAV:   4    -0.471874017244E+03    0.83351E-02   -0.19652E-01  2000   0.189E+00    0.149E+00
DAV:   5    -0.471868274583E+03    0.57427E-02   -0.11737E-01  2032   0.211E+00    0.102E+00
DAV:   6    -0.471865327830E+03    0.29468E-02   -0.59353E-02  2008   0.151E+00    0.415E-01
DAV:   7    -0.471865238142E+03    0.89688E-04   -0.19044E-02  1944   0.638E-01    0.186E-01
DAV:   8    -0.471865041943E+03    0.19620E-03   -0.49330E-03  1968   0.359E-01    0.114E-01
DAV:   9    -0.471865012833E+03    0.29110E-04   -0.15715E-03  2056   0.245E-01    0.632E-02
DAV:  10    -0.471865155287E+03   -0.14245E-03   -0.31344E-04  1976   0.104E-01    0.271E-02
DAV:  11    -0.471865304892E+03   -0.14961E-03   -0.11116E-04  1560   0.311E-02    0.180E-02
DAV:  12    -0.471865372024E+03   -0.67131E-04   -0.75096E-05  1128   0.184E-02    0.805E-03
DAV:  13    -0.471865465876E+03   -0.93852E-04   -0.15959E-05  1024   0.124E-02    0.372E-03
DAV:  14    -0.471865556466E+03   -0.90590E-04   -0.10559E-05  1080   0.765E-03    0.283E-03
DAV:  15    -0.471865647257E+03   -0.90790E-04   -0.11103E-05  1032   0.102E-02    0.236E-03
DAV:  16    -0.471865705596E+03   -0.58339E-04   -0.95213E-06  1056   0.772E-03    0.191E-03
DAV:  17    -0.471865723675E+03   -0.18080E-04   -0.35878E-06  1088   0.687E-03    0.866E-04
DAV:  18    -0.471865732428E+03   -0.87522E-05   -0.17643E-06   952   0.447E-03
  21 F= -.47186573E+03 E0= -.47181528E+03  d E =-.414845E+00
 curvature: -10.79 expect dE=-0.273E+01 dE for cont linesearch -0.224E-02
 trial: gam= 0.61511 g(F)=  0.251E+00 g(S)=  0.134E-02 ort =-0.216E-01 (trialstep = 0.115E+01)
 search vector abs. value=  0.108E+01
 bond charge predicted
       N       E                     dE             d eps       ncg     rms          rms(c)
DAV:   1    -0.471967835017E+03   -0.10211E+00   -0.70580E+01  1424   0.178E+01    0.126E+00
DAV:   2    -0.472106258952E+03   -0.13842E+00   -0.17182E+00  1928   0.366E+00    0.116E+00
DAV:   3    -0.472089733217E+03    0.16526E-01   -0.20280E-01  1844   0.123E+00    0.613E-01
DAV:   4    -0.472088337545E+03    0.13957E-02   -0.36313E-02  2000   0.701E-01    0.460E-01
DAV:   5    -0.472088111566E+03    0.22598E-03   -0.22976E-02  2064   0.110E+00    0.362E-01
DAV:   6    -0.472087011195E+03    0.11004E-02   -0.95407E-03  2080   0.873E-01    0.965E-02
DAV:   7    -0.472087103412E+03   -0.92217E-04   -0.11362E-03  2024   0.147E-01    0.530E-02
DAV:   8    -0.472087093649E+03    0.97624E-05   -0.32293E-04  1808   0.618E-02    0.330E-02
DAV:   9    -0.472087096095E+03   -0.24457E-05   -0.91795E-05  1528   0.376E-02
  22 F= -.47208710E+03 E0= -.47203749E+03  d E =-.221364E+00
 trial-energy change:   -0.221364  1 .order   -0.221249   -0.274348   -0.168149
 step:   2.9594(harm=  2.9594)  dis= 0.18010  next Energy=  -472.220101 (dE=-0.354E+00)
 bond charge predicted
       N       E                     dE             d eps       ncg     rms          rms(c)
DAV:   1    -0.471932064116E+03    0.15503E+00   -0.18165E+02  1472   0.288E+01    0.205E+00
DAV:   2    -0.472268091445E+03   -0.33603E+00   -0.42479E+00  1872   0.543E+00    0.185E+00
DAV:   3    -0.472227160913E+03    0.40931E-01   -0.60720E-01  1908   0.194E+00    0.102E+00
DAV:   4    -0.472222480606E+03    0.46803E-02   -0.10685E-01  2008   0.152E+00    0.751E-01
DAV:   5    -0.472221181341E+03    0.12993E-02   -0.45978E-02  2080   0.160E+00    0.538E-01
DAV:   6    -0.472219419780E+03    0.17616E-02   -0.20020E-02  2120   0.123E+00    0.169E-01
DAV:   7    -0.472219581635E+03   -0.16185E-03   -0.31313E-03  2048   0.289E-01    0.817E-02
DAV:   8    -0.472219587354E+03   -0.57192E-05   -0.68327E-04  1912   0.991E-02    0.463E-02
DAV:   9    -0.472219607670E+03   -0.20316E-04   -0.21419E-04  1744   0.405E-02    0.224E-02
DAV:  10    -0.472219673170E+03   -0.65500E-04   -0.58398E-05  1336   0.197E-02    0.106E-02
DAV:  11    -0.472219706500E+03   -0.33330E-04   -0.13191E-05  1056   0.118E-02    0.611E-03
DAV:  12    -0.472219746057E+03   -0.39557E-04   -0.41151E-06   992   0.753E-03    0.297E-03
DAV:  13    -0.472219790670E+03   -0.44614E-04   -0.40296E-06  1040   0.598E-03    0.187E-03
DAV:  14    -0.472219824759E+03   -0.34088E-04   -0.30697E-06  1024   0.720E-03    0.133E-03
DAV:  15    -0.472219853362E+03   -0.28604E-04   -0.36774E-06  1024   0.518E-03    0.101E-03
DAV:  16    -0.472219862566E+03   -0.92036E-05   -0.17194E-06  1024   0.526E-03
  23 F= -.47221986E+03 E0= -.47217135E+03  d E =-.354130E+00
 curvature:  -6.67 expect dE=-0.151E+01 dE for cont linesearch -0.264E-07
 trial: gam= 0.78890 g(F)=  0.217E+00 g(S)=  0.103E-01 ort =-0.653E-04 (trialstep = 0.151E+01)
 search vector abs. value=  0.899E+00
 bond charge predicted
       N       E                     dE             d eps       ncg     rms          rms(c)
DAV:   1    -0.472343585838E+03   -0.12373E+00   -0.96944E+01  1408   0.219E+01    0.172E+00
DAV:   2    -0.472529628239E+03   -0.18604E+00   -0.23657E+00  1944   0.498E+00    0.128E+00
DAV:   3    -0.472511753425E+03    0.17875E-01   -0.34563E-01  2064   0.264E+00    0.807E-01
DAV:   4    -0.472505695942E+03    0.60575E-02   -0.83327E-02  1776   0.575E-01    0.542E-01
DAV:   5    -0.472506559221E+03   -0.86328E-03   -0.50071E-02  2088   0.133E+00    0.467E-01
DAV:   6    -0.472504091543E+03    0.24677E-02   -0.19275E-02  2096   0.102E+00    0.125E-01
DAV:   7    -0.472504318708E+03   -0.22716E-03   -0.15847E-03  1860   0.124E-01    0.462E-02
DAV:   8    -0.472504312473E+03    0.62351E-05   -0.21320E-04  1728   0.414E-02    0.290E-02
DAV:   9    -0.472504331318E+03   -0.18845E-04   -0.69116E-05  1228   0.248E-02    0.148E-02
DAV:  10    -0.472504353875E+03   -0.22557E-04   -0.21208E-05   992   0.166E-02    0.723E-03
DAV:  11    -0.472504371983E+03   -0.18107E-04   -0.66863E-06   992   0.115E-02    0.356E-03
DAV:  12    -0.472504391454E+03   -0.19471E-04   -0.34757E-06   968   0.694E-03    0.200E-03
DAV:  13    -0.472504408386E+03   -0.16932E-04   -0.22629E-06   968   0.716E-03    0.144E-03
DAV:  14    -0.472504421130E+03   -0.12744E-04   -0.13363E-06   992   0.549E-03    0.937E-04
DAV:  15    -0.472504432670E+03   -0.11540E-04   -0.16507E-06   992   0.400E-03    0.675E-04
DAV:  16    -0.472504438265E+03   -0.55944E-05   -0.99515E-07   976   0.346E-03
  24 F= -.47250444E+03 E0= -.47245564E+03  d E =-.284576E+00
 trial-energy change:   -0.284576  1 .order   -0.284261   -0.342511   -0.226012
 step:   4.4346(harm=  4.4346)  dis= 0.21389  next Energy=  -472.723359 (dE=-0.503E+00)
 bond charge predicted
       N       E                     dE             d eps       ncg     rms          rms(c)
DAV:   1    -0.472039821560E+03    0.46461E+00   -0.38538E+02  1448   0.448E+01    0.351E+00
DAV:   2    -0.472800069242E+03   -0.76025E+00   -0.94526E+00  1972   0.902E+00    0.238E+00
DAV:   3    -0.472751246490E+03    0.48823E-01   -0.13043E+00  2008   0.361E+00    0.163E+00
DAV:   4    -0.472723671558E+03    0.27575E-01   -0.34943E-01  1860   0.119E+00    0.115E+00
DAV:   5    -0.472724645723E+03   -0.97416E-03   -0.17402E-01  2076   0.239E+00    0.936E-01
DAV:   6    -0.472716378212E+03    0.82675E-02   -0.62770E-02  2088   0.212E+00    0.330E-01
DAV:   7    -0.472716857383E+03   -0.47917E-03   -0.10128E-02  1988   0.484E-01    0.127E-01
DAV:   8    -0.472716742099E+03    0.11528E-03   -0.26745E-03  1856   0.192E-01    0.722E-02
DAV:   9    -0.472716791864E+03   -0.49764E-04   -0.38054E-04  1816   0.655E-02    0.372E-02
DAV:  10    -0.472716866526E+03   -0.74662E-04   -0.98159E-05  1776   0.306E-02    0.164E-02
DAV:  11    -0.472716927909E+03   -0.61383E-04   -0.18526E-05  1008   0.137E-02    0.705E-03
DAV:  12    -0.472716979925E+03   -0.52016E-04   -0.74072E-06  1016   0.923E-03    0.370E-03
DAV:  13    -0.472717029629E+03   -0.49704E-04   -0.37585E-06   992   0.726E-03    0.214E-03
DAV:  14    -0.472717076378E+03   -0.46749E-04   -0.41547E-06  1012   0.639E-03    0.159E-03
DAV:  15    -0.472717109176E+03   -0.32798E-04   -0.36302E-06  1016   0.623E-03    0.128E-03
DAV:  16    -0.472717122979E+03   -0.13803E-04   -0.20321E-06   992   0.515E-03    0.762E-04
DAV:  17    -0.472717129807E+03   -0.68279E-05   -0.14100E-06   968   0.404E-03
  25 F= -.47271713E+03 E0= -.47266785E+03  d E =-.497267E+00
 curvature:  -8.78 expect dE=-0.306E+01 dE for cont linesearch -0.424E-03
 trial: gam= 1.55777 g(F)=  0.346E+00 g(S)=  0.325E-02 ort =-0.659E-02 (trialstep = 0.750E+00)
 search vector abs. value=  0.251E+01
 bond charge predicted
       N       E                     dE             d eps       ncg     rms          rms(c)
DAV:   1    -0.472833770241E+03   -0.11665E+00   -0.62788E+01  1400   0.179E+01    0.139E+00
DAV:   2    -0.472950619779E+03   -0.11685E+00   -0.14558E+00  1972   0.380E+00    0.928E-01
DAV:   3    -0.472944361925E+03    0.62579E-02   -0.14809E-01  2072   0.211E+00    0.667E-01
DAV:   4    -0.472941033115E+03    0.33288E-02   -0.48785E-02  2024   0.740E-01    0.453E-01
DAV:   5    -0.472941480050E+03   -0.44693E-03   -0.28456E-02  1960   0.605E-01    0.388E-01
DAV:   6    -0.472940228521E+03    0.12515E-02   -0.20190E-02  2048   0.854E-01    0.188E-01
DAV:   7    -0.472940126091E+03    0.10243E-03   -0.41823E-03  1980   0.366E-01    0.657E-02
DAV:   8    -0.472940120193E+03    0.58974E-05   -0.62840E-04  1848   0.842E-02    0.380E-02
DAV:   9    -0.472940147791E+03   -0.27597E-04   -0.78313E-05  1612   0.309E-02    0.181E-02
DAV:  10    -0.472940175714E+03   -0.27924E-04   -0.19633E-05   992   0.151E-02    0.718E-03
DAV:  11    -0.472940197943E+03   -0.22228E-04   -0.59212E-06   948   0.129E-02    0.360E-03
DAV:  12    -0.472940218124E+03   -0.20181E-04   -0.29148E-06   960   0.754E-03    0.198E-03
DAV:  13    -0.472940236057E+03   -0.17933E-04   -0.23970E-06   984   0.622E-03    0.121E-03
DAV:  14    -0.472940252728E+03   -0.16672E-04   -0.20610E-06   972   0.469E-03    0.105E-03
DAV:  15    -0.472940260294E+03   -0.75661E-05   -0.12005E-06   976   0.463E-03
  26 F= -.47294026E+03 E0= -.47289110E+03  d E =-.223130E+00
 ZBRENT: can't locate minimum, use default step
 trial-energy change:   -0.223130  1 .order   -0.222893   -0.254057   -0.191730
 step:   2.9993(harm=  3.0564)  dis= 0.22276  next Energy=  -473.234922 (dE=-0.518E+00)
 bond charge predicted
       N       E                     dE             d eps       ncg     rms          rms(c)
DAV:   1    -0.472132209589E+03    0.80804E+00   -0.63013E+02  1484   0.601E+01    0.468E+00
DAV:   2    -0.473247698826E+03   -0.11155E+01   -0.13518E+01  1824   0.100E+01    0.271E+00
DAV:   3    -0.473278966656E+03   -0.31268E-01   -0.16358E+00  1904   0.333E+00    0.227E+00
DAV:   4    -0.473236041246E+03    0.42925E-01   -0.78096E-01  1976   0.250E+00    0.170E+00
DAV:   5    -0.473221415353E+03    0.14626E-01   -0.12389E-01  1980   0.142E+00    0.969E-01
DAV:   6    -0.473223081768E+03   -0.16664E-02   -0.49724E-02  2016   0.166E+00    0.513E-01
DAV:   7    -0.473221120334E+03    0.19614E-02   -0.32791E-02  2040   0.133E+00    0.240E-01
DAV:   8    -0.473220816784E+03    0.30355E-03   -0.43547E-03  2008   0.411E-01    0.132E-01
DAV:   9    -0.473220911011E+03   -0.94227E-04   -0.85116E-04  1664   0.792E-02    0.706E-02
DAV:  10    -0.473221105822E+03   -0.19481E-03   -0.35425E-04  1748   0.571E-02    0.248E-02
DAV:  11    -0.473221185320E+03   -0.79498E-04   -0.57429E-05  1568   0.282E-02    0.122E-02
DAV:  12    -0.473221281607E+03   -0.96286E-04   -0.14185E-05  1000   0.123E-02    0.633E-03
DAV:  13    -0.473221397052E+03   -0.11544E-03   -0.80730E-06  1024   0.901E-03    0.342E-03
DAV:  14    -0.473221488165E+03   -0.91114E-04   -0.75660E-06  1032   0.838E-03    0.254E-03
DAV:  15    -0.473221559036E+03   -0.70871E-04   -0.83459E-06  1020   0.864E-03    0.199E-03
DAV:  16    -0.473221585196E+03   -0.26160E-04   -0.47702E-06  1032   0.731E-03    0.115E-03
DAV:  17    -0.473221592256E+03   -0.70600E-05   -0.25414E-06   988   0.601E-03
  27 F= -.47322159E+03 E0= -.47317334E+03  d E =-.504462E+00
 curvature: -11.31 expect dE=-0.356E+01 dE for cont linesearch -0.222E-03
 trial: gam= 0.77956 g(F)=  0.306E+00 g(S)=  0.869E-02 ort =-0.702E-02 (trialstep = 0.120E+01)
 search vector abs. value=  0.183E+01
 bond charge predicted
       N       E                     dE             d eps       ncg     rms          rms(c)
DAV:   1    -0.473344592122E+03   -0.12301E+00   -0.11343E+02  1432   0.254E+01    0.184E+00
DAV:   2    -0.473524610411E+03   -0.18002E+00   -0.21439E+00  1976   0.437E+00    0.119E+00
DAV:   3    -0.473526607091E+03   -0.19967E-02   -0.37601E-01  1860   0.129E+00    0.111E+00
DAV:   4    -0.473511025721E+03    0.15581E-01   -0.16205E-01  1960   0.110E+00    0.679E-01
DAV:   5    -0.473510432763E+03    0.59296E-03   -0.21508E-02  1984   0.835E-01    0.368E-01
DAV:   6    -0.473510623428E+03   -0.19066E-03   -0.14848E-02  2016   0.985E-01    0.236E-01
DAV:   7    -0.473510091712E+03    0.53172E-03   -0.47303E-03  2040   0.512E-01    0.685E-02
DAV:   8    -0.473510128625E+03   -0.36913E-04   -0.52788E-04  1832   0.635E-02    0.412E-02
DAV:   9    -0.473510140979E+03   -0.12354E-04   -0.93583E-05  1480   0.279E-02    0.193E-02
DAV:  10    -0.473510164720E+03   -0.23741E-04   -0.27799E-05   992   0.174E-02    0.797E-03
DAV:  11    -0.473510180780E+03   -0.16060E-04   -0.69685E-06   988   0.140E-02    0.455E-03
DAV:  12    -0.473510198006E+03   -0.17226E-04   -0.34723E-06   984   0.812E-03    0.186E-03
DAV:  13    -0.473510210322E+03   -0.12316E-04   -0.16709E-06  1000   0.595E-03    0.111E-03
DAV:  14    -0.473510219087E+03   -0.87645E-05   -0.12087E-06   960   0.428E-03
  28 F= -.47351022E+03 E0= -.47346189E+03  d E =-.288627E+00
 trial-energy change:   -0.288627  1 .order   -0.288257   -0.371350   -0.205164
 step:   2.6808(harm=  2.6808)  dis= 0.15156  next Energy=  -473.636492 (dE=-0.415E+00)
 bond charge predicted
       N       E                     dE             d eps       ncg     rms          rms(c)
DAV:   1    -0.473370108195E+03    0.14010E+00   -0.17473E+02  1432   0.317E+01    0.233E+00
DAV:   2    -0.473654258999E+03   -0.28415E+00   -0.33597E+00  1920   0.544E+00    0.144E+00
DAV:   3    -0.473659775110E+03   -0.55161E-02   -0.52825E-01  1872   0.154E+00    0.137E+00
DAV:   4    -0.473637183071E+03    0.22592E-01   -0.25872E-01  1944   0.130E+00    0.874E-01
DAV:   5    -0.473635125922E+03    0.20571E-02   -0.35261E-02  2008   0.979E-01    0.465E-01
DAV:   6    -0.473635639970E+03   -0.51405E-03   -0.22551E-02  2008   0.120E+00    0.305E-01
DAV:   7    -0.473634746457E+03    0.89351E-03   -0.81676E-03  2032   0.654E-01    0.923E-02
DAV:   8    -0.473634794895E+03   -0.48438E-04   -0.82599E-04  1888   0.899E-02    0.564E-02
DAV:   9    -0.473634807780E+03   -0.12885E-04   -0.16596E-04  1672   0.375E-02    0.268E-02
DAV:  10    -0.473634844187E+03   -0.36407E-04   -0.60352E-05  1528   0.231E-02    0.119E-02
DAV:  11    -0.473634864694E+03   -0.20507E-04   -0.79193E-06  1016   0.122E-02    0.612E-03
DAV:  12    -0.473634888956E+03   -0.24262E-04   -0.41561E-06   976   0.898E-03    0.226E-03
DAV:  13    -0.473634906673E+03   -0.17718E-04   -0.19589E-06  1000   0.555E-03    0.147E-03
DAV:  14    -0.473634920233E+03   -0.13560E-04   -0.15807E-06  1000   0.498E-03    0.108E-03
DAV:  15    -0.473634936213E+03   -0.15980E-04   -0.20864E-06  1000   0.453E-03    0.943E-04
DAV:  16    -0.473634941910E+03   -0.56964E-05   -0.10365E-06  1008   0.377E-03
  29 F= -.47363494E+03 E0= -.47358628E+03  d E =-.413350E+00
 curvature:  -7.92 expect dE=-0.195E+01 dE for cont linesearch -0.360E-05
 trial: gam= 0.74970 g(F)=  0.244E+00 g(S)=  0.204E-02 ort =-0.912E-03 (trialstep = 0.150E+01)
 search vector abs. value=  0.127E+01
 bond charge predicted
       N       E                     dE             d eps       ncg     rms          rms(c)
DAV:   1    -0.473707492049E+03   -0.72556E-01   -0.11802E+02  1400   0.267E+01    0.190E+00
DAV:   2    -0.473931458937E+03   -0.22397E+00   -0.27353E+00  1952   0.491E+00    0.144E+00
DAV:   3    -0.473927044098E+03    0.44148E-02   -0.67223E-01  1704   0.128E+00    0.127E+00
DAV:   4    -0.473904983089E+03    0.22061E-01   -0.15263E-01  1968   0.132E+00    0.738E-01
DAV:   5    -0.473905997167E+03   -0.10141E-02   -0.44101E-02  2048   0.139E+00    0.538E-01
DAV:   6    -0.473903756874E+03    0.22403E-02   -0.19802E-02  2008   0.113E+00    0.175E-01
DAV:   7    -0.473903995002E+03   -0.23813E-03   -0.33250E-03  2032   0.226E-01    0.683E-02
DAV:   8    -0.473903993166E+03    0.18366E-05   -0.54404E-04  1648   0.575E-02    0.430E-02
DAV:   9    -0.473904011429E+03   -0.18264E-04   -0.11385E-04  1680   0.342E-02    0.208E-02
DAV:  10    -0.473904047707E+03   -0.36278E-04   -0.23742E-05  1016   0.166E-02    0.878E-03
DAV:  11    -0.473904070112E+03   -0.22405E-04   -0.63270E-06   976   0.120E-02    0.478E-03
DAV:  12    -0.473904093667E+03   -0.23555E-04   -0.35535E-06   944   0.736E-03    0.223E-03
DAV:  13    -0.473904113537E+03   -0.19870E-04   -0.29339E-06  1008   0.723E-03    0.150E-03
DAV:  14    -0.473904128231E+03   -0.14695E-04   -0.18807E-06   976   0.551E-03    0.113E-03
DAV:  15    -0.473904141414E+03   -0.13183E-04   -0.23648E-06   992   0.482E-03    0.876E-04
DAV:  16    -0.473904145891E+03   -0.44771E-05   -0.11906E-06  1000   0.385E-03
  30 F= -.47390415E+03 E0= -.47385410E+03  d E =-.269204E+00
 trial-energy change:   -0.269204  1 .order   -0.269665   -0.367345   -0.171985
 step:   2.8128(harm=  2.8128)  dis= 0.11468  next Energy=  -473.980310 (dE=-0.345E+00)
 bond charge predicted
       N       E                     dE             d eps       ncg     rms          rms(c)
DAV:   1    -0.473815012912E+03    0.89129E-01   -0.90989E+01  1376   0.234E+01    0.168E+00
DAV:   2    -0.474001153733E+03   -0.18614E+00   -0.22281E+00  2016   0.465E+00    0.123E+00
DAV:   3    -0.473995373331E+03    0.57804E-02   -0.39209E-01  1904   0.149E+00    0.105E+00
DAV:   4    -0.473982196161E+03    0.13177E-01   -0.13542E-01  1976   0.897E-01    0.720E-01
DAV:   5    -0.473981886813E+03    0.30935E-03   -0.51671E-02  2064   0.132E+00    0.524E-01
DAV:   6    -0.473979798495E+03    0.20883E-02   -0.15792E-02  2032   0.927E-01    0.151E-01
DAV:   7    -0.473980060929E+03   -0.26243E-03   -0.24324E-03  1792   0.139E-01    0.595E-02
DAV:   8    -0.473980056279E+03    0.46505E-05   -0.36200E-04  1808   0.550E-02    0.375E-02
DAV:   9    -0.473980071287E+03   -0.15008E-04   -0.78911E-05  1376   0.267E-02    0.177E-02
DAV:  10    -0.473980099350E+03   -0.28063E-04   -0.17906E-05   984   0.154E-02    0.718E-03
DAV:  11    -0.473980118732E+03   -0.19381E-04   -0.57127E-06   944   0.130E-02    0.373E-03
DAV:  12    -0.473980140016E+03   -0.21284E-04   -0.36665E-06   976   0.725E-03    0.177E-03
DAV:  13    -0.473980152369E+03   -0.12353E-04   -0.21530E-06   992   0.680E-03    0.115E-03
DAV:  14    -0.473980163869E+03   -0.11500E-04   -0.15242E-06   928   0.432E-03    0.847E-04
DAV:  15    -0.473980172390E+03   -0.85207E-05   -0.15482E-06   976   0.428E-03
  31 F= -.47398017E+03 E0= -.47392928E+03  d E =-.345230E+00
 curvature:  -7.29 expect dE=-0.185E+01 dE for cont linesearch -0.411E-05
 trial: gam= 1.02649 g(F)=  0.253E+00 g(S)=  0.349E-03 ort =-0.847E-03 (trialstep = 0.141E+01)
 search vector abs. value=  0.159E+01
 bond charge predicted
       N       E                     dE             d eps       ncg     rms          rms(c)
DAV:   1    -0.474049387153E+03   -0.69223E-01   -0.12684E+02  1424   0.281E+01    0.190E+00
DAV:   2    -0.474265123144E+03   -0.21574E+00   -0.25443E+00  2024   0.507E+00    0.126E+00
DAV:   3    -0.474262276017E+03    0.28471E-02   -0.24786E-01  1876   0.151E+00    0.104E+00
DAV:   4    -0.474254630648E+03    0.76454E-02   -0.19577E-01  1952   0.685E-01    0.845E-01
DAV:   5    -0.474251798217E+03    0.28324E-02   -0.84150E-02  2048   0.127E+00    0.575E-01
DAV:   6    -0.474249873831E+03    0.19244E-02   -0.24316E-02  2048   0.116E+00    0.217E-01
DAV:   7    -0.474249973451E+03   -0.99620E-04   -0.49798E-03  1960   0.361E-01    0.811E-02
DAV:   8    -0.474249947270E+03    0.26180E-04   -0.12153E-03  1824   0.100E-01    0.453E-02
DAV:   9    -0.474249967415E+03   -0.20145E-04   -0.11331E-04  1728   0.364E-02    0.224E-02
DAV:  10    -0.474249997607E+03   -0.30192E-04   -0.28831E-05  1072   0.192E-02    0.841E-03
DAV:  11    -0.474250018363E+03   -0.20755E-04   -0.85691E-06   976   0.147E-02    0.415E-03
DAV:  12    -0.474250040816E+03   -0.22453E-04   -0.46067E-06   976   0.869E-03    0.213E-03
DAV:  13    -0.474250058846E+03   -0.18030E-04   -0.27809E-06   968   0.820E-03    0.150E-03
DAV:  14    -0.474250072537E+03   -0.13691E-04   -0.23801E-06  1008   0.512E-03    0.101E-03
DAV:  15    -0.474250083030E+03   -0.10492E-04   -0.17727E-06   968   0.453E-03    0.882E-04
DAV:  16    -0.474250087253E+03   -0.42233E-05   -0.97961E-07   992   0.353E-03
  32 F= -.47425009E+03 E0= -.47419762E+03  d E =-.269915E+00
 trial-energy change:   -0.269915  1 .order   -0.270971   -0.354825   -0.187116
 step:   3.1183(harm=  2.9748)  dis= 0.12533  next Energy=  -474.362109 (dE=-0.382E+00)
 bond charge predicted
       N       E                     dE             d eps       ncg     rms          rms(c)
DAV:   1    -0.474055211864E+03    0.19487E+00   -0.19009E+02  1432   0.346E+01    0.236E+00
DAV:   2    -0.474373719274E+03   -0.31851E+00   -0.37485E+00  2032   0.623E+00    0.151E+00
DAV:   3    -0.474364295710E+03    0.94236E-02   -0.24580E-01  1992   0.198E+00    0.114E+00
DAV:   4    -0.474363770244E+03    0.52547E-03   -0.26012E-01  1868   0.776E-01    0.104E+00
DAV:   5    -0.474356701340E+03    0.70689E-02   -0.16663E-01  1992   0.129E+00    0.738E-01
DAV:   6    -0.474353397341E+03    0.33040E-02   -0.43777E-02  2040   0.145E+00    0.299E-01
DAV:   7    -0.474353388115E+03    0.92252E-05   -0.79999E-03  1992   0.493E-01    0.962E-02
DAV:   8    -0.474353362047E+03    0.26068E-04   -0.17215E-03  1832   0.119E-01    0.545E-02
DAV:   9    -0.474353389051E+03   -0.27003E-04   -0.15328E-04  1552   0.358E-02    0.254E-02
DAV:  10    -0.474353432715E+03   -0.43664E-04   -0.46670E-05  1344   0.194E-02    0.957E-03
DAV:  11    -0.474353457949E+03   -0.25234E-04   -0.73406E-06   980   0.114E-02    0.493E-03
DAV:  12    -0.474353487169E+03   -0.29220E-04   -0.39868E-06   976   0.741E-03    0.201E-03
DAV:  13    -0.474353511300E+03   -0.24131E-04   -0.26927E-06  1004   0.633E-03    0.155E-03
DAV:  14    -0.474353527671E+03   -0.16370E-04   -0.19606E-06  1000   0.511E-03    0.987E-04
DAV:  15    -0.474353541456E+03   -0.13785E-04   -0.20833E-06   984   0.433E-03    0.906E-04
DAV:  16    -0.474353546797E+03   -0.53415E-05   -0.10913E-06   992   0.378E-03
  33 F= -.47435355E+03 E0= -.47429938E+03  d E =-.373374E+00
 curvature:  -9.31 expect dE=-0.217E+01 dE for cont linesearch -0.102E-02
 trial: gam= 0.92531 g(F)=  0.225E+00 g(S)=  0.783E-02 ort =-0.132E-01 (trialstep = 0.175E+01)
 search vector abs. value=  0.157E+01
 bond charge predicted
       N       E                     dE             d eps       ncg     rms          rms(c)
DAV:   1    -0.474247982808E+03    0.10556E+00   -0.19521E+02  1408   0.355E+01    0.233E+00
DAV:   2    -0.474637925323E+03   -0.38994E+00   -0.44556E+00  2064   0.670E+00    0.156E+00
DAV:   3    -0.474626987622E+03    0.10938E-01   -0.22739E-01  2064   0.221E+00    0.114E+00
DAV:   4    -0.474626790256E+03    0.19737E-03   -0.18227E-01  1984   0.116E+00    0.966E-01
DAV:   5    -0.474625350969E+03    0.14393E-02   -0.18819E-01  1960   0.973E-01    0.882E-01
DAV:   6    -0.474617871247E+03    0.74797E-02   -0.69414E-02  2000   0.152E+00    0.329E-01
DAV:   7    -0.474618144744E+03   -0.27350E-03   -0.93674E-03  1984   0.528E-01    0.108E-01
DAV:   8    -0.474618123260E+03    0.21484E-04   -0.18879E-03  1888   0.134E-01    0.699E-02
DAV:   9    -0.474618153645E+03   -0.30385E-04   -0.19741E-04  1544   0.387E-02    0.283E-02
DAV:  10    -0.474618204712E+03   -0.51067E-04   -0.55099E-05  1392   0.206E-02    0.964E-03
DAV:  11    -0.474618228908E+03   -0.24196E-04   -0.83209E-06   976   0.113E-02    0.539E-03
DAV:  12    -0.474618256134E+03   -0.27226E-04   -0.38921E-06   968   0.764E-03    0.230E-03
DAV:  13    -0.474618279151E+03   -0.23017E-04   -0.27583E-06   968   0.619E-03    0.156E-03
DAV:  14    -0.474618293178E+03   -0.14027E-04   -0.19754E-06   976   0.526E-03    0.979E-04
DAV:  15    -0.474618306967E+03   -0.13789E-04   -0.26936E-06   992   0.431E-03    0.877E-04
DAV:  16    -0.474618310876E+03   -0.39093E-05   -0.11343E-06   992   0.391E-03
  34 F= -.47461831E+03 E0= -.47456414E+03  d E =-.264764E+00
 trial-energy change:   -0.264764  1 .order   -0.262737   -0.385887   -0.139587
 step:   2.6700(harm=  2.7394)  dis= 0.09432  next Energy=  -474.655388 (dE=-0.302E+00)
 bond charge predicted
       N       E                     dE             d eps       ncg     rms          rms(c)
DAV:   1    -0.474557932793E+03    0.60374E-01   -0.52784E+01  1384   0.181E+01    0.121E+00
DAV:   2    -0.474664036981E+03   -0.10610E+00   -0.12256E+00  2060   0.394E+00    0.925E-01
DAV:   3    -0.474660440672E+03    0.35963E-02   -0.94040E-02  2016   0.195E+00    0.747E-01
DAV:   4    -0.474658936224E+03    0.15044E-02   -0.63469E-02  2016   0.107E+00    0.581E-01
DAV:   5    -0.474657822101E+03    0.11141E-02   -0.48311E-02  1712   0.290E-01    0.393E-01
DAV:   6    -0.474656039860E+03    0.17822E-02   -0.15574E-02  1900   0.461E-01    0.118E-01
DAV:   7    -0.474656328113E+03   -0.28825E-03   -0.17246E-03  1928   0.160E-01    0.502E-02
DAV:   8    -0.474656318650E+03    0.94625E-05   -0.36099E-04  1688   0.448E-02    0.329E-02
DAV:   9    -0.474656329542E+03   -0.10892E-04   -0.47598E-05  1328   0.274E-02    0.142E-02
DAV:  10    -0.474656346313E+03   -0.16771E-04   -0.12730E-05   960   0.162E-02    0.442E-03
DAV:  11    -0.474656356319E+03   -0.10006E-04   -0.59330E-06   968   0.109E-02    0.272E-03
DAV:  12    -0.474656365827E+03   -0.95083E-05   -0.27280E-06   960   0.740E-03
  35 F= -.47465637E+03 E0= -.47460226E+03  d E =-.302819E+00
 curvature:  -9.71 expect dE=-0.172E+01 dE for cont linesearch -0.397E-04
 trial: gam= 0.59299 g(F)=  0.177E+00 g(S)=  0.615E-04 ort = 0.253E-02 (trialstep = 0.193E+01)
 search vector abs. value=  0.733E+00
 bond charge predicted
       N       E                     dE             d eps       ncg     rms          rms(c)
DAV:   1    -0.474666808722E+03   -0.10452E-01   -0.10940E+02  1392   0.268E+01    0.196E+00
DAV:   2    -0.474909974849E+03   -0.24317E+00   -0.30219E+00  2004   0.516E+00    0.162E+00
DAV:   3    -0.474896166719E+03    0.13808E-01   -0.83969E-01  1844   0.143E+00    0.144E+00
DAV:   4    -0.474870831441E+03    0.25335E-01   -0.17953E-01  1964   0.157E+00    0.832E-01
DAV:   5    -0.474869538395E+03    0.12930E-02   -0.56032E-02  2000   0.143E+00    0.592E-01
DAV:   6    -0.474867786114E+03    0.17523E-02   -0.21673E-02  1992   0.104E+00    0.218E-01
DAV:   7    -0.474867796159E+03   -0.10046E-04   -0.79812E-03  2092   0.399E-01    0.976E-02
DAV:   8    -0.474867858985E+03   -0.62826E-04   -0.14728E-03  1832   0.158E-01    0.508E-02
DAV:   9    -0.474867914240E+03   -0.55255E-04   -0.14034E-04  1760   0.396E-02    0.269E-02
DAV:  10    -0.474867982531E+03   -0.68291E-04   -0.32213E-05  1112   0.199E-02    0.860E-03
DAV:  11    -0.474868026027E+03   -0.43495E-04   -0.11548E-05  1000   0.140E-02    0.446E-03
DAV:  12    -0.474868072866E+03   -0.46839E-04   -0.67767E-06  1024   0.953E-03    0.233E-03
DAV:  13    -0.474868113408E+03   -0.40542E-04   -0.62727E-06  1052   0.816E-03    0.182E-03
DAV:  14    -0.474868137662E+03   -0.24254E-04   -0.40975E-06  1008   0.681E-03    0.111E-03
DAV:  15    -0.474868152607E+03   -0.14945E-04   -0.35975E-06  1012   0.531E-03    0.808E-04
DAV:  16    -0.474868158586E+03   -0.59790E-05   -0.17973E-06   984   0.440E-03
  36 F= -.47486816E+03 E0= -.47481566E+03  d E =-.211793E+00
 trial-energy change:   -0.211793  1 .order   -0.210923   -0.344366   -0.077481
 step:   2.4802(harm=  2.4939)  dis= 0.05680  next Energy=  -474.879150 (dE=-0.223E+00)
 bond charge predicted
       N       E                     dE             d eps       ncg     rms          rms(c)
DAV:   1    -0.474864701615E+03    0.34510E-02   -0.86188E+00  1376   0.741E+00    0.546E-01
DAV:   2    -0.474882463029E+03   -0.17761E-01   -0.22580E-01  1992   0.169E+00    0.450E-01
DAV:   3    -0.474880617075E+03    0.18460E-02   -0.46934E-02  1896   0.554E-01    0.349E-01
DAV:   4    -0.474879736664E+03    0.88041E-03   -0.19211E-02  1944   0.380E-01    0.277E-01
DAV:   5    -0.474879320647E+03    0.41602E-03   -0.73780E-03  1984   0.465E-01    0.168E-01
DAV:   6    -0.474879262656E+03    0.57991E-04   -0.17579E-03  1956   0.258E-01    0.578E-02
DAV:   7    -0.474879256782E+03    0.58742E-05   -0.56496E-04  1876   0.846E-02    0.232E-02
DAV:   8    -0.474879263998E+03   -0.72160E-05   -0.68079E-05  1312   0.333E-02
  37 F= -.47487926E+03 E0= -.47482742E+03  d E =-.222898E+00
 curvature:  -5.12 expect dE=-0.683E+00 dE for cont linesearch -0.135E-05
 trial: gam= 0.75453 g(F)=  0.132E+00 g(S)=  0.129E-02 ort = 0.440E-03 (trialstep = 0.204E+01)
 search vector abs. value=  0.551E+00
 bond charge predicted
       N       E                     dE             d eps       ncg     rms          rms(c)
DAV:   1    -0.474889497176E+03   -0.10240E-01   -0.89367E+01  1392   0.242E+01    0.190E+00
DAV:   2    -0.475105613849E+03   -0.21612E+00   -0.25648E+00  2028   0.643E+00    0.173E+00
DAV:   3    -0.475096170707E+03    0.94431E-02   -0.59666E-01  2016   0.368E+00    0.139E+00
DAV:   4    -0.475074898510E+03    0.21272E-01   -0.27706E-01  1948   0.114E+00    0.740E-01
DAV:   5    -0.475074401514E+03    0.49700E-03   -0.57781E-02  1944   0.671E-01    0.486E-01
DAV:   6    -0.475073107846E+03    0.12937E-02   -0.24774E-02  1944   0.843E-01    0.216E-01
DAV:   7    -0.475073102110E+03    0.57357E-05   -0.43750E-03  1952   0.351E-01    0.658E-02
DAV:   8    -0.475073154655E+03   -0.52545E-04   -0.73946E-04  1576   0.641E-02    0.427E-02
DAV:   9    -0.475073205316E+03   -0.50660E-04   -0.73687E-05  1504   0.256E-02    0.181E-02
DAV:  10    -0.475073258991E+03   -0.53675E-04   -0.17043E-05  1040   0.125E-02    0.570E-03
DAV:  11    -0.475073289365E+03   -0.30374E-04   -0.51361E-06   984   0.965E-03    0.326E-03
DAV:  12    -0.475073326300E+03   -0.36936E-04   -0.53649E-06   984   0.588E-03    0.182E-03
DAV:  13    -0.475073353431E+03   -0.27131E-04   -0.32526E-06  1008   0.629E-03    0.121E-03
DAV:  14    -0.475073372332E+03   -0.18901E-04   -0.29827E-06   976   0.459E-03    0.942E-04
DAV:  15    -0.475073381225E+03   -0.88930E-05   -0.20188E-06   984   0.484E-03
  38 F= -.47507338E+03 E0= -.47502247E+03  d E =-.194117E+00
 trial-energy change:   -0.194117  1 .order   -0.194036   -0.272731   -0.115340
 step:   3.5389(harm=  3.5389)  dis= 0.08198  next Energy=  -475.115561 (dE=-0.236E+00)
 bond charge predicted
       N       E                     dE             d eps       ncg     rms          rms(c)
DAV:   1    -0.475022676765E+03    0.50696E-01   -0.47689E+01  1408   0.176E+01    0.138E+00
DAV:   2    -0.475134478841E+03   -0.11180E+00   -0.13410E+00  2012   0.487E+00    0.135E+00
DAV:   3    -0.475126616010E+03    0.78628E-02   -0.33971E-01  2032   0.282E+00    0.100E+00
DAV:   4    -0.475115809532E+03    0.10806E-01   -0.14876E-01  1948   0.766E-01    0.538E-01
DAV:   5    -0.475115452657E+03    0.35687E-03   -0.32410E-02  1952   0.535E-01    0.349E-01
DAV:   6    -0.475114859860E+03    0.59280E-03   -0.11716E-02  1952   0.567E-01    0.137E-01
DAV:   7    -0.475114912771E+03   -0.52911E-04   -0.18183E-03  1960   0.211E-01    0.457E-02
DAV:   8    -0.475114940414E+03   -0.27643E-04   -0.30915E-04  1632   0.431E-02    0.298E-02
DAV:   9    -0.475114966594E+03   -0.26180E-04   -0.32125E-05  1128   0.179E-02    0.122E-02
DAV:  10    -0.475114994568E+03   -0.27974E-04   -0.89279E-06   968   0.112E-02    0.362E-03
DAV:  11    -0.475115011746E+03   -0.17178E-04   -0.33177E-06   980   0.813E-03    0.214E-03
DAV:  12    -0.475115033693E+03   -0.21947E-04   -0.32187E-06   976   0.558E-03    0.131E-03
DAV:  13    -0.475115046000E+03   -0.12307E-04   -0.17712E-06   976   0.537E-03    0.871E-04
DAV:  14    -0.475115056032E+03   -0.10031E-04   -0.16402E-06   948   0.400E-03    0.774E-04
DAV:  15    -0.475115065245E+03   -0.92131E-05   -0.13043E-06   984   0.395E-03
  39 F= -.47511507E+03 E0= -.47506512E+03  d E =-.235801E+00
 curvature:  -7.30 expect dE=-0.105E+01 dE for cont linesearch -0.122E-04
 trial: gam= 1.09861 g(F)=  0.141E+00 g(S)=  0.256E-02 ort =-0.958E-03 (trialstep = 0.160E+01)
 search vector abs. value=  0.807E+00
 bond charge predicted
       N       E                     dE             d eps       ncg     rms          rms(c)
DAV:   1    -0.475138862906E+03   -0.23807E-01   -0.80311E+01  1408   0.228E+01    0.184E+00
DAV:   2    -0.475308052848E+03   -0.16919E+00   -0.21707E+00  2000   0.579E+00    0.128E+00
DAV:   3    -0.475293706315E+03    0.14347E-01   -0.23232E-01  2064   0.308E+00    0.877E-01
DAV:   4    -0.475287870058E+03    0.58363E-02   -0.43315E-02  2048   0.133E+00    0.540E-01
DAV:   5    -0.475292804366E+03   -0.49343E-02   -0.64846E-02  2056   0.923E-01    0.642E-01
DAV:   6    -0.475287426108E+03    0.53783E-02   -0.71202E-02  2004   0.625E-01    0.214E-01
DAV:   7    -0.475287872744E+03   -0.44664E-03   -0.53369E-03  1752   0.148E-01    0.596E-02
DAV:   8    -0.475287925655E+03   -0.52911E-04   -0.35497E-04  1776   0.523E-02    0.355E-02
DAV:   9    -0.475287975214E+03   -0.49559E-04   -0.57312E-05  1416   0.226E-02    0.127E-02
DAV:  10    -0.475288012831E+03   -0.37617E-04   -0.10229E-05  1008   0.108E-02    0.448E-03
DAV:  11    -0.475288038197E+03   -0.25366E-04   -0.36596E-06   936   0.813E-03    0.258E-03
DAV:  12    -0.475288078360E+03   -0.40163E-04   -0.60327E-06  1052   0.615E-03    0.212E-03
DAV:  13    -0.475288096876E+03   -0.18516E-04   -0.24657E-06   968   0.653E-03    0.976E-04
DAV:  14    -0.475288112260E+03   -0.15384E-04   -0.35815E-06  1012   0.394E-03    0.570E-04
DAV:  15    -0.475288117631E+03   -0.53713E-05   -0.13375E-06   984   0.405E-03
  40 F= -.47528812E+03 E0= -.47523987E+03  d E =-.173052E+00
 trial-energy change:   -0.173052  1 .order   -0.172738   -0.228405   -0.117070
 step:   3.2807(harm=  3.2807)  dis= 0.10797  next Energy=  -475.349353 (dE=-0.234E+00)
 bond charge predicted
       N       E                     dE             d eps       ncg     rms          rms(c)
DAV:   1    -0.475180327780E+03    0.10778E+00   -0.88868E+01  1384   0.240E+01    0.194E+00
DAV:   2    -0.475369452752E+03   -0.18912E+00   -0.24074E+00  1996   0.609E+00    0.132E+00
DAV:   3    -0.475355861530E+03    0.13591E-01   -0.23536E-01  2068   0.330E+00    0.973E-01
DAV:   4    -0.475351545891E+03    0.43156E-02   -0.76846E-02  2064   0.166E+00    0.722E-01
DAV:   5    -0.475354167808E+03   -0.26219E-02   -0.12911E-01  2080   0.915E-01    0.682E-01
DAV:   6    -0.475348132084E+03    0.60357E-02   -0.64319E-02  1804   0.364E-01    0.167E-01
DAV:   7    -0.475348969915E+03   -0.83783E-03   -0.23216E-03  1656   0.123E-01    0.594E-02
DAV:   8    -0.475349026653E+03   -0.56739E-04   -0.22850E-04  1896   0.594E-02    0.330E-02
DAV:   9    -0.475349083844E+03   -0.57191E-04   -0.37791E-05  1184   0.210E-02    0.109E-02
DAV:  10    -0.475349120319E+03   -0.36475E-04   -0.94350E-06   992   0.109E-02    0.455E-03
DAV:  11    -0.475349157065E+03   -0.36747E-04   -0.50664E-06   976   0.738E-03    0.251E-03
DAV:  12    -0.475349194039E+03   -0.36974E-04   -0.58981E-06  1036   0.615E-03    0.151E-03
DAV:  13    -0.475349213542E+03   -0.19502E-04   -0.29817E-06   984   0.526E-03    0.904E-04
DAV:  14    -0.475349228076E+03   -0.14534E-04   -0.32953E-06   988   0.407E-03    0.511E-04
DAV:  15    -0.475349233189E+03   -0.51125E-05   -0.14730E-06   992   0.424E-03
  41 F= -.47534923E+03 E0= -.47530288E+03  d E =-.234168E+00
 curvature:  -9.26 expect dE=-0.122E+01 dE for cont linesearch -0.219E-05
 trial: gam= 0.86731 g(F)=  0.130E+00 g(S)=  0.218E-02 ort =-0.437E-03 (trialstep = 0.194E+01)
 search vector abs. value=  0.738E+00
 bond charge predicted
       N       E                     dE             d eps       ncg     rms          rms(c)
DAV:   1    -0.475312055969E+03    0.37172E-01   -0.10757E+02  1376   0.264E+01    0.212E+00
DAV:   2    -0.475550644687E+03   -0.23859E+00   -0.29102E+00  1980   0.683E+00    0.158E+00
DAV:   3    -0.475543505528E+03    0.71392E-02   -0.36961E-01  2112   0.418E+00    0.150E+00
DAV:   4    -0.475530507761E+03    0.12998E-01   -0.30670E-01  2032   0.188E+00    0.942E-01
DAV:   5    -0.475525099881E+03    0.54079E-02   -0.10380E-01  1656   0.451E-01    0.505E-01
DAV:   6    -0.475523829310E+03    0.12706E-02   -0.25322E-02  1896   0.650E-01    0.176E-01
DAV:   7    -0.475524178533E+03   -0.34922E-03   -0.27968E-03  1904   0.221E-01    0.676E-02
DAV:   8    -0.475524234942E+03   -0.56409E-04   -0.26854E-04  1824   0.599E-02    0.342E-02
DAV:   9    -0.475524305201E+03   -0.70259E-04   -0.53129E-05  1312   0.217E-02    0.109E-02
DAV:  10    -0.475524344021E+03   -0.38820E-04   -0.10982E-05   960   0.117E-02    0.546E-03
DAV:  11    -0.475524386182E+03   -0.42161E-04   -0.62840E-06  1000   0.803E-03    0.304E-03
DAV:  12    -0.475524429376E+03   -0.43194E-04   -0.52353E-06   996   0.729E-03    0.152E-03
DAV:  13    -0.475524456008E+03   -0.26631E-04   -0.37830E-06   976   0.589E-03    0.135E-03
DAV:  14    -0.475524476749E+03   -0.20741E-04   -0.42989E-06  1004   0.568E-03    0.897E-04
DAV:  15    -0.475524483140E+03   -0.63911E-05   -0.21199E-06   984   0.496E-03
  42 F= -.47552448E+03 E0= -.47547883E+03  d E =-.175250E+00
 trial-energy change:   -0.175250  1 .order   -0.175042   -0.254252   -0.095832
 step:   3.1062(harm=  3.1062)  dis= 0.10923  next Energy=  -475.553261 (dE=-0.204E+00)
 bond charge predicted
       N       E                     dE             d eps       ncg     rms          rms(c)
DAV:   1    -0.475484259471E+03    0.40217E-01   -0.38949E+01  1376   0.157E+01    0.125E+00
DAV:   2    -0.475562330416E+03   -0.78071E-01   -0.97148E-01  1968   0.401E+00    0.969E-01
DAV:   3    -0.475560313403E+03    0.20170E-02   -0.14575E-01  2096   0.245E+00    0.928E-01
DAV:   4    -0.475554683772E+03    0.56296E-02   -0.11419E-01  1972   0.114E+00    0.561E-01
DAV:   5    -0.475552736063E+03    0.19477E-02   -0.36583E-02  1644   0.278E-01    0.287E-01
DAV:   6    -0.475552535195E+03    0.20087E-03   -0.72914E-03  1840   0.336E-01    0.933E-02
DAV:   7    -0.475552677171E+03   -0.14198E-03   -0.77771E-04  1856   0.111E-01    0.387E-02
DAV:   8    -0.475552702124E+03   -0.24954E-04   -0.82103E-05  1672   0.291E-02    0.201E-02
DAV:   9    -0.475552733134E+03   -0.31010E-04   -0.15675E-05   968   0.122E-02    0.623E-03
DAV:  10    -0.475552752667E+03   -0.19533E-04   -0.45573E-06   968   0.779E-03    0.305E-03
DAV:  11    -0.475552773591E+03   -0.20924E-04   -0.25685E-06   936   0.511E-03    0.159E-03
DAV:  12    -0.475552795382E+03   -0.21791E-04   -0.29235E-06  1012   0.463E-03    0.975E-04
DAV:  13    -0.475552805918E+03   -0.10536E-04   -0.15873E-06   984   0.391E-03    0.619E-04
DAV:  14    -0.475552815210E+03   -0.92917E-05   -0.17523E-06   940   0.319E-03
  43 F= -.47555282E+03 E0= -.47550733E+03  d E =-.203582E+00
 curvature:  -8.72 expect dE=-0.113E+01 dE for cont linesearch -0.139E-04
 trial: gam= 0.97953 g(F)=  0.128E+00 g(S)=  0.120E-02 ort =-0.109E-02 (trialstep = 0.192E+01)
 search vector abs. value=  0.835E+00
 bond charge predicted
       N       E                     dE             d eps       ncg     rms          rms(c)
DAV:   1    -0.475481033563E+03    0.71772E-01   -0.12369E+02  1384   0.282E+01    0.210E+00
DAV:   2    -0.475735128142E+03   -0.25409E+00   -0.30393E+00  2004   0.646E+00    0.144E+00
DAV:   3    -0.475728986861E+03    0.61413E-02   -0.26861E-01  2088   0.337E+00    0.141E+00
DAV:   4    -0.475722504060E+03    0.64828E-02   -0.26045E-01  2008   0.197E+00    0.105E+00
DAV:   5    -0.475715065599E+03    0.74385E-02   -0.10545E-01  1852   0.595E-01    0.520E-01
DAV:   6    -0.475713559743E+03    0.15059E-02   -0.27616E-02  1800   0.606E-01    0.184E-01
DAV:   7    -0.475714051342E+03   -0.49160E-03   -0.34736E-03  1808   0.168E-01    0.749E-02
DAV:   8    -0.475714112875E+03   -0.61533E-04   -0.35588E-04  1848   0.796E-02    0.391E-02
DAV:   9    -0.475714195852E+03   -0.82977E-04   -0.70580E-05  1416   0.308E-02    0.121E-02
DAV:  10    -0.475714240958E+03   -0.45106E-04   -0.14137E-05  1008   0.129E-02    0.670E-03
DAV:  11    -0.475714289229E+03   -0.48271E-04   -0.81840E-06  1016   0.952E-03    0.384E-03
DAV:  12    -0.475714335291E+03   -0.46061E-04   -0.52933E-06   992   0.833E-03    0.175E-03
DAV:  13    -0.475714367884E+03   -0.32594E-04   -0.58398E-06  1032   0.655E-03    0.161E-03
DAV:  14    -0.475714394522E+03   -0.26638E-04   -0.49868E-06   996   0.590E-03    0.835E-04
DAV:  15    -0.475714403403E+03   -0.88801E-05   -0.28021E-06   992   0.519E-03
  44 F= -.47571440E+03 E0= -.47567031E+03  d E =-.161588E+00
 trial-energy change:   -0.161588  1 .order   -0.161491   -0.246347   -0.076635
 step:   2.7814(harm=  2.7814)  dis= 0.11046  next Energy=  -475.731609 (dE=-0.179E+00)
 bond charge predicted
       N       E                     dE             d eps       ncg     rms          rms(c)
DAV:   1    -0.475689083872E+03    0.25311E-01   -0.24785E+01  1376   0.125E+01    0.914E-01
DAV:   2    -0.475736008412E+03   -0.46925E-01   -0.57817E-01  1980   0.286E+00    0.683E-01
DAV:   3    -0.475734259270E+03    0.17491E-02   -0.60738E-02  2132   0.158E+00    0.624E-01
DAV:   4    -0.475732936954E+03    0.13223E-02   -0.50802E-02  2012   0.916E-01    0.483E-01
DAV:   5    -0.475731241041E+03    0.16959E-02   -0.22551E-02  1848   0.286E-01    0.221E-01
DAV:   6    -0.475731222125E+03    0.18917E-04   -0.41806E-03  1768   0.211E-01    0.686E-02
DAV:   7    -0.475731326967E+03   -0.10484E-03   -0.46479E-04  1768   0.637E-02    0.310E-02
DAV:   8    -0.475731340755E+03   -0.13789E-04   -0.45186E-05  1328   0.232E-02    0.161E-02
DAV:   9    -0.475731361479E+03   -0.20723E-04   -0.11085E-05   952   0.134E-02    0.476E-03
DAV:  10    -0.475731374631E+03   -0.13152E-04   -0.45110E-06   960   0.878E-03    0.303E-03
[...]
 bond charge predicted
       N       E                     dE             d eps       ncg     rms          rms(c)
DAV:   1    -0.479084727413E+03    0.50227E-01   -0.73197E+01  1408   0.226E+01    0.182E+00
DAV:   2    -0.479192095845E+03   -0.10737E+00   -0.13666E+00  1716   0.330E+00    0.991E-01
DAV:   3    -0.479187286179E+03    0.48097E-02   -0.52474E-02  1940   0.814E-01    0.700E-01
DAV:   4    -0.479187787469E+03   -0.50129E-03   -0.15310E-02  1848   0.551E-01    0.396E-01
DAV:   5    -0.479188645170E+03   -0.85770E-03   -0.14536E-02  1992   0.638E-01    0.264E-01
DAV:   6    -0.479188320280E+03    0.32489E-03   -0.47636E-03  1968   0.353E-01    0.600E-02
DAV:   7    -0.479188384542E+03   -0.64262E-04   -0.33343E-04  1864   0.551E-02    0.325E-02
DAV:   8    -0.479188426324E+03   -0.41781E-04   -0.40154E-05  1376   0.239E-02    0.947E-03
DAV:   9    -0.479188449461E+03   -0.23138E-04   -0.94886E-06   968   0.149E-02    0.458E-03
DAV:  10    -0.479188475515E+03   -0.26054E-04   -0.43039E-06   904   0.929E-03    0.222E-03
DAV:  11    -0.479188497665E+03   -0.22150E-04   -0.34440E-06   952   0.699E-03    0.142E-03
DAV:  12    -0.479188509403E+03   -0.11737E-04   -0.21895E-06   944   0.605E-03    0.111E-03
DAV:  13    -0.479188518946E+03   -0.95434E-05   -0.21004E-06   912   0.430E-03
 106 F= -.47918852E+03 E0= -.47918852E+03  d E =-.535562E-01
 trial-energy change:   -0.053556  1 .order   -0.053578   -0.075318   -0.031838
 step:   2.9673(harm=  2.9673)  dis= 0.07894  next Energy=  -479.200197 (dE=-0.652E-01)
 bond charge predicted
       N       E                     dE             d eps       ncg     rms          rms(c)
DAV:   1    -0.479145355057E+03    0.43154E-01   -0.39248E+01  1408   0.165E+01    0.127E+00
DAV:   2    -0.479201501521E+03   -0.56146E-01   -0.72187E-01  1676   0.240E+00    0.718E-01
DAV:   3    -0.479199165114E+03    0.23364E-02   -0.27414E-02  1852   0.557E-01    0.490E-01
DAV:   4    -0.479199468712E+03   -0.30360E-03   -0.59811E-03  1732   0.240E-01    0.227E-01
DAV:   5    -0.479200176903E+03   -0.70819E-03   -0.15631E-03  1832   0.189E-01    0.876E-02
DAV:   6    -0.479200217541E+03   -0.40637E-04   -0.11740E-03  1960   0.176E-01    0.590E-02
DAV:   7    -0.479200192497E+03    0.25044E-04   -0.21272E-04  1304   0.785E-02    0.249E-02
DAV:   8    -0.479200218215E+03   -0.25718E-04   -0.28373E-05  1176   0.165E-02    0.649E-03
DAV:   9    -0.479200232197E+03   -0.13981E-04   -0.62196E-06   968   0.111E-02    0.339E-03
DAV:  10    -0.479200246571E+03   -0.14374E-04   -0.26005E-06   896   0.815E-03    0.170E-03
DAV:  11    -0.479200259233E+03   -0.12663E-04   -0.21007E-06   928   0.585E-03    0.107E-03
DAV:  12    -0.479200266448E+03   -0.72145E-05   -0.14191E-06   936   0.490E-03
 107 F= -.47920027E+03 E0= -.47920027E+03  d E =-.653037E-01
 curvature: -23.65 expect dE=-0.115E+01 dE for cont linesearch -0.807E-07
 trial: gam= 1.13271 g(F)=  0.485E-01 g(S)=  0.159E-03 ort = 0.489E-04 (trialstep = 0.145E+01)
 search vector abs. value=  0.948E+00
 bond charge predicted
       N       E                     dE             d eps       ncg     rms          rms(c)
DAV:   1    -0.479156607466E+03    0.43652E-01   -0.71764E+01  1408   0.224E+01    0.172E+00
DAV:   2    -0.479262195367E+03   -0.10559E+00   -0.13270E+00  1768   0.334E+00    0.965E-01
DAV:   3    -0.479257427576E+03    0.47678E-02   -0.51011E-02  1928   0.935E-01    0.685E-01
DAV:   4    -0.479259081147E+03   -0.16536E-02   -0.28274E-02  1968   0.852E-01    0.509E-01
DAV:   5    -0.479257892310E+03    0.11888E-02   -0.17464E-02  1972   0.730E-01    0.205E-01
DAV:   6    -0.479258400257E+03   -0.50795E-03   -0.20514E-03  1904   0.204E-01    0.499E-02
DAV:   7    -0.479258442555E+03   -0.42298E-04   -0.24802E-04  1680   0.417E-02    0.257E-02
DAV:   8    -0.479258472221E+03   -0.29666E-04   -0.24516E-05  1104   0.188E-02    0.806E-03
DAV:   9    -0.479258488051E+03   -0.15830E-04   -0.74550E-06   944   0.124E-02    0.410E-03
DAV:  10    -0.479258505366E+03   -0.17315E-04   -0.39400E-06   936   0.865E-03    0.192E-03
DAV:  11    -0.479258515789E+03   -0.10423E-04   -0.22676E-06   936   0.659E-03    0.109E-03
DAV:  12    -0.479258522302E+03   -0.65132E-05   -0.14618E-06   944   0.420E-03
 108 F= -.47925852E+03 E0= -.47925852E+03  d E =-.582559E-01
 trial-energy change:   -0.058256  1 .order   -0.058199   -0.070776   -0.045622
 step:   4.0851(harm=  4.0851)  dis= 0.11269  next Energy=  -479.299839 (dE=-0.996E-01)
 bond charge predicted
       N       E                     dE             d eps       ncg     rms          rms(c)
DAV:   1    -0.478937887130E+03    0.32063E+00   -0.23512E+02  1424   0.406E+01    0.375E+00
DAV:   2    -0.479325033826E+03   -0.38715E+00   -0.48097E+00  1812   0.694E+00    0.193E+00
DAV:   3    -0.479305021639E+03    0.20012E-01   -0.26716E-01  1960   0.272E+00    0.153E+00
DAV:   4    -0.479302478199E+03    0.25434E-02   -0.12332E-01  1960   0.184E+00    0.117E+00
DAV:   5    -0.479297194616E+03    0.52836E-02   -0.37232E-02  1980   0.112E+00    0.436E-01
DAV:   6    -0.479299493487E+03   -0.22989E-02   -0.75251E-03  1800   0.232E-01    0.118E-01
DAV:   7    -0.479299611654E+03   -0.11817E-03   -0.11003E-03  1904   0.135E-01    0.569E-02
DAV:   8    -0.479299691665E+03   -0.80011E-04   -0.16300E-04  1816   0.585E-02    0.216E-02
DAV:   9    -0.479299729672E+03   -0.38007E-04   -0.19202E-05  1040   0.208E-02    0.107E-02
DAV:  10    -0.479299768868E+03   -0.39196E-04   -0.76946E-06   936   0.139E-02    0.406E-03
DAV:  11    -0.479299805789E+03   -0.36921E-04   -0.70208E-06   944   0.915E-03    0.222E-03
DAV:  12    -0.479299827254E+03   -0.21465E-04   -0.41388E-06   968   0.850E-03    0.173E-03
DAV:  13    -0.479299845969E+03   -0.18715E-04   -0.39395E-06   928   0.543E-03    0.102E-03
DAV:  14    -0.479299853583E+03   -0.76139E-05   -0.24557E-06   992   0.535E-03
 109 F= -.47929985E+03 E0= -.47929985E+03  d E =-.995871E-01
 curvature: -39.72 expect dE=-0.250E+01 dE for cont linesearch -0.950E-07
 trial: gam= 1.25648 g(F)=  0.621E-01 g(S)=  0.740E-03 ort =-0.476E-04 (trialstep = 0.120E+01)
 search vector abs. value=  0.156E+01
 bond charge predicted
       N       E                     dE             d eps       ncg     rms          rms(c)
DAV:   1    -0.479241457374E+03    0.58389E-01   -0.80481E+01  1408   0.238E+01    0.187E+00
DAV:   2    -0.479364081300E+03   -0.12262E+00   -0.15397E+00  1832   0.387E+00    0.107E+00
DAV:   3    -0.479358359148E+03    0.57222E-02   -0.79579E-02  1932   0.143E+00    0.798E-01
DAV:   4    -0.479358303555E+03    0.55592E-04   -0.40139E-02  1960   0.108E+00    0.592E-01
DAV:   5    -0.479357064091E+03    0.12395E-02   -0.14097E-02  1980   0.693E-01    0.209E-01
DAV:   6    -0.479357954594E+03   -0.89050E-03   -0.21556E-03  1912   0.147E-01    0.612E-02
DAV:   7    -0.479357998352E+03   -0.43758E-04   -0.28485E-04  1832   0.591E-02    0.300E-02
DAV:   8    -0.479358039471E+03   -0.41119E-04   -0.34470E-05  1224   0.264E-02    0.114E-02
DAV:   9    -0.479358064994E+03   -0.25523E-04   -0.88399E-06   960   0.141E-02    0.563E-03
DAV:  10    -0.479358096846E+03   -0.31853E-04   -0.60724E-06   888   0.107E-02    0.239E-03
DAV:  11    -0.479358116797E+03   -0.19951E-04   -0.40662E-06   984   0.825E-03    0.160E-03
DAV:  12    -0.479358130426E+03   -0.13629E-04   -0.27869E-06   912   0.562E-03    0.115E-03
DAV:  13    -0.479358141638E+03   -0.11212E-04   -0.25534E-06   928   0.529E-03    0.858E-04
DAV:  14    -0.479358144494E+03   -0.28563E-05   -0.13623E-06   968   0.399E-03
 110 F= -.47935814E+03 E0= -.47935814E+03  d E =-.582909E-01
 trial-energy change:   -0.058291  1 .order   -0.058296   -0.075534   -0.041059
 step:   2.6354(harm=  2.6354)  dis= 0.08583  next Energy=  -479.382601 (dE=-0.827E-01)
 bond charge predicted
       N       E                     dE             d eps       ncg     rms          rms(c)
DAV:   1    -0.479215447739E+03    0.14269E+00   -0.11403E+02  1424   0.283E+01    0.232E+00
DAV:   2    -0.479393299808E+03   -0.17785E+00   -0.22285E+00  1824   0.479E+00    0.131E+00
DAV:   3    -0.479384400967E+03    0.88988E-02   -0.12375E-01  1956   0.187E+00    0.989E-01
DAV:   4    -0.479383326854E+03    0.10741E-02   -0.58263E-02  1968   0.132E+00    0.732E-01
DAV:   5    -0.479381635893E+03    0.16910E-02   -0.18117E-02  1980   0.797E-01    0.263E-01
DAV:   6    -0.479382858747E+03   -0.12229E-02   -0.31981E-03  1888   0.165E-01    0.754E-02
DAV:   7    -0.479382929448E+03   -0.70702E-04   -0.43684E-04  1832   0.775E-02    0.369E-02
DAV:   8    -0.479382987184E+03   -0.57735E-04   -0.60423E-05  1432   0.352E-02    0.149E-02
DAV:   9    -0.479383020487E+03   -0.33303E-04   -0.11713E-05  1016   0.165E-02    0.721E-03
DAV:  10    -0.479383060664E+03   -0.40177E-04   -0.65979E-06   920   0.114E-02    0.278E-03
DAV:  11    -0.479383093091E+03   -0.32427E-04   -0.56445E-06   968   0.864E-03    0.191E-03
DAV:  12    -0.479383112889E+03   -0.19798E-04   -0.37819E-06   952   0.692E-03    0.148E-03
DAV:  13    -0.479383126835E+03   -0.13946E-04   -0.31937E-06   912   0.563E-03    0.819E-04
DAV:  14    -0.479383131555E+03   -0.47202E-05   -0.19102E-06   968   0.457E-03
 111 F= -.47938313E+03 E0= -.47938313E+03  d E =-.832780E-01
 curvature: -32.72 expect dE=-0.143E+01 dE for cont linesearch -0.151E-04
 trial: gam= 0.64013 g(F)=  0.435E-01 g(S)=  0.710E-04 ort = 0.847E-03 (trialstep = 0.149E+01)
 search vector abs. value=  0.684E+00
 bond charge predicted
       N       E                     dE             d eps       ncg     rms          rms(c)
DAV:   1    -0.479358549731E+03    0.24577E-01   -0.54237E+01  1424   0.196E+01    0.142E+00
DAV:   2    -0.479437992929E+03   -0.79443E-01   -0.98841E-01  1840   0.309E+00    0.847E-01
DAV:   3    -0.479434401555E+03    0.35914E-02   -0.45466E-02  2000   0.107E+00    0.606E-01
DAV:   4    -0.479435137076E+03   -0.73552E-03   -0.25628E-02  1968   0.895E-01    0.452E-01
DAV:   5    -0.479434461575E+03    0.67550E-03   -0.10268E-02  1996   0.607E-01    0.148E-01
DAV:   6    -0.479435028585E+03   -0.56701E-03   -0.12915E-03  1984   0.122E-01    0.440E-02
DAV:   7    -0.479435043713E+03   -0.15128E-04   -0.14176E-04  1808   0.395E-02    0.224E-02
DAV:   8    -0.479435063569E+03   -0.19856E-04   -0.16140E-05   952   0.167E-02    0.798E-03
DAV:   9    -0.479435074519E+03   -0.10950E-04   -0.60309E-06   944   0.118E-02    0.384E-03
DAV:  10    -0.479435085978E+03   -0.11459E-04   -0.32928E-06   920   0.788E-03    0.178E-03
DAV:  11    -0.479435091983E+03   -0.60048E-05   -0.17684E-06   968   0.647E-03
 112 F= -.47943509E+03 E0= -.47943509E+03  d E =-.519604E-01
 trial-energy change:   -0.051960  1 .order   -0.051863   -0.065669   -0.038057
 step:   3.5420(harm=  3.5420)  dis= 0.06945  next Energy=  -479.461220 (dE=-0.781E-01)
 bond charge predicted
       N       E                     dE             d eps       ncg     rms          rms(c)
DAV:   1    -0.479311270911E+03    0.12382E+00   -0.10291E+02  1424   0.270E+01    0.208E+00
DAV:   2    -0.479469972392E+03   -0.15870E+00   -0.19602E+00  1832   0.453E+00    0.121E+00
DAV:   3    -0.479462215338E+03    0.77571E-02   -0.10665E-01  2024   0.178E+00    0.906E-01
DAV:   4    -0.479461569694E+03    0.64564E-03   -0.51086E-02  1976   0.128E+00    0.662E-01
DAV:   5    -0.479460486592E+03    0.10831E-02   -0.16101E-02  1976   0.767E-01    0.225E-01
DAV:   6    -0.479461589873E+03   -0.11033E-02   -0.27543E-03  1920   0.153E-01    0.657E-02
DAV:   7    -0.479461623101E+03   -0.33228E-04   -0.32989E-04  1808   0.656E-02    0.331E-02
DAV:   8    -0.479461660891E+03   -0.37791E-04   -0.41901E-05  1304   0.277E-02    0.136E-02
DAV:   9    -0.479461680660E+03   -0.19769E-04   -0.98641E-06   944   0.162E-02    0.661E-03
DAV:  10    -0.479461701066E+03   -0.20406E-04   -0.54510E-06   928   0.110E-02    0.235E-03
DAV:  11    -0.479461715191E+03   -0.14125E-04   -0.35859E-06   928   0.773E-03    0.145E-03
DAV:  12    -0.479461723619E+03   -0.84273E-05   -0.21802E-06   952   0.551E-03
 113 F= -.47946172E+03 E0= -.47946172E+03  d E =-.785921E-01
 curvature: -27.46 expect dE=-0.140E+01 dE for cont linesearch -0.296E-05
 trial: gam= 1.17286 g(F)=  0.506E-01 g(S)=  0.241E-03 ort = 0.272E-03 (trialstep = 0.131E+01)
 search vector abs. value=  0.992E+00
 bond charge predicted
       N       E                     dE             d eps       ncg     rms          rms(c)
DAV:   1    -0.479427456953E+03    0.34258E-01   -0.60314E+01  1408   0.207E+01    0.149E+00
DAV:   2    -0.479517819873E+03   -0.90363E-01   -0.11200E+00  1848   0.335E+00    0.906E-01
DAV:   3    -0.479514235522E+03    0.35844E-02   -0.53001E-02  1996   0.117E+00    0.648E-01
DAV:   4    -0.479514930287E+03   -0.69477E-03   -0.28067E-02  1960   0.965E-01    0.491E-01
DAV:   5    -0.479514215201E+03    0.71509E-03   -0.11440E-02  1988   0.657E-01    0.162E-01
DAV:   6    -0.479514809379E+03   -0.59418E-03   -0.15413E-03  1984   0.132E-01    0.513E-02
DAV:   7    -0.479514828613E+03   -0.19234E-04   -0.19269E-04  1784   0.471E-02    0.255E-02
DAV:   8    -0.479514854160E+03   -0.25547E-04   -0.23635E-05  1104   0.212E-02    0.942E-03
DAV:   9    -0.479514870713E+03   -0.16553E-04   -0.70919E-06   936   0.136E-02    0.459E-03
DAV:  10    -0.479514892329E+03   -0.21616E-04   -0.49529E-06   892   0.932E-03    0.205E-03
DAV:  11    -0.479514904131E+03   -0.11802E-04   -0.29165E-06   952   0.802E-03    0.132E-03
DAV:  12    -0.479514912973E+03   -0.88429E-05   -0.19992E-06   900   0.451E-03
 114 F= -.47951491E+03 E0= -.47951491E+03  d E =-.531894E-01
 trial-energy change:   -0.053189  1 .order   -0.053232   -0.066959   -0.039505
 step:   3.1937(harm=  3.1937)  dis= 0.07973  next Energy=  -479.543378 (dE=-0.817E-01)
 bond charge predicted
       N       E                     dE             d eps       ncg     rms          rms(c)
DAV:   1    -0.479357085050E+03    0.15782E+00   -0.12470E+02  1424   0.298E+01    0.229E+00
DAV:   2    -0.479554032121E+03   -0.19695E+00   -0.24171E+00  1852   0.514E+00    0.136E+00
DAV:   3    -0.479544965107E+03    0.90670E-02   -0.13483E-01  2004   0.204E+00    0.101E+00
DAV:   4    -0.479543893348E+03    0.10718E-02   -0.61167E-02  1992   0.142E+00    0.752E-01
DAV:   5    -0.479542327825E+03    0.15655E-02   -0.19158E-02  2012   0.851E-01    0.255E-01
DAV:   6    -0.479543613143E+03   -0.12853E-02   -0.35244E-03  1888   0.164E-01    0.802E-02
DAV:   7    -0.479543662149E+03   -0.49006E-04   -0.47189E-04  1864   0.815E-02    0.399E-02
DAV:   8    -0.479543714090E+03   -0.51941E-04   -0.68301E-05  1456   0.374E-02    0.160E-02
DAV:   9    -0.479543744055E+03   -0.29965E-04   -0.11798E-05  1024   0.186E-02    0.740E-03
DAV:  10    -0.479543780201E+03   -0.36145E-04   -0.67976E-06   916   0.115E-02    0.295E-03
DAV:  11    -0.479543811107E+03   -0.30907E-04   -0.55027E-06   928   0.983E-03    0.194E-03
DAV:  12    -0.479543827960E+03   -0.16853E-04   -0.35245E-06   968   0.698E-03    0.161E-03
DAV:  13    -0.479543838717E+03   -0.10757E-04   -0.23737E-06   928   0.561E-03    0.806E-04
DAV:  14    -0.479543846001E+03   -0.72840E-05   -0.19879E-06   956   0.425E-03
 115 F= -.47954385E+03 E0= -.47954385E+03  d E =-.821224E-01
 curvature: -30.97 expect dE=-0.148E+01 dE for cont linesearch -0.253E-05
 trial: gam= 0.93914 g(F)=  0.469E-01 g(S)=  0.741E-03 ort = 0.285E-03 (trialstep = 0.169E+01)
 search vector abs. value=  0.923E+00
 bond charge predicted
       N       E                     dE             d eps       ncg     rms          rms(c)
DAV:   1    -0.479465610096E+03    0.78229E-01   -0.92719E+01  1424   0.257E+01    0.190E+00
DAV:   2    -0.479607623160E+03   -0.14201E+00   -0.17435E+00  1856   0.412E+00    0.113E+00
DAV:   3    -0.479601722478E+03    0.59007E-02   -0.78676E-02  2032   0.142E+00    0.812E-01
DAV:   4    -0.479602865991E+03   -0.11435E-02   -0.42860E-02  1984   0.119E+00    0.632E-01
DAV:   5    -0.479601176768E+03    0.16892E-02   -0.18082E-02  2020   0.846E-01    0.212E-01
DAV:   6    -0.479602111998E+03   -0.93523E-03   -0.24506E-03  1960   0.158E-01    0.647E-02
DAV:   7    -0.479602133491E+03   -0.21493E-04   -0.27592E-04  1864   0.585E-02    0.309E-02
DAV:   8    -0.479602160234E+03   -0.26742E-04   -0.41124E-05  1264   0.289E-02    0.114E-02
DAV:   9    -0.479602172095E+03   -0.11861E-04   -0.95704E-06   944   0.162E-02    0.617E-03
DAV:  10    -0.479602185829E+03   -0.13734E-04   -0.45895E-06   912   0.908E-03    0.235E-03
DAV:  11    -0.479602194952E+03   -0.91228E-05   -0.26820E-06   936   0.770E-03
 116 F= -.47960219E+03 E0= -.47960219E+03  d E =-.583490E-01
 trial-energy change:   -0.058349  1 .order   -0.058256   -0.080779   -0.035733
 step:   3.0239(harm=  3.0239)  dis= 0.07151  next Energy=  -479.616275 (dE=-0.724E-01)
 bond charge predicted
       N       E                     dE             d eps       ncg     rms          rms(c)
DAV:   1    -0.479532281819E+03    0.69904E-01   -0.58364E+01  1424   0.204E+01    0.146E+00
DAV:   2    -0.479618594951E+03   -0.86313E-01   -0.10682E+00  1836   0.312E+00    0.874E-01
DAV:   3    -0.479615127414E+03    0.34675E-02   -0.41072E-02  2032   0.922E-01    0.607E-01
DAV:   4    -0.479616695699E+03   -0.15683E-02   -0.23342E-02  1968   0.872E-01    0.466E-01
DAV:   5    -0.479615736466E+03    0.95923E-03   -0.13333E-02  2000   0.723E-01    0.169E-01
DAV:   6    -0.479616255959E+03   -0.51949E-03   -0.14814E-03  1984   0.170E-01    0.473E-02
DAV:   7    -0.479616279422E+03   -0.23462E-04   -0.20590E-04  1712   0.393E-02    0.238E-02
DAV:   8    -0.479616299973E+03   -0.20551E-04   -0.22953E-05  1056   0.199E-02    0.790E-03
DAV:   9    -0.479616310513E+03   -0.10541E-04   -0.72271E-06   960   0.138E-02    0.426E-03
DAV:  10    -0.479616322576E+03   -0.12063E-04   -0.36218E-06   896   0.800E-03    0.189E-03
DAV:  11    -0.479616329308E+03   -0.67320E-05   -0.18799E-06   960   0.676E-03
 117 F= -.47961633E+03 E0= -.47961633E+03  d E =-.724833E-01
 curvature: -29.13 expect dE=-0.112E+01 dE for cont linesearch -0.408E-06
 trial: gam= 0.80503 g(F)=  0.381E-01 g(S)=  0.438E-03 ort =-0.114E-03 (trialstep = 0.195E+01)
 search vector abs. value=  0.637E+00
 bond charge predicted
       N       E                     dE             d eps       ncg     rms          rms(c)
DAV:   1    -0.479543079007E+03    0.73244E-01   -0.85477E+01  1408   0.248E+01    0.183E+00
DAV:   2    -0.479669787601E+03   -0.12671E+00   -0.15941E+00  1860   0.371E+00    0.106E+00
DAV:   3    -0.479664263042E+03    0.55246E-02   -0.55941E-02  1960   0.868E-01    0.720E-01
DAV:   4    -0.479665065121E+03   -0.80208E-03   -0.16917E-02  1896   0.631E-01    0.408E-01
DAV:   5    -0.479666128054E+03   -0.10629E-02   -0.15971E-02  1984   0.765E-01    0.270E-01
DAV:   6    -0.479665750030E+03    0.37802E-03   -0.50473E-03  1992   0.416E-01    0.630E-02
DAV:   7    -0.479665800096E+03   -0.50065E-04   -0.38882E-04  1896   0.596E-02    0.349E-02
DAV:   8    -0.479665830959E+03   -0.30864E-04   -0.53846E-05  1424   0.288E-02    0.102E-02
DAV:   9    -0.479665847145E+03   -0.16185E-04   -0.11546E-05  1032   0.181E-02    0.548E-03
DAV:  10    -0.479665864154E+03   -0.17009E-04   -0.37748E-06   912   0.938E-03    0.286E-03
DAV:  11    -0.479665882334E+03   -0.18180E-04   -0.28030E-06   904   0.720E-03    0.138E-03
DAV:  12    -0.479665891581E+03   -0.92470E-05   -0.17009E-06   960   0.595E-03
 118 F= -.47966589E+03 E0= -.47966589E+03  d E =-.495623E-01
 trial-energy change:   -0.049562  1 .order   -0.049547   -0.075139   -0.023956
 step:   2.8683(harm=  2.8683)  dis= 0.05060  next Energy=  -479.671483 (dE=-0.552E-01)
 bond charge predicted
       N       E                     dE             d eps       ncg     rms          rms(c)
DAV:   1    -0.479644488994E+03    0.21393E-01   -0.18733E+01  1392   0.116E+01    0.804E-01
DAV:   2    -0.479671960332E+03   -0.27471E-01   -0.34996E-01  1852   0.176E+00    0.501E-01
DAV:   3    -0.479671013130E+03    0.94720E-03   -0.14310E-02  2072   0.531E-01    0.338E-01
