<?xml version="1.0" encoding="ISO-8859-1"?>
<modeling>
 <generator>
  <i name="program" type="string">vasp </i>
  <i name="version" type="string">6.3.2  </i>
  <i name="subversion" type="string">27Jun22 (build May 04 2024 18:40:40) complex                          parallel </i>
  <i name="platform" type="string">LinuxIFC </i>
  <i name="date" type="string">2024 09 03 </i>
  <i name="time" type="string">08:35:49 </i>
 </generator>
 <incar>
  <i type="string" name="SYSTEM">slab_Cel1-OPT</i>
  <i type="int" name="ISTART">     0</i>
  <i type="string" name="PREC">N</i>
  <i type="string" name="ALGO">N</i>
  <i type="int" name="ICHARG">     2</i>
  <i type="int" name="NELM">   200</i>
  <i type="int" name="IBRION">     2</i>
  <i name="EDIFF">      0.00001000</i>
  <i name="EDIFFG">     -0.05000000</i>
  <i type="int" name="NSW">  1000</i>
  <i type="int" name="ISIF">     3</i>
  <i name="ENCUT">    400.00000000</i>
  <i name="POTIM">      0.10000000</i>
  <i type="string" name="LREAL">AUTO</i>
  <i type="int" name="ISMEAR">     0</i>
  <i name="SIGMA">      0.10000000</i>
  <i type="logical" name="LWAVE"> F  </i>
  <i type="logical" name="LCHARG"> F  </i>
  <i type="logical" name="LELF"> F  </i>
  <i type="logical" name="LAECHG"> F  </i>
  <i type="logical" name="LDIPOL"> T  </i>
  <i type="int" name="IDIPOL">     3</i>
 </incar>
 <primitive_cell>
  <structure name="primitive_cell" >
   <crystal>
    <varray name="basis" >
     <v>      14.26590000       0.00000000       0.00000000 </v>
     <v>       0.00000000      12.35699650       0.00000000 </v>
     <v>       0.00000000       0.00000000      15.00000000 </v>
    </varray>
    <i name="volume">   2644.25514646 </i>
    <varray name="rec_basis" >
     <v>       0.07009722       0.00000000       0.00000000 </v>
     <v>       0.00000000       0.08092581       0.00000000 </v>
     <v>       0.00000000       0.00000000       0.06666667 </v>
    </varray>
   </crystal>
   <varray name="positions" >
    <v>       0.06537593       0.40364000       0.13333000 </v>
    <v>       0.98097748       0.23494000       0.13333000 </v>
    <v>       0.22593437       0.39820000       0.13333000 </v>
    <v>       0.81543575       0.57710000       0.13333000 </v>
    <v>       0.14973747       0.23490000       0.13333000 </v>
    <v>       0.90517930       0.39797000       0.13333000 </v>
    <v>       0.56537593       0.40364000       0.13333000 </v>
    <v>       0.48097748       0.23494000       0.13333000 </v>
    <v>       0.72593437       0.39820000       0.13333000 </v>
    <v>       0.31543575       0.57710000       0.13333000 </v>
    <v>       0.64973747       0.23490000       0.13333000 </v>
    <v>       0.40517930       0.39797000       0.13333000 </v>
    <v>       0.81551954       0.90364000       0.13333000 </v>
    <v>       0.73112108       0.73494000       0.13333000 </v>
    <v>       0.97607797       0.89820000       0.13333000 </v>
    <v>       0.06529214       0.07710000       0.13333000 </v>
    <v>       0.89988107       0.73490000       0.13333000 </v>
    <v>       0.65532291       0.89797000       0.13333000 </v>
    <v>       0.31551954       0.90364000       0.13333000 </v>
    <v>       0.23112108       0.73494000       0.13333000 </v>
    <v>       0.47607797       0.89820000       0.13333000 </v>
    <v>       0.56529214       0.07710000       0.13333000 </v>
    <v>       0.39988107       0.73490000       0.13333000 </v>
    <v>       0.15532291       0.89797000       0.13333000 </v>
    <v>       0.98400093       0.45588000       0.13333000 </v>
    <v>       0.90111835       0.29021000       0.13333000 </v>
    <v>       0.14710595       0.45595000       0.13333000 </v>
    <v>       0.14840652       0.12714000       0.13333000 </v>
    <v>       0.98256150       0.12707000       0.13333000 </v>
    <v>       0.22992331       0.29008000       0.13333000 </v>
    <v>       0.06536362       0.29116000       0.13333000 </v>
    <v>       0.81553147       0.45774000       0.13333000 </v>
    <v>       0.48400093       0.45588000       0.13333000 </v>
    <v>       0.40111835       0.29021000       0.13333000 </v>
    <v>       0.64710595       0.45595000       0.13333000 </v>
    <v>       0.64840652       0.12714000       0.13333000 </v>
    <v>       0.48256150       0.12707000       0.13333000 </v>
    <v>       0.72992331       0.29008000       0.13333000 </v>
    <v>       0.56536362       0.29116000       0.13333000 </v>
    <v>       0.31553147       0.45774000       0.13333000 </v>
    <v>       0.73414454       0.95588000       0.13333000 </v>
    <v>       0.65126196       0.79021000       0.13333000 </v>
    <v>       0.89724956       0.95595000       0.13333000 </v>
    <v>       0.89855012       0.62714000       0.13333000 </v>
    <v>       0.73270510       0.62707000       0.13333000 </v>
    <v>       0.98006692       0.79008000       0.13333000 </v>
    <v>       0.81550723       0.79116000       0.13333000 </v>
    <v>       0.56567507       0.95774000       0.13333000 </v>
    <v>       0.23414454       0.95588000       0.13333000 </v>
    <v>       0.15126196       0.79021000       0.13333000 </v>
    <v>       0.39724956       0.95595000       0.13333000 </v>
    <v>       0.39855012       0.62714000       0.13333000 </v>
    <v>       0.23270510       0.62707000       0.13333000 </v>
    <v>       0.48006692       0.79008000       0.13333000 </v>
    <v>       0.31550723       0.79116000       0.13333000 </v>
    <v>       0.06567507       0.95774000       0.13333000 </v>
    <v>       0.51318019       0.65760505       0.14333042 </v>
    <v>       0.63498818       0.58816656       0.13951958 </v>
   </varray>
  </structure>
  <varray name="primitive_index" >
   <v type="int" >        1 </v>
   <v type="int" >        2 </v>
   <v type="int" >        3 </v>
   <v type="int" >        4 </v>
   <v type="int" >        5 </v>
   <v type="int" >        6 </v>
   <v type="int" >        7 </v>
   <v type="int" >        8 </v>
   <v type="int" >        9 </v>
   <v type="int" >       10 </v>
   <v type="int" >       11 </v>
   <v type="int" >       12 </v>
   <v type="int" >       13 </v>
   <v type="int" >       14 </v>
   <v type="int" >       15 </v>
   <v type="int" >       16 </v>
   <v type="int" >       17 </v>
   <v type="int" >       18 </v>
   <v type="int" >       19 </v>
   <v type="int" >       20 </v>
   <v type="int" >       21 </v>
   <v type="int" >       22 </v>
   <v type="int" >       23 </v>
   <v type="int" >       24 </v>
   <v type="int" >       25 </v>
   <v type="int" >       26 </v>
   <v type="int" >       27 </v>
   <v type="int" >       28 </v>
   <v type="int" >       29 </v>
   <v type="int" >       30 </v>
   <v type="int" >       31 </v>
   <v type="int" >       32 </v>
   <v type="int" >       33 </v>
   <v type="int" >       34 </v>
   <v type="int" >       35 </v>
   <v type="int" >       36 </v>
   <v type="int" >       37 </v>
   <v type="int" >       38 </v>
   <v type="int" >       39 </v>
   <v type="int" >       40 </v>
   <v type="int" >       41 </v>
   <v type="int" >       42 </v>
   <v type="int" >       43 </v>
   <v type="int" >       44 </v>
   <v type="int" >       45 </v>
   <v type="int" >       46 </v>
   <v type="int" >       47 </v>
   <v type="int" >       48 </v>
   <v type="int" >       49 </v>
   <v type="int" >       50 </v>
   <v type="int" >       51 </v>
   <v type="int" >       52 </v>
   <v type="int" >       53 </v>
   <v type="int" >       54 </v>
   <v type="int" >       55 </v>
   <v type="int" >       56 </v>
   <v type="int" >       57 </v>
   <v type="int" >       58 </v>
  </varray>
 </primitive_cell>
 <kpoints>
  <generation param="Gamma">
   <v type="int" name="divisions">       2        2        1 </v>
   <v name="usershift">      0.00000000       0.00000000       0.00000000 </v>
   <v name="genvec1">      0.50000000       0.00000000       0.00000000 </v>
   <v name="genvec2">      0.00000000       0.50000000       0.00000000 </v>
   <v name="genvec3">      0.00000000       0.00000000       1.00000000 </v>
   <v name="shift">      0.00000000       0.00000000       0.00000000 </v>
  </generation>
  <varray name="kpointlist" >
   <v>       0.00000000       0.00000000       0.00000000 </v>
   <v>       0.50000000       0.00000000       0.00000000 </v>
   <v>       0.00000000       0.50000000       0.00000000 </v>
   <v>       0.50000000       0.50000000       0.00000000 </v>
  </varray>
  <varray name="weights" >
   <v>       0.25000000 </v>
   <v>       0.25000000 </v>
   <v>       0.25000000 </v>
   <v>       0.25000000 </v>
  </varray>
 </kpoints>
 <parameters>
  <separator name="general" >
   <i type="string" name="SYSTEM">slab_Cel1-OPT</i>
   <i type="logical" name="LCOMPAT"> F  </i>
  </separator>
  <separator name="electronic" >
   <i type="string" name="PREC">n</i>
   <i name="ENMAX">    400.00000000</i>
   <i name="ENAUG">    644.87300000</i>
   <i name="EDIFF">      0.00001000</i>
   <i type="int" name="IALGO">    38</i>
   <i type="int" name="IWAVPR">    11</i>
   <i type="int" name="NBANDS">   172</i>
   <i type="int" name="NBANDSLOW">    -1</i>
   <i type="int" name="NBANDSHIGH">    -1</i>
   <i name="NELECT">    278.00000000</i>
   <i type="int" name="TURBO">     0</i>
   <i type="int" name="IRESTART">     0</i>
   <i type="int" name="NREBOOT">     0</i>
   <i type="int" name="NMIN">     0</i>
   <i name="EREF">      0.00000000</i>
   <separator name="electronic smearing" >
    <i type="int" name="ISMEAR">     0</i>
    <i name="SIGMA">      0.10000000</i>
    <i name="KSPACING">      0.50000000</i>
    <i type="logical" name="KGAMMA"> T  </i>
    <i type="logical" name="KBLOWUP"> T  </i>
   </separator>
   <separator name="electronic projectors" >
    <i type="logical" name="LREAL"> T  </i>
    <v name="ROPT">     -0.00050000     -0.00050000     -0.00050000     -0.00050000</v>
    <i type="int" name="LMAXPAW">  -100</i>
    <i type="int" name="LMAXMIX">     2</i>
    <i type="logical" name="NLSPLINE"> F  </i>
   </separator>
   <separator name="electronic startup" >
    <i type="int" name="ISTART">     0</i>
    <i type="int" name="ICHARG">     2</i>
    <i type="int" name="INIWAV">     1</i>
   </separator>
   <separator name="electronic spin" >
    <i type="int" name="ISPIN">     1</i>
    <i type="logical" name="LNONCOLLINEAR"> F  </i>
    <v name="MAGMOM">      1.00000000      1.00000000      1.00000000      1.00000000      1.00000000      1.00000000      1.00000000      1.00000000      1.00000000      1.00000000      1.00000000      1.00000000      1.00000000      1.00000000      1.00000000      1.00000000      1.00000000      1.00000000      1.00000000      1.00000000
      1.00000000      1.00000000      1.00000000      1.00000000      1.00000000      1.00000000      1.00000000      1.00000000      1.00000000      1.00000000      1.00000000      1.00000000      1.00000000      1.00000000      1.00000000      1.00000000      1.00000000      1.00000000      1.00000000      1.00000000
      1.00000000      1.00000000      1.00000000      1.00000000      1.00000000      1.00000000      1.00000000      1.00000000      1.00000000      1.00000000      1.00000000      1.00000000      1.00000000      1.00000000      1.00000000      1.00000000      1.00000000      1.00000000</v>
    <i name="NUPDOWN">     -1.00000000</i>
    <i type="logical" name="LSORBIT"> F  </i>
    <v name="SAXIS">      0.00000000      0.00000000      1.00000000</v>
    <i type="logical" name="LSPIRAL"> F  </i>
    <v name="QSPIRAL">      0.00000000      0.00000000      0.00000000</v>
    <i type="logical" name="LZEROZ"> F  </i>
   </separator>
   <separator name="electronic exchange-correlation" >
    <i type="logical" name="LASPH"> F  </i>
    <i type="logical" name="LMETAGGA"> F  </i>
   </separator>
   <separator name="electronic convergence" >
    <i type="int" name="NELM">   200</i>
    <i type="int" name="NELMDL">    -5</i>
    <i type="int" name="NELMIN">     2</i>
    <i name="ENINI">    400.00000000</i>
    <separator name="electronic convergence detail" >
     <i type="logical" name="LDIAG"> T  </i>
     <i type="logical" name="LSUBROT"> F  </i>
     <i name="WEIMIN">      0.00100000</i>
     <i name="EBREAK">      0.00000001</i>
     <i name="DEPER">      0.30000000</i>
     <i type="int" name="NRMM">     4</i>
     <i name="TIME">      0.40000000</i>
    </separator>
   </separator>
   <separator name="electronic mixer" >
    <i name="AMIX">      0.40000000</i>
    <i name="BMIX">      1.00000000</i>
    <i name="AMIN">      0.10000000</i>
    <i name="AMIX_MAG">      1.60000000</i>
    <i name="BMIX_MAG">      1.00000000</i>
    <separator name="electronic mixer details" >
     <i type="int" name="IMIX">     4</i>
     <i type="logical" name="MIXFIRST"> F  </i>
     <i type="int" name="MAXMIX">   -45</i>
     <i name="WC">    100.00000000</i>
     <i type="int" name="INIMIX">     1</i>
     <i type="int" name="MIXPRE">     1</i>
     <i type="int" name="MREMOVE">     5</i>
    </separator>
   </separator>
   <separator name="electronic dipolcorrection" >
    <i type="logical" name="LDIPOL"> T  </i>
    <i type="logical" name="LMONO"> F  </i>
    <i type="int" name="IDIPOL">     3</i>
    <i name="EPSILON">      1.00000000</i>
    <v name="DIPOL">   -100.00000000   -100.00000000   -100.00000000</v>
    <i name="EFIELD">      0.00000000</i>
   </separator>
  </separator>
  <separator name="grids" >
   <i type="int" name="NGX">    70</i>
   <i type="int" name="NGY">    60</i>
   <i type="int" name="NGZ">    80</i>
   <i type="int" name="NGXF">   140</i>
   <i type="int" name="NGYF">   120</i>
   <i type="int" name="NGZF">   160</i>
   <i type="logical" name="ADDGRID"> F  </i>
  </separator>
  <separator name="ionic" >
   <i type="int" name="NSW">  1000</i>
   <i type="int" name="IBRION">     2</i>
   <i type="int" name="MDALGO">     0</i>
   <i type="int" name="ISIF">     3</i>
   <i name="PSTRESS">      0.00000000</i>
   <i name="EDIFFG">     -0.05000000</i>
   <i type="int" name="NFREE">     1</i>
   <i name="POTIM">      0.10000000</i>
   <i name="SMASS">     -3.00000000</i>
   <i name="SCALEE">      1.00000000</i>
  </separator>
  <separator name="ionic md" >
   <i name="TEBEG">      0.00010000</i>
   <i name="TEEND">      0.00010000</i>
   <i type="int" name="NBLOCK">     1</i>
   <i type="int" name="KBLOCK">  1000</i>
   <i type="int" name="NPACO">   256</i>
   <i name="APACO">     10.00000000</i>
  </separator>
  <separator name="symmetry" >
   <i type="int" name="ISYM">     2</i>
   <i name="SYMPREC">      0.00001000</i>
  </separator>
  <separator name="dos" >
   <i type="int" name="LORBIT">     0</i>
   <v name="RWIGS">     -1.00000000     -1.00000000     -1.00000000     -1.00000000</v>
   <i type="int" name="NEDOS">   301</i>
   <i name="EMIN">     10.00000000</i>
   <i name="EMAX">    -10.00000000</i>
   <i name="EFERMI">      0.00000000</i>
  </separator>
  <separator name="writing" >
   <i type="int" name="NWRITE">     2</i>
   <i type="logical" name="LWAVE"> F  </i>
   <i type="logical" name="LDOWNSAMPLE"> F  </i>
   <i type="logical" name="LCHARG"> F  </i>
   <i type="logical" name="LPARD"> F  </i>
   <i type="logical" name="LVTOT"> F  </i>
   <i type="logical" name="LVHAR"> F  </i>
   <i type="logical" name="LELF"> F  </i>
   <i type="logical" name="LOPTICS"> F  </i>
   <v name="STM">      0.00000000      0.00000000      0.00000000      0.00000000      0.00000000      0.00000000      0.00000000</v>
  </separator>
  <separator name="performance" >
   <i type="int" name="NPAR">     4</i>
   <i type="int" name="NSIM">     4</i>
   <i type="int" name="NBLK">    -1</i>
   <i type="logical" name="LPLANE"> T  </i>
   <i type="logical" name="LSCALAPACK"> T  </i>
   <i type="logical" name="LSCAAWARE"> F  </i>
   <i type="logical" name="LSCALU"> F  </i>
   <i type="logical" name="LASYNC"> F  </i>
   <i type="logical" name="LORBITALREAL"> F  </i>
  </separator>
  <separator name="miscellaneous" >
   <i type="int" name="IDIOT">     3</i>
   <i type="int" name="PHON_NSTRUCT">    -1</i>
   <i type="logical" name="LMUSIC"> F  </i>
   <v name="POMASS">     12.01100000     14.00100000    107.86800000     63.54600000</v>
   <v name="DARWINR">      0.00000000      0.00000000      0.00000000      0.00000000</v>
   <v name="DARWINV">      1.00000000      1.00000000      1.00000000      1.00000000</v>
   <i type="logical" name="LCORR"> T  </i>
  </separator>
  <i type="logical" name="GGA_COMPAT"> T  </i>
  <i type="logical" name="LBERRY"> F  </i>
  <i type="int" name="ICORELEVEL">     0</i>
  <i type="logical" name="LDAU"> F  </i>
  <i type="int" name="I_CONSTRAINED_M">     0</i>
  <separator name="electronic exchange-correlation" >
   <i type="string" name="GGA">--</i>
   <i type="int" name="VOSKOWN">     0</i>
   <i type="logical" name="LHFCALC"> F  </i>
   <i type="string" name="PRECFOCK"></i>
   <i type="logical" name="LSYMGRAD"> F  </i>
   <i type="logical" name="LHFONE"> F  </i>
   <i type="logical" name="LRHFCALC"> F  </i>
   <i type="logical" name="LTHOMAS"> F  </i>
   <i type="logical" name="LMODELHF"> F  </i>
   <i type="logical" name="LFOCKACE"> F  </i>
   <i name="ENCUT4O">     -1.00000000</i>
   <i type="int" name="EXXOEP">     0</i>
   <i type="int" name="FOURORBIT">     0</i>
   <i name="AEXX">      0.00000000</i>
   <i name="HFALPHA">      0.00000000</i>
   <i name="MCALPHA">      0.00000000</i>
   <i name="ALDAX">      1.00000000</i>
   <i name="AGGAX">      1.00000000</i>
   <i name="ALDAC">      1.00000000</i>
   <i name="AGGAC">      1.00000000</i>
   <i type="int" name="NKREDX">     1</i>
   <i type="int" name="NKREDY">     1</i>
   <i type="int" name="NKREDZ">     1</i>
   <i type="logical" name="SHIFTRED"> F  </i>
   <i type="logical" name="ODDONLY"> F  </i>
   <i type="logical" name="EVENONLY"> F  </i>
   <i type="int" name="LMAXFOCK">     0</i>
   <i type="int" name="NMAXFOCKAE">     0</i>
   <i type="logical" name="LFOCKAEDFT"> F  </i>
   <i name="HFSCREEN">      0.00000000</i>
   <i name="HFSCREENC">      0.00000000</i>
   <i type="int" name="NBANDSGWLOW">     0</i>
  </separator>
  <separator name="vdW DFT" >
   <i type="logical" name="LUSE_VDW"> F  </i>
   <i name="Zab_VDW">     -0.84910000</i>
   <i name="PARAM1">      0.12340000</i>
   <i name="PARAM2">      1.00000000</i>
   <i name="PARAM3">      0.00000000</i>
  </separator>
  <separator name="model GW" >
   <i type="int" name="MODEL_GW">     0</i>
   <i name="MODEL_EPS0">     27.35436358</i>
   <i name="MODEL_ALPHA">      1.00000000</i>
  </separator>
  <separator name="linear response parameters" >
   <i type="logical" name="LEPSILON"> F  </i>
   <i type="logical" name="LRPA"> F  </i>
   <i type="logical" name="LNABLA"> F  </i>
   <i type="logical" name="LVEL"> F  </i>
   <i name="CSHIFT">      0.10000000</i>
   <i name="OMEGAMAX">     -1.00000000</i>
   <i name="DEG_THRESHOLD">      0.00200000</i>
   <i name="RTIME">     -0.10000000</i>
   <i name="WPLASMAI">      0.00000000</i>
   <v name="DFIELD">      0.00000000      0.00000000      0.00000000</v>
   <v name="WPLASMA">      0.00000000      0.00000000      0.00000000      0.00000000      0.00000000      0.00000000      0.00000000      0.00000000      0.00000000</v>
  </separator>
  <separator name="orbital magnetization" >
   <i type="logical" name="NUCIND"> F  </i>
   <v name="MAGPOS">      0.00000000      0.00000000      0.00000000</v>
   <i type="logical" name="LNICSALL"> T  </i>
   <i type="logical" name="ORBITALMAG"> F  </i>
   <i type="logical" name="LMAGBLOCH"> F  </i>
   <i type="logical" name="LCHIMAG"> F  </i>
   <i type="logical" name="LGAUGE"> T  </i>
   <i type="int" name="MAGATOM">     0</i>
   <v name="MAGDIPOL">      0.00000000      0.00000000      0.00000000</v>
   <v name="AVECCONST">      0.00000000      0.00000000      0.00000000</v>
  </separator>
  <separator name="response functions" >
   <i type="logical" name="LFINITE_TEMPERATURE"> F  </i>
   <i type="logical" name="LADDER"> F  </i>
   <i type="logical" name="LRPAFORCE"> F  </i>
   <i type="logical" name="LFXC"> F  </i>
   <i type="logical" name="LHARTREE"> T  </i>
   <i type="int" name="IBSE">     0</i>
   <v type="int" name="KPOINT">    -1     0     0     0</v>
   <i type="logical" name="LTCTC"> F  </i>
   <i type="logical" name="LTCTE"> F  </i>
   <i type="logical" name="LTETE"> F  </i>
   <i type="logical" name="LTRIPLET"> F  </i>
   <i type="logical" name="LFXCEPS"> F  </i>
   <i type="logical" name="LFXHEG"> F  </i>
   <i type="int" name="NATURALO">     2</i>
   <i type="logical" name="LHOLEGF"> F  </i>
   <i type="logical" name="L2ORDER"> F  </i>
   <i type="logical" name="LDMP1"> F  </i>
   <i type="logical" name="LMP2LT"> F  </i>
   <i type="logical" name="LSMP2LT"> F  </i>
   <i type="logical" name="LGWLF"> F  </i>
   <i name="ENCUTGW">     -2.00000000</i>
   <i name="ENCUTGWSOFT">     -2.00000000</i>
   <i name="ENCUTLF">     -1.00000000</i>
   <i type="logical" name="LESF_SPLINES"> F  </i>
   <i type="int" name="LMAXMP2">    -1</i>
   <i name="SCISSOR">      0.00000000</i>
   <i type="int" name="NOMEGA">     0</i>
   <i type="int" name="NOMEGAR">     0</i>
   <i type="int" name="NBANDSGW">    -1</i>
   <i type="int" name="NBANDSO">    -1</i>
   <i type="int" name="NBANDSV">    -1</i>
   <i type="int" name="NELMGW">     1</i>
   <i type="int" name="NELMHF">     1</i>
   <i type="int" name="DIM">     3</i>
   <i type="int" name="IESPILON">     4</i>
   <i type="int" name="ANTIRES">     0</i>
   <i name="OMEGAMAX">    -30.00000000</i>
   <i name="OMEGAMIN">    -30.00000000</i>
   <i name="OMEGATL">   -200.00000000</i>
   <i type="int" name="OMEGAGRID">     0</i>
   <i name="CSHIFT">     -0.10000000</i>
   <i type="logical" name="LSELFENERGY"> F  </i>
   <i type="logical" name="LSPECTRAL"> F  </i>
   <i type="logical" name="LSPECTRALGW"> F  </i>
   <i type="logical" name="LSINGLES"> F  </i>
   <i type="logical" name="LFERMIGW"> F  </i>
   <i type="logical" name="ODDONLYGW"> F  </i>
   <i type="logical" name="EVENONLYGW"> F  </i>
   <i type="int" name="NKREDLFX">     1</i>
   <i type="int" name="NKREDLFY">     1</i>
   <i type="int" name="NKREDLFZ">     1</i>
   <i type="int" name="MAXMEM">  2800</i>
   <i type="int" name="TELESCOPE">     0</i>
   <i type="int" name="NTAUPAR">    -1</i>
   <i type="int" name="NOMEGAPAR">    -1</i>
   <i name="DAMP_NEWTON">      0.80000001</i>
   <i name="LAMBDA">      1.00000000</i>
  </separator>
  <separator name="External order field" >
   <i name="OFIELD_KAPPA">      0.00000000</i>
   <v name="OFIELD_K">      0.00000000      0.00000000      0.00000000</v>
   <i name="OFIELD_Q6_NEAR">      0.00000000</i>
   <i name="OFIELD_Q6_FAR">      0.00000000</i>
   <i name="OFIELD_A">      0.00000000</i>
  </separator>
  <separator name="optional k-points parameters" >
   <i type="int" name="KPOINTS_OPT_MODE">     1</i>
   <i type="logical" name="LKPOINTS_OPT"> F  </i>
  </separator>
  <separator name="solvation model" >
   <i type="logical" name="LSOL"> F  </i>
  </separator>
 </parameters>
 <atominfo>
  <atoms>      58 </atoms>
  <types>       4 </types>
  <array name="atoms" >
   <dimension dim="1">ion</dimension>
   <field type="string">element</field>
   <field type="int">atomtype</field>
   <set>
    <rc><c>C </c><c>   1</c></rc>
    <rc><c>C </c><c>   1</c></rc>
    <rc><c>C </c><c>   1</c></rc>
    <rc><c>C </c><c>   1</c></rc>
    <rc><c>C </c><c>   1</c></rc>
    <rc><c>C </c><c>   1</c></rc>
    <rc><c>C </c><c>   1</c></rc>
    <rc><c>C </c><c>   1</c></rc>
    <rc><c>C </c><c>   1</c></rc>
    <rc><c>C </c><c>   1</c></rc>
    <rc><c>C </c><c>   1</c></rc>
    <rc><c>C </c><c>   1</c></rc>
    <rc><c>C </c><c>   1</c></rc>
    <rc><c>C </c><c>   1</c></rc>
    <rc><c>C </c><c>   1</c></rc>
    <rc><c>C </c><c>   1</c></rc>
    <rc><c>C </c><c>   1</c></rc>
    <rc><c>C </c><c>   1</c></rc>
    <rc><c>C </c><c>   1</c></rc>
    <rc><c>C </c><c>   1</c></rc>
    <rc><c>C </c><c>   1</c></rc>
    <rc><c>C </c><c>   1</c></rc>
    <rc><c>C </c><c>   1</c></rc>
    <rc><c>C </c><c>   1</c></rc>
    <rc><c>N </c><c>   2</c></rc>
    <rc><c>N </c><c>   2</c></rc>
    <rc><c>N </c><c>   2</c></rc>
    <rc><c>N </c><c>   2</c></rc>
    <rc><c>N </c><c>   2</c></rc>
    <rc><c>N </c><c>   2</c></rc>
    <rc><c>N </c><c>   2</c></rc>
    <rc><c>N </c><c>   2</c></rc>
    <rc><c>N </c><c>   2</c></rc>
    <rc><c>N </c><c>   2</c></rc>
    <rc><c>N </c><c>   2</c></rc>
    <rc><c>N </c><c>   2</c></rc>
    <rc><c>N </c><c>   2</c></rc>
    <rc><c>N </c><c>   2</c></rc>
    <rc><c>N </c><c>   2</c></rc>
    <rc><c>N </c><c>   2</c></rc>
    <rc><c>N </c><c>   2</c></rc>
    <rc><c>N </c><c>   2</c></rc>
    <rc><c>N </c><c>   2</c></rc>
    <rc><c>N </c><c>   2</c></rc>
    <rc><c>N </c><c>   2</c></rc>
    <rc><c>N </c><c>   2</c></rc>
    <rc><c>N </c><c>   2</c></rc>
    <rc><c>N </c><c>   2</c></rc>
    <rc><c>N </c><c>   2</c></rc>
    <rc><c>N </c><c>   2</c></rc>
    <rc><c>N </c><c>   2</c></rc>
    <rc><c>N </c><c>   2</c></rc>
    <rc><c>N </c><c>   2</c></rc>
    <rc><c>N </c><c>   2</c></rc>
    <rc><c>N </c><c>   2</c></rc>
    <rc><c>N </c><c>   2</c></rc>
    <rc><c>Ag</c><c>   3</c></rc>
    <rc><c>Cu</c><c>   4</c></rc>
   </set>
  </array>
  <array name="atomtypes" >
   <dimension dim="1">type</dimension>
   <field type="int">atomspertype</field>
   <field type="string">element</field>
   <field>mass</field>
   <field>valence</field>
   <field type="string">pseudopotential</field>
   <set>
    <rc><c>  24</c><c>C </c><c>     12.01100000</c><c>      4.00000000</c><c>  PAW_PBE C 08Apr2002                   </c></rc>
    <rc><c>  32</c><c>N </c><c>     14.00100000</c><c>      5.00000000</c><c>  PAW_PBE N 08Apr2002                   </c></rc>
    <rc><c>   1</c><c>Ag</c><c>    107.86800000</c><c>     11.00000000</c><c>  PAW_PBE Ag 02Apr2005                  </c></rc>
    <rc><c>   1</c><c>Cu</c><c>     63.54600000</c><c>     11.00000000</c><c>  PAW_PBE Cu 22Jun2005                  </c></rc>
   </set>
  </array>
 </atominfo>
 <structure name="initialpos" >
  <crystal>
   <varray name="basis" >
    <v>      14.26590000       0.00000000       0.00000000 </v>
    <v>       0.00000000      12.35699650       0.00000000 </v>
    <v>       0.00000000       0.00000000      15.00000000 </v>
   </varray>
   <i name="volume">   2644.25514646 </i>
   <varray name="rec_basis" >
    <v>       0.07009722       0.00000000       0.00000000 </v>
    <v>       0.00000000       0.08092581       0.00000000 </v>
    <v>       0.00000000       0.00000000       0.06666667 </v>
   </varray>
  </crystal>
  <varray name="positions" >
   <v>       0.06537593       0.40364000       0.13333000 </v>
   <v>       0.98097748       0.23494000       0.13333000 </v>
   <v>       0.22593437       0.39820000       0.13333000 </v>
   <v>       0.81543575       0.57710000       0.13333000 </v>
   <v>       0.14973747       0.23490000       0.13333000 </v>
   <v>       0.90517930       0.39797000       0.13333000 </v>
   <v>       0.56537593       0.40364000       0.13333000 </v>
   <v>       0.48097748       0.23494000       0.13333000 </v>
   <v>       0.72593437       0.39820000       0.13333000 </v>
   <v>       0.31543575       0.57710000       0.13333000 </v>
   <v>       0.64973747       0.23490000       0.13333000 </v>
   <v>       0.40517930       0.39797000       0.13333000 </v>
   <v>       0.81551954       0.90364000       0.13333000 </v>
   <v>       0.73112108       0.73494000       0.13333000 </v>
   <v>       0.97607797       0.89820000       0.13333000 </v>
   <v>       0.06529214       0.07710000       0.13333000 </v>
   <v>       0.89988107       0.73490000       0.13333000 </v>
   <v>       0.65532291       0.89797000       0.13333000 </v>
   <v>       0.31551954       0.90364000       0.13333000 </v>
   <v>       0.23112108       0.73494000       0.13333000 </v>
   <v>       0.47607797       0.89820000       0.13333000 </v>
   <v>       0.56529214       0.07710000       0.13333000 </v>
   <v>       0.39988107       0.73490000       0.13333000 </v>
   <v>       0.15532291       0.89797000       0.13333000 </v>
   <v>       0.98400093       0.45588000       0.13333000 </v>
   <v>       0.90111835       0.29021000       0.13333000 </v>
   <v>       0.14710595       0.45595000       0.13333000 </v>
   <v>       0.14840652       0.12714000       0.13333000 </v>
   <v>       0.98256150       0.12707000       0.13333000 </v>
   <v>       0.22992331       0.29008000       0.13333000 </v>
   <v>       0.06536362       0.29116000       0.13333000 </v>
   <v>       0.81553147       0.45774000       0.13333000 </v>
   <v>       0.48400093       0.45588000       0.13333000 </v>
   <v>       0.40111835       0.29021000       0.13333000 </v>
   <v>       0.64710595       0.45595000       0.13333000 </v>
   <v>       0.64840652       0.12714000       0.13333000 </v>
   <v>       0.48256150       0.12707000       0.13333000 </v>
   <v>       0.72992331       0.29008000       0.13333000 </v>
   <v>       0.56536362       0.29116000       0.13333000 </v>
   <v>       0.31553147       0.45774000       0.13333000 </v>
   <v>       0.73414454       0.95588000       0.13333000 </v>
   <v>       0.65126196       0.79021000       0.13333000 </v>
   <v>       0.89724956       0.95595000       0.13333000 </v>
   <v>       0.89855012       0.62714000       0.13333000 </v>
   <v>       0.73270510       0.62707000       0.13333000 </v>
   <v>       0.98006692       0.79008000       0.13333000 </v>
   <v>       0.81550723       0.79116000       0.13333000 </v>
   <v>       0.56567507       0.95774000       0.13333000 </v>
   <v>       0.23414454       0.95588000       0.13333000 </v>
   <v>       0.15126196       0.79021000       0.13333000 </v>
   <v>       0.39724956       0.95595000       0.13333000 </v>
   <v>       0.39855012       0.62714000       0.13333000 </v>
   <v>       0.23270510       0.62707000       0.13333000 </v>
   <v>       0.48006692       0.79008000       0.13333000 </v>
   <v>       0.31550723       0.79116000       0.13333000 </v>
   <v>       0.06567507       0.95774000       0.13333000 </v>
   <v>       0.51318019       0.65760505       0.14333042 </v>
   <v>       0.63498818       0.58816656       0.13951958 </v>
  </varray>
 </structure>
 <calculation>
  <scstep>
   <time name="dav">    1.80    1.80</time>
   <time name="total">    1.84    1.85</time>
   <dipole>
    <v name="dipole">      0.00000000       0.00000000       0.00045133 </v>
    <i name="Tr[quadrupol]">  -8802.21520620 </i>
    <i name="Echarged">      0.00000000 </i>
    <i name="Edipol_quadrupol">      0.00000000 </i>
    <i name="Eion">      0.00000000 </i>
   </dipole>
   <energy>
    <i name="alphaZ">    139.44131850 </i>
    <i name="ewald">  30552.72364060 </i>
    <i name="hartreedc"> -42215.71390431 </i>
    <i name="XCdc">    994.71820370 </i>
    <i name="pawpsdc">  11394.04533391 </i>
    <i name="pawaedc"> -11505.55149640 </i>
    <i name="eentropy">     -0.08698100 </i>
    <i name="bandstr">  -1112.62505623 </i>
    <i name="atom">  14422.46951874 </i>
    <i name="e_fr_energy">   2669.42057749 </i>
    <i name="e_wo_entrp">   2669.50755850 </i>
    <i name="e_0_energy">   2669.46406799 </i>
   </energy>
  </scstep>
  <scstep>
   <time name="dav">    2.07    2.07</time>
   <time name="total">    2.07    2.07</time>
   <dipole>
    <v name="dipole">      0.00000000       0.00000000       0.00045133 </v>
    <i name="Tr[quadrupol]">  -8802.21520620 </i>
    <i name="Echarged">      0.00000000 </i>
    <i name="Edipol_quadrupol">      0.00000000 </i>
    <i name="Eion">      0.00000000 </i>
   </dipole>
   <energy>
    <i name="e_fr_energy">     83.58026070 </i>
    <i name="e_wo_entrp">     83.58819413 </i>
    <i name="e_0_energy">     83.58422742 </i>
   </energy>
  </scstep>
  <scstep>
   <time name="dav">    1.90    1.90</time>
   <time name="total">    1.90    1.90</time>
   <dipole>
    <v name="dipole">      0.00000000       0.00000000       0.00045133 </v>
    <i name="Tr[quadrupol]">  -8802.21520620 </i>
    <i name="Echarged">      0.00000000 </i>
    <i name="Edipol_quadrupol">      0.00000000 </i>
    <i name="Eion">      0.00000000 </i>
   </dipole>
   <energy>
    <i name="e_fr_energy">   -471.62120702 </i>
    <i name="e_wo_entrp">   -471.56270289 </i>
    <i name="e_0_energy">   -471.59195495 </i>
   </energy>
  </scstep>
  <scstep>
   <time name="dav">    2.11    2.12</time>
   <time name="total">    2.12    2.12</time>
   <dipole>
    <v name="dipole">      0.00000000       0.00000000       0.00045133 </v>
    <i name="Tr[quadrupol]">  -8802.21520620 </i>
    <i name="Echarged">      0.00000000 </i>
    <i name="Edipol_quadrupol">      0.00000000 </i>
    <i name="Eion">      0.00000000 </i>
   </dipole>
   <energy>
    <i name="e_fr_energy">   -502.20002969 </i>
    <i name="e_wo_entrp">   -502.07274815 </i>
    <i name="e_0_energy">   -502.13638892 </i>
   </energy>
  </scstep>
  <scstep>
   <time name="dav">    1.94    1.94</time>
   <time name="total">    1.99    1.99</time>
   <dipole>
    <v name="dipole">      0.00000000       0.00000000       0.00045133 </v>
    <i name="Tr[quadrupol]">  -8802.21520620 </i>
    <i name="Echarged">      0.00000000 </i>
    <i name="Edipol_quadrupol">      0.00000000 </i>
    <i name="Eion">      0.00000000 </i>
   </dipole>
   <energy>
    <i name="e_fr_energy">   -503.08931211 </i>
    <i name="e_wo_entrp">   -502.95883406 </i>
    <i name="e_0_energy">   -503.02407309 </i>
   </energy>
  </scstep>
  <scstep>
   <time name="dav">    2.15    2.15</time>
   <time name="total">    2.24    2.24</time>
   <dipole>
    <v name="dipole">      0.00000000       0.00000000      -0.03352331 </v>
    <i name="Tr[quadrupol]">  -8803.52595485 </i>
    <i name="Echarged">      0.00000000 </i>
    <i name="Edipol_quadrupol">      0.00000000 </i>
    <i name="Eion">      0.00000000 </i>
   </dipole>
   <energy>
    <i name="e_fr_energy">   -480.68877279 </i>
    <i name="e_wo_entrp">   -480.68877279 </i>
    <i name="e_0_energy">   -480.68877279 </i>
   </energy>
  </scstep>
  <scstep>
   <time name="dav">    2.06    2.06</time>
   <time name="total">    2.14    2.14</time>
   <dipole>
    <v name="dipole">      0.00000000       0.00000000       0.01767665 </v>
    <i name="Tr[quadrupol]">  -8804.38758482 </i>
    <i name="Echarged">      0.00000000 </i>
    <i name="Edipol_quadrupol">      0.00000000 </i>
    <i name="Eion">      0.00000000 </i>
   </dipole>
   <energy>
    <i name="e_fr_energy">   -460.87469089 </i>
    <i name="e_wo_entrp">   -460.75067127 </i>
    <i name="e_0_energy">   -460.81268108 </i>
   </energy>
  </scstep>
  <scstep>
   <time name="dav">    2.17    2.17</time>
   <time name="total">    2.25    2.25</time>
   <dipole>
    <v name="dipole">      0.00000000       0.00000000      -0.05114523 </v>
    <i name="Tr[quadrupol]">  -8805.55030747 </i>
    <i name="Echarged">      0.00000000 </i>
    <i name="Edipol_quadrupol">      0.00000000 </i>
    <i name="Eion">      0.00000000 </i>
   </dipole>
   <energy>
    <i name="e_fr_energy">   -462.55127478 </i>
    <i name="e_wo_entrp">   -462.45211706 </i>
    <i name="e_0_energy">   -462.50169592 </i>
   </energy>
  </scstep>
  <scstep>
   <time name="dav">    2.16    2.16</time>
   <time name="total">    2.25    2.25</time>
   <dipole>
    <v name="dipole">      0.00000000       0.00000000       0.00079025 </v>
    <i name="Tr[quadrupol]">  -8806.37157138 </i>
    <i name="Echarged">      0.00000000 </i>
    <i name="Edipol_quadrupol">      0.00000000 </i>
    <i name="Eion">      0.00000000 </i>
   </dipole>
   <energy>
    <i name="e_fr_energy">   -463.11882161 </i>
    <i name="e_wo_entrp">   -463.04846868 </i>
    <i name="e_0_energy">   -463.08364515 </i>
   </energy>
  </scstep>
  <scstep>
   <time name="dav">    2.14    2.14</time>
   <time name="total">    2.22    2.22</time>
   <dipole>
    <v name="dipole">      0.00000000       0.00000000      -0.00901612 </v>
    <i name="Tr[quadrupol]">  -8807.20123991 </i>
    <i name="Echarged">      0.00000000 </i>
    <i name="Edipol_quadrupol">      0.00000000 </i>
    <i name="Eion">      0.00000000 </i>
   </dipole>
   <energy>
    <i name="e_fr_energy">   -460.46057973 </i>
    <i name="e_wo_entrp">   -460.32014190 </i>
    <i name="e_0_energy">   -460.39036081 </i>
   </energy>
  </scstep>
  <scstep>
   <time name="dav">    2.12    2.12</time>
   <time name="total">    2.21    2.21</time>
   <dipole>
    <v name="dipole">      0.00000000       0.00000000      -0.02976115 </v>
    <i name="Tr[quadrupol]">  -8807.30908653 </i>
    <i name="Echarged">      0.00000000 </i>
    <i name="Edipol_quadrupol">      0.00000000 </i>
    <i name="Eion">      0.00000000 </i>
   </dipole>
   <energy>
    <i name="e_fr_energy">   -461.04647203 </i>
    <i name="e_wo_entrp">   -460.94103387 </i>
    <i name="e_0_energy">   -460.99375295 </i>
   </energy>
  </scstep>
  <scstep>
   <time name="dav">    2.21    2.21</time>
   <time name="total">    2.29    2.29</time>
   <dipole>
    <v name="dipole">      0.00000000       0.00000000      -0.03023479 </v>
    <i name="Tr[quadrupol]">  -8807.65325190 </i>
    <i name="Echarged">      0.00000000 </i>
    <i name="Edipol_quadrupol">      0.00000000 </i>
    <i name="Eion">      0.00000000 </i>
   </dipole>
   <energy>
    <i name="e_fr_energy">   -460.90135683 </i>
    <i name="e_wo_entrp">   -460.78743941 </i>
    <i name="e_0_energy">   -460.84439812 </i>
   </energy>
  </scstep>
  <scstep>
   <time name="dav">    2.13    2.13</time>
   <time name="total">    2.21    2.21</time>
   <dipole>
    <v name="dipole">      0.00000000       0.00000000      -0.01526083 </v>
    <i name="Tr[quadrupol]">  -8808.12841604 </i>
    <i name="Echarged">      0.00000000 </i>
    <i name="Edipol_quadrupol">      0.00000000 </i>
    <i name="Eion">      0.00000000 </i>
   </dipole>
   <energy>
    <i name="e_fr_energy">   -460.59137533 </i>
    <i name="e_wo_entrp">   -460.48709906 </i>
    <i name="e_0_energy">   -460.53923720 </i>
   </energy>
  </scstep>
  <scstep>
   <time name="dav">    2.13    2.13</time>
   <time name="total">    2.21    2.21</time>
   <dipole>
    <v name="dipole">      0.00000000       0.00000000      -0.00789276 </v>
    <i name="Tr[quadrupol]">  -8808.83508754 </i>
    <i name="Echarged">      0.00000000 </i>
    <i name="Edipol_quadrupol">      0.00000000 </i>
    <i name="Eion">      0.00000000 </i>
   </dipole>
   <energy>
    <i name="e_fr_energy">   -460.40078131 </i>
    <i name="e_wo_entrp">   -460.29916267 </i>
    <i name="e_0_energy">   -460.34997199 </i>
   </energy>
  </scstep>
  <scstep>
   <time name="dav">    2.15    2.15</time>
   <time name="total">    2.23    2.23</time>
   <dipole>
    <v name="dipole">      0.00000000       0.00000000      -0.00936523 </v>
    <i name="Tr[quadrupol]">  -8809.15071317 </i>
    <i name="Echarged">      0.00000000 </i>
    <i name="Edipol_quadrupol">      0.00000000 </i>
    <i name="Eion">      0.00000000 </i>
   </dipole>
   <energy>
    <i name="e_fr_energy">   -460.37908001 </i>
    <i name="e_wo_entrp">   -460.27468701 </i>
    <i name="e_0_energy">   -460.32688351 </i>
   </energy>
  </scstep>
  <scstep>
   <time name="dav">    2.15    2.15</time>
   <time name="total">    2.23    2.23</time>
   <dipole>
    <v name="dipole">      0.00000000       0.00000000      -0.00774800 </v>
    <i name="Tr[quadrupol]">  -8809.43007577 </i>
    <i name="Echarged">      0.00000000 </i>
    <i name="Edipol_quadrupol">      0.00000000 </i>
    <i name="Eion">      0.00000000 </i>
   </dipole>
   <energy>
    <i name="e_fr_energy">   -460.36432195 </i>
    <i name="e_wo_entrp">   -460.25046170 </i>
    <i name="e_0_energy">   -460.30739182 </i>
   </energy>
  </scstep>
  <scstep>
   <time name="dav">    1.97    1.97</time>
   <time name="total">    2.05    2.05</time>
   <dipole>
    <v name="dipole">      0.00000000       0.00000000      -0.00570813 </v>
    <i name="Tr[quadrupol]">  -8810.02355297 </i>
    <i name="Echarged">      0.00000000 </i>
    <i name="Edipol_quadrupol">      0.00000000 </i>
    <i name="Eion">      0.00000000 </i>
   </dipole>
   <energy>
    <i name="e_fr_energy">   -460.36011441 </i>
    <i name="e_wo_entrp">   -460.23390707 </i>
    <i name="e_0_energy">   -460.29701074 </i>
   </energy>
  </scstep>
  <scstep>
   <time name="dav">    2.01    2.01</time>
   <time name="total">    2.10    2.12</time>
   <dipole>
    <v name="dipole">      0.00000000       0.00000000      -0.01307161 </v>
    <i name="Tr[quadrupol]">  -8810.57527853 </i>
    <i name="Echarged">      0.00000000 </i>
    <i name="Edipol_quadrupol">      0.00000000 </i>
    <i name="Eion">      0.00000000 </i>
   </dipole>
   <energy>
    <i name="e_fr_energy">   -460.36305234 </i>
    <i name="e_wo_entrp">   -460.22646724 </i>
    <i name="e_0_energy">   -460.29475979 </i>
   </energy>
  </scstep>
  <scstep>
   <time name="dav">    2.04    2.04</time>
   <time name="total">    2.13    2.13</time>
   <dipole>
    <v name="dipole">      0.00000000       0.00000000      -0.02225761 </v>
    <i name="Tr[quadrupol]">  -8810.81401887 </i>
    <i name="Echarged">      0.00000000 </i>
    <i name="Edipol_quadrupol">      0.00000000 </i>
    <i name="Eion">      0.00000000 </i>
   </dipole>
   <energy>
    <i name="e_fr_energy">   -460.36065321 </i>
    <i name="e_wo_entrp">   -460.23349500 </i>
    <i name="e_0_energy">   -460.29707410 </i>
   </energy>
  </scstep>
  <scstep>
   <time name="dav">    2.04    2.04</time>
   <time name="total">    2.12    2.13</time>
   <dipole>
    <v name="dipole">      0.00000000       0.00000000      -0.02517423 </v>
    <i name="Tr[quadrupol]">  -8811.61721671 </i>
    <i name="Echarged">      0.00000000 </i>
    <i name="Edipol_quadrupol">      0.00000000 </i>
    <i name="Eion">      0.00000000 </i>
   </dipole>
   <energy>
    <i name="e_fr_energy">   -460.36564087 </i>
    <i name="e_wo_entrp">   -460.23000702 </i>
    <i name="e_0_energy">   -460.29782395 </i>
   </energy>
  </scstep>
  <scstep>
   <time name="dav">    2.08    2.08</time>
   <time name="total">    2.16    2.16</time>
   <dipole>
    <v name="dipole">      0.00000000       0.00000000       0.09222069 </v>
    <i name="Tr[quadrupol]">  -8812.35117275 </i>
    <i name="Echarged">      0.00000000 </i>
    <i name="Edipol_quadrupol">      0.00000000 </i>
    <i name="Eion">      0.00000000 </i>
   </dipole>
   <energy>
    <i name="e_fr_energy">   -460.36857536 </i>
    <i name="e_wo_entrp">   -460.24702213 </i>
    <i name="e_0_energy">   -460.30779875 </i>
   </energy>
  </scstep>
  <scstep>
   <time name="dav">    1.95    1.95</time>
   <time name="total">    2.04    2.04</time>
   <dipole>
    <v name="dipole">      0.00000000       0.00000000       0.13743728 </v>
    <i name="Tr[quadrupol]">  -8812.71206037 </i>
    <i name="Echarged">      0.00000000 </i>
    <i name="Edipol_quadrupol">      0.00000000 </i>
    <i name="Eion">      0.00000000 </i>
   </dipole>
   <energy>
    <i name="e_fr_energy">   -460.36894795 </i>
    <i name="e_wo_entrp">   -460.24174020 </i>
    <i name="e_0_energy">   -460.30534408 </i>
   </energy>
  </scstep>
  <scstep>
   <time name="dav">    1.98    1.98</time>
   <time name="total">    2.06    2.06</time>
   <dipole>
    <v name="dipole">      0.00000000       0.00000000       0.12028169 </v>
    <i name="Tr[quadrupol]">  -8812.96043941 </i>
    <i name="Echarged">      0.00000000 </i>
    <i name="Edipol_quadrupol">      0.00000000 </i>
    <i name="Eion">      0.00000000 </i>
   </dipole>
   <energy>
    <i name="e_fr_energy">   -460.36963547 </i>
    <i name="e_wo_entrp">   -460.24321231 </i>
    <i name="e_0_energy">   -460.30642389 </i>
   </energy>
  </scstep>
  <scstep>
   <time name="dav">    2.11    2.11</time>
   <time name="total">    2.19    2.19</time>
   <dipole>
    <v name="dipole">      0.00000000       0.00000000       0.07864168 </v>
    <i name="Tr[quadrupol]">  -8813.19191004 </i>
    <i name="Echarged">      0.00000000 </i>
    <i name="Edipol_quadrupol">      0.00000000 </i>
    <i name="Eion">      0.00000000 </i>
   </dipole>
   <energy>
    <i name="e_fr_energy">   -460.37120406 </i>
    <i name="e_wo_entrp">   -460.23929026 </i>
    <i name="e_0_energy">   -460.30524716 </i>
   </energy>
  </scstep>
  <scstep>
   <time name="dav">    2.00    2.00</time>
   <time name="total">    2.09    2.09</time>
   <dipole>
    <v name="dipole">      0.00000000       0.00000000       0.05094615 </v>
    <i name="Tr[quadrupol]">  -8813.30371288 </i>
    <i name="Echarged">      0.00000000 </i>
    <i name="Edipol_quadrupol">      0.00000000 </i>
    <i name="Eion">      0.00000000 </i>
   </dipole>
   <energy>
    <i name="e_fr_energy">   -460.37227151 </i>
    <i name="e_wo_entrp">   -460.24486616 </i>
    <i name="e_0_energy">   -460.30856884 </i>
   </energy>
  </scstep>
  <scstep>
   <time name="dav">    1.92    1.92</time>
   <time name="total">    2.01    2.01</time>
   <dipole>
    <v name="dipole">      0.00000000       0.00000000       0.02122858 </v>
    <i name="Tr[quadrupol]">  -8813.42076326 </i>
    <i name="Echarged">      0.00000000 </i>
    <i name="Edipol_quadrupol">      0.00000000 </i>
    <i name="Eion">      0.00000000 </i>
   </dipole>
   <energy>
    <i name="e_fr_energy">   -460.37377864 </i>
    <i name="e_wo_entrp">   -460.24524267 </i>
    <i name="e_0_energy">   -460.30951065 </i>
   </energy>
  </scstep>
  <scstep>
   <time name="dav">    1.78    1.78</time>
   <time name="total">    1.86    1.86</time>
   <dipole>
    <v name="dipole">      0.00000000       0.00000000       0.00148341 </v>
    <i name="Tr[quadrupol]">  -8813.50194646 </i>
    <i name="Echarged">      0.00000000 </i>
    <i name="Edipol_quadrupol">      0.00000000 </i>
    <i name="Eion">      0.00000000 </i>
   </dipole>
   <energy>
    <i name="e_fr_energy">   -460.37468040 </i>
    <i name="e_wo_entrp">   -460.24705296 </i>
    <i name="e_0_energy">   -460.31086668 </i>
   </energy>
  </scstep>
  <scstep>
   <time name="dav">    1.41    1.41</time>
   <time name="total">    1.49    1.49</time>
   <dipole>
    <v name="dipole">      0.00000000       0.00000000      -0.01115938 </v>
    <i name="Tr[quadrupol]">  -8813.55669177 </i>
    <i name="Echarged">      0.00000000 </i>
    <i name="Edipol_quadrupol">      0.00000000 </i>
    <i name="Eion">      0.00000000 </i>
   </dipole>
   <energy>
    <i name="e_fr_energy">   -460.37523748 </i>
    <i name="e_wo_entrp">   -460.24691895 </i>
    <i name="e_0_energy">   -460.31107821 </i>
   </energy>
  </scstep>
  <scstep>
   <time name="dav">    1.57    1.57</time>
   <time name="total">    1.65    1.65</time>
   <dipole>
    <v name="dipole">      0.00000000       0.00000000      -0.02343750 </v>
    <i name="Tr[quadrupol]">  -8813.60615660 </i>
    <i name="Echarged">      0.00000000 </i>
    <i name="Edipol_quadrupol">      0.00000000 </i>
    <i name="Eion">      0.00000000 </i>
   </dipole>
   <energy>
    <i name="e_fr_energy">   -460.37567467 </i>
    <i name="e_wo_entrp">   -460.24796757 </i>
    <i name="e_0_energy">   -460.31182112 </i>
   </energy>
  </scstep>
  <scstep>
   <time name="dav">    1.22    1.22</time>
   <time name="total">    1.31    1.31</time>
   <dipole>
    <v name="dipole">      0.00000000       0.00000000      -0.02714160 </v>
    <i name="Tr[quadrupol]">  -8813.62023690 </i>
    <i name="Echarged">      0.00000000 </i>
    <i name="Edipol_quadrupol">      0.00000000 </i>
    <i name="Eion">      0.00000000 </i>
   </dipole>
   <energy>
    <i name="e_fr_energy">   -460.37580013 </i>
    <i name="e_wo_entrp">   -460.24756772 </i>
    <i name="e_0_energy">   -460.31168392 </i>
   </energy>
  </scstep>
  <scstep>
   <time name="dav">    1.21    1.21</time>
   <time name="total">    1.29    1.29</time>
   <dipole>
    <v name="dipole">      0.00000000       0.00000000      -0.02885504 </v>
    <i name="Tr[quadrupol]">  -8813.62887341 </i>
    <i name="Echarged">      0.00000000 </i>
    <i name="Edipol_quadrupol">      0.00000000 </i>
    <i name="Eion">      0.00000000 </i>
   </dipole>
   <energy>
    <i name="e_fr_energy">   -460.37584991 </i>
    <i name="e_wo_entrp">   -460.24747546 </i>
    <i name="e_0_energy">   -460.31166268 </i>
   </energy>
  </scstep>
  <scstep>
   <time name="dav">    1.27    1.27</time>
   <time name="total">    1.36    1.36</time>
   <dipole>
    <v name="dipole">      0.00000000       0.00000000      -0.02938959 </v>
    <i name="Tr[quadrupol]">  -8813.63356284 </i>
    <i name="Echarged">      0.00000000 </i>
    <i name="Edipol_quadrupol">      0.00000000 </i>
    <i name="Eion">      0.00000000 </i>
   </dipole>
   <energy>
    <i name="e_fr_energy">   -460.37586730 </i>
    <i name="e_wo_entrp">   -460.24794239 </i>
    <i name="e_0_energy">   -460.31190485 </i>
   </energy>
  </scstep>
  <scstep>
   <time name="dav">    1.20    1.20</time>
   <time name="total">    1.24    1.24</time>
   <dipole>
    <v name="dipole">      0.00000000       0.00000000      -0.02959012 </v>
    <i name="Tr[quadrupol]">  -8813.63613529 </i>
    <i name="Echarged">      0.00000000 </i>
    <i name="Edipol_quadrupol">      0.00000000 </i>
    <i name="Eion">      0.00000000 </i>
   </dipole>
   <energy>
    <i name="alphaZ">    138.79152998 </i>
    <i name="ewald">  30552.72364060 </i>
    <i name="hartreedc"> -43005.23317146 </i>
    <i name="XCdc">   1026.70853199 </i>
    <i name="pawpsdc">  31338.96033699 </i>
    <i name="pawaedc"> -31480.57177882 </i>
    <i name="eentropy">     -0.12811463 </i>
    <i name="bandstr">  -3454.09636605 </i>
    <i name="atom">  14422.46951874 </i>
    <i name="e_fr_energy">   -460.37587266 </i>
    <i name="e_wo_entrp">   -460.24775803 </i>
    <i name="e_0_energy">   -460.31181534 </i>
   </energy>
  </scstep>
  <structure>
   <crystal>
    <varray name="basis" >
     <v>      14.26590000       0.00000000       0.00000000 </v>
     <v>       0.00000000      12.35699650       0.00000000 </v>
     <v>       0.00000000       0.00000000      15.00000000 </v>
    </varray>
    <i name="volume">   2644.25514646 </i>
    <varray name="rec_basis" >
     <v>       0.07009722       0.00000000       0.00000000 </v>
     <v>       0.00000000       0.08092581       0.00000000 </v>
     <v>       0.00000000       0.00000000       0.06666667 </v>
    </varray>
   </crystal>
   <varray name="positions" >
    <v>       0.06537593       0.40364000       0.13333000 </v>
    <v>       0.98097748       0.23494000       0.13333000 </v>
    <v>       0.22593437       0.39820000       0.13333000 </v>
    <v>       0.81543575       0.57710000       0.13333000 </v>
    <v>       0.14973747       0.23490000       0.13333000 </v>
    <v>       0.90517930       0.39797000       0.13333000 </v>
    <v>       0.56537593       0.40364000       0.13333000 </v>
    <v>       0.48097748       0.23494000       0.13333000 </v>
    <v>       0.72593437       0.39820000       0.13333000 </v>
    <v>       0.31543575       0.57710000       0.13333000 </v>
    <v>       0.64973747       0.23490000       0.13333000 </v>
    <v>       0.40517930       0.39797000       0.13333000 </v>
    <v>       0.81551954       0.90364000       0.13333000 </v>
    <v>       0.73112108       0.73494000       0.13333000 </v>
    <v>       0.97607797       0.89820000       0.13333000 </v>
    <v>       0.06529214       0.07710000       0.13333000 </v>
    <v>       0.89988107       0.73490000       0.13333000 </v>
    <v>       0.65532291       0.89797000       0.13333000 </v>
    <v>       0.31551954       0.90364000       0.13333000 </v>
    <v>       0.23112108       0.73494000       0.13333000 </v>
    <v>       0.47607797       0.89820000       0.13333000 </v>
    <v>       0.56529214       0.07710000       0.13333000 </v>
    <v>       0.39988107       0.73490000       0.13333000 </v>
    <v>       0.15532291       0.89797000       0.13333000 </v>
    <v>       0.98400093       0.45588000       0.13333000 </v>
    <v>       0.90111835       0.29021000       0.13333000 </v>
    <v>       0.14710595       0.45595000       0.13333000 </v>
    <v>       0.14840652       0.12714000       0.13333000 </v>
    <v>       0.98256150       0.12707000       0.13333000 </v>
    <v>       0.22992331       0.29008000       0.13333000 </v>
    <v>       0.06536362       0.29116000       0.13333000 </v>
    <v>       0.81553147       0.45774000       0.13333000 </v>
    <v>       0.48400093       0.45588000       0.13333000 </v>
    <v>       0.40111835       0.29021000       0.13333000 </v>
    <v>       0.64710595       0.45595000       0.13333000 </v>
    <v>       0.64840652       0.12714000       0.13333000 </v>
    <v>       0.48256150       0.12707000       0.13333000 </v>
    <v>       0.72992331       0.29008000       0.13333000 </v>
    <v>       0.56536362       0.29116000       0.13333000 </v>
    <v>       0.31553147       0.45774000       0.13333000 </v>
    <v>       0.73414454       0.95588000       0.13333000 </v>
    <v>       0.65126196       0.79021000       0.13333000 </v>
    <v>       0.89724956       0.95595000       0.13333000 </v>
    <v>       0.89855012       0.62714000       0.13333000 </v>
    <v>       0.73270510       0.62707000       0.13333000 </v>
    <v>       0.98006692       0.79008000       0.13333000 </v>
    <v>       0.81550723       0.79116000       0.13333000 </v>
    <v>       0.56567507       0.95774000       0.13333000 </v>
    <v>       0.23414454       0.95588000       0.13333000 </v>
    <v>       0.15126196       0.79021000       0.13333000 </v>
    <v>       0.39724956       0.95595000       0.13333000 </v>
    <v>       0.39855012       0.62714000       0.13333000 </v>
    <v>       0.23270510       0.62707000       0.13333000 </v>
    <v>       0.48006692       0.79008000       0.13333000 </v>
    <v>       0.31550723       0.79116000       0.13333000 </v>
    <v>       0.06567507       0.95774000       0.13333000 </v>
    <v>       0.51318019       0.65760505       0.14333042 </v>
    <v>       0.63498818       0.58816656       0.13951958 </v>
   </varray>
  </structure>
  <varray name="forces" >
   <v>       0.23058625       0.23476542       0.00048827 </v>
   <v>      -0.04587657      -0.39436033      -0.00042260 </v>
   <v>      -0.04189735      -0.24890539       0.00357261 </v>
   <v>       2.54383345      -1.55238183      -0.03614358 </v>
   <v>       0.24795187      -0.23875893      -0.00212261 </v>
   <v>       0.17010303      -0.13168939       0.00322171 </v>
   <v>      -0.93220164      -1.48538829      -0.06784122 </v>
   <v>      -0.63783772      -1.00912719      -0.00725876 </v>
   <v>       2.73389467      -1.30601269      -0.02252997 </v>
   <v>      -1.57549738      -1.65215033       0.04071438 </v>
   <v>       0.61871345      -1.02274613      -0.00693911 </v>
   <v>      -2.07738796      -0.40868731       0.00664152 </v>
   <v>       0.56285593       0.86325064       0.00517406 </v>
   <v>       1.37046758       2.12833837      -0.08635080 </v>
   <v>       0.47833766       0.07379387      -0.00574862 </v>
   <v>       0.20636520      -0.09496851       0.00197331 </v>
   <v>       0.96445599      -0.05808552      -0.00283056 </v>
   <v>      -0.76008424       1.81888878      -0.00487901 </v>
   <v>      -0.20323281       1.19799934      -0.01295117 </v>
   <v>      -1.07222607      -0.48062396       0.01213731 </v>
   <v>       0.84635267       2.23230084      -0.04236700 </v>
   <v>       0.18658857      -0.35622970       0.01414503 </v>
   <v>      -7.07573338       4.19002642      -0.62464690 </v>
   <v>      -0.55981777       0.33658700      -0.02127699 </v>
   <v>      -0.09289468       0.17756150       0.00166167 </v>
   <v>      -0.20006317       0.03096831      -0.00030199 </v>
   <v>      -0.19587012       0.10743187       0.00705288 </v>
   <v>      -0.00315460       0.09451744       0.00031559 </v>
   <v>      -0.19415603       0.23161211       0.00154689 </v>
   <v>       0.03453926       0.06870091      -0.00239367 </v>
   <v>       0.00349469       0.00504452      -0.00171803 </v>
   <v>      -0.66910819       0.35766346      -0.01160775 </v>
   <v>       1.74331195       0.02224042       0.02742542 </v>
   <v>       0.32706112       0.23466606       0.02232118 </v>
   <v>      -1.56756017      -6.29252281      -0.15952013 </v>
   <v>       0.23263081       0.66650387      -0.00987064 </v>
   <v>      -0.38173328       0.73047666      -0.00300209 </v>
   <v>      -0.45599476       0.66401631       0.00903872 </v>
   <v>       0.14361909       0.73278570      -0.03024848 </v>
   <v>       0.53588212       0.22585011      -0.01076478 </v>
   <v>      -0.03990759      -0.29397609       0.02525547 </v>
   <v>       0.88016790      -1.11837941      -0.08888627 </v>
   <v>      -0.80287312      -0.06731361      -0.01756538 </v>
   <v>      -0.69450459       0.10337958       0.01129449 </v>
   <v>      14.27776420       6.95207013      -1.00931210 </v>
   <v>      -0.41655316      -0.38188175      -0.01581117 </v>
   <v>      -0.33816012      -0.33891947       0.06655438 </v>
   <v>       0.00576207      -0.35424554       0.00968136 </v>
   <v>       0.72522021      -0.04138990       0.00555289 </v>
   <v>       0.36560080      -0.54172455      -0.00490217 </v>
   <v>      -0.25076274      -0.45365051       0.07647974 </v>
   <v>     -13.41647517      -2.46567850      -1.66700163 </v>
   <v>       0.22574551       0.45450916       0.01884850 </v>
   <v>      -3.96594317      11.09914794      -1.32160580 </v>
   <v>       0.55092782      -0.34270843       0.10740161 </v>
   <v>      -0.06113549      -0.10890242       0.01242181 </v>
   <v>      14.04375827      -8.10915229       3.84331967 </v>
   <v>      -6.52734913      -4.68453600       0.96458047 </v>
  </varray>
  <varray name="stress" >
   <v>      46.17175464      -3.23720715       0.91071751 </v>
   <v>      -3.23720719      27.50565151      -0.99815197 </v>
   <v>       0.91071753      -0.99815201     -12.11560082 </v>
  </varray>
  <energy>
   <i name="e_fr_energy">   -460.37587266 </i>
   <i name="e_wo_entrp">   -460.24775803 </i>
   <i name="e_0_energy">   -460.31181534 </i>
  </energy>
  <time name="totalsc">   66.89   66.96</time>
 </calculation>
 <calculation>
  <scstep>
   <time name="dav">    1.67    1.67</time>
   <time name="total">    1.75    1.76</time>
   <dipole>
    <v name="dipole">      0.00000000       0.00000000      -0.02912150 </v>
    <i name="Tr[quadrupol]">  -8971.78918329 </i>
    <i name="Echarged">      0.00000000 </i>
    <i name="Edipol_quadrupol">      0.00000000 </i>
    <i name="Eion">      0.00000000 </i>
   </dipole>
   <energy>
    <i name="alphaZ">    136.03532045 </i>
    <i name="ewald">  29698.77902151 </i>
    <i name="hartreedc"> -42133.56475065 </i>
    <i name="XCdc">   1019.71588271 </i>
    <i name="pawpsdc">  31338.95685723 </i>
    <i name="pawaedc"> -31480.56889070 </i>
    <i name="eentropy">     -0.08368266 </i>
    <i name="bandstr">  -3465.77891618 </i>
    <i name="atom">  14422.46951874 </i>
    <i name="e_fr_energy">   -464.03963955 </i>
    <i name="e_wo_entrp">   -463.95595689 </i>
    <i name="e_0_energy">   -463.99779822 </i>
   </energy>
  </scstep>
  <scstep>
   <time name="dav">    2.08    2.09</time>
   <time name="total">    2.17    2.17</time>
   <dipole>
    <v name="dipole">      0.00000000       0.00000000      -0.03041352 </v>
    <i name="Tr[quadrupol]">  -8971.78934235 </i>
    <i name="Echarged">      0.00000000 </i>
    <i name="Edipol_quadrupol">      0.00000000 </i>
    <i name="Eion">      0.00000000 </i>
   </dipole>
   <energy>
    <i name="e_fr_energy">   -466.09200871 </i>
    <i name="e_wo_entrp">   -466.01011670 </i>
    <i name="e_0_energy">   -466.05106271 </i>
   </energy>
  </scstep>
  <scstep>
   <time name="dav">    2.14    2.14</time>
   <time name="total">    2.22    2.22</time>
   <dipole>
    <v name="dipole">      0.00000000       0.00000000      -0.02952563 </v>
    <i name="Tr[quadrupol]">  -8971.85762054 </i>
    <i name="Echarged">      0.00000000 </i>
    <i name="Edipol_quadrupol">      0.00000000 </i>
    <i name="Eion">      0.00000000 </i>
   </dipole>
   <energy>
    <i name="e_fr_energy">   -465.04599070 </i>
    <i name="e_wo_entrp">   -464.90025797 </i>
    <i name="e_0_energy">   -464.97312434 </i>
   </energy>
  </scstep>
  <scstep>
   <time name="dav">    2.16    2.16</time>
   <time name="total">    2.24    2.24</time>
   <dipole>
    <v name="dipole">      0.00000000       0.00000000      -0.03123977 </v>
    <i name="Tr[quadrupol]">  -8971.85765031 </i>
    <i name="Echarged">      0.00000000 </i>
    <i name="Edipol_quadrupol">      0.00000000 </i>
    <i name="Eion">      0.00000000 </i>
   </dipole>
   <energy>
    <i name="e_fr_energy">   -468.55232061 </i>
    <i name="e_wo_entrp">   -468.45620282 </i>
    <i name="e_0_energy">   -468.50426172 </i>
   </energy>
  </scstep>
  <scstep>
   <time name="dav">    2.05    2.05</time>
   <time name="total">    2.13    2.13</time>
   <dipole>
    <v name="dipole">      0.00000000       0.00000000      -0.02867572 </v>
    <i name="Tr[quadrupol]">  -8971.79025798 </i>
    <i name="Echarged">      0.00000000 </i>
    <i name="Edipol_quadrupol">      0.00000000 </i>
    <i name="Eion">      0.00000000 </i>
   </dipole>
   <energy>
    <i name="e_fr_energy">   -464.82100465 </i>
    <i name="e_wo_entrp">   -464.69332739 </i>
    <i name="e_0_energy">   -464.75716602 </i>
   </energy>
  </scstep>
  <scstep>
   <time name="dav">    1.90    1.90</time>
   <time name="total">    1.98    1.98</time>
   <dipole>
    <v name="dipole">      0.00000000       0.00000000      -0.02722953 </v>
    <i name="Tr[quadrupol]">  -8971.77959768 </i>
    <i name="Echarged">      0.00000000 </i>
    <i name="Edipol_quadrupol">      0.00000000 </i>
    <i name="Eion">      0.00000000 </i>
   </dipole>
   <energy>
    <i name="e_fr_energy">   -464.65760154 </i>
    <i name="e_wo_entrp">   -464.52144723 </i>
    <i name="e_0_energy">   -464.58952438 </i>
   </energy>
  </scstep>
  <scstep>
   <time name="dav">    2.00    2.00</time>
   <time name="total">    2.10    2.10</time>
   <dipole>
    <v name="dipole">      0.00000000       0.00000000      -0.02773945 </v>
    <i name="Tr[quadrupol]">  -8971.80166807 </i>
    <i name="Echarged">      0.00000000 </i>
    <i name="Edipol_quadrupol">      0.00000000 </i>
    <i name="Eion">      0.00000000 </i>
   </dipole>
   <energy>
    <i name="e_fr_energy">   -464.66188059 </i>
    <i name="e_wo_entrp">   -464.52765677 </i>
    <i name="e_0_energy">   -464.59476868 </i>
   </energy>
  </scstep>
  <scstep>
   <time name="dav">    1.95    1.95</time>
   <time name="total">    2.04    2.04</time>
   <dipole>
    <v name="dipole">      0.00000000       0.00000000      -0.02710252 </v>
    <i name="Tr[quadrupol]">  -8971.77328174 </i>
    <i name="Echarged">      0.00000000 </i>
    <i name="Edipol_quadrupol">      0.00000000 </i>
    <i name="Eion">      0.00000000 </i>
   </dipole>
   <energy>
    <i name="e_fr_energy">   -464.64186229 </i>
    <i name="e_wo_entrp">   -464.51723011 </i>
    <i name="e_0_energy">   -464.57954620 </i>
   </energy>
  </scstep>
  <scstep>
   <time name="dav">    2.02    2.02</time>
   <time name="total">    2.10    2.10</time>
   <dipole>
    <v name="dipole">      0.00000000       0.00000000      -0.02811571 </v>
    <i name="Tr[quadrupol]">  -8971.74789434 </i>
    <i name="Echarged">      0.00000000 </i>
    <i name="Edipol_quadrupol">      0.00000000 </i>
    <i name="Eion">      0.00000000 </i>
   </dipole>
   <energy>
    <i name="e_fr_energy">   -464.64155637 </i>
    <i name="e_wo_entrp">   -464.51251536 </i>
    <i name="e_0_energy">   -464.57703587 </i>
   </energy>
  </scstep>
  <scstep>
   <time name="dav">    2.00    2.00</time>
   <time name="total">    2.08    2.08</time>
   <dipole>
    <v name="dipole">      0.00000000       0.00000000      -0.02944896 </v>
    <i name="Tr[quadrupol]">  -8971.72582221 </i>
    <i name="Echarged">      0.00000000 </i>
    <i name="Edipol_quadrupol">      0.00000000 </i>
    <i name="Eion">      0.00000000 </i>
   </dipole>
   <energy>
    <i name="e_fr_energy">   -464.63621273 </i>
    <i name="e_wo_entrp">   -464.52858036 </i>
    <i name="e_0_energy">   -464.58239654 </i>
   </energy>
  </scstep>
  <scstep>
   <time name="dav">    1.98    1.98</time>
   <time name="total">    2.06    2.06</time>
   <dipole>
    <v name="dipole">      0.00000000       0.00000000      -0.03023433 </v>
    <i name="Tr[quadrupol]">  -8971.71594729 </i>
    <i name="Echarged">      0.00000000 </i>
    <i name="Edipol_quadrupol">      0.00000000 </i>
    <i name="Eion">      0.00000000 </i>
   </dipole>
   <energy>
    <i name="e_fr_energy">   -464.63585592 </i>
    <i name="e_wo_entrp">   -464.52954778 </i>
    <i name="e_0_energy">   -464.58270185 </i>
   </energy>
  </scstep>
  <scstep>
   <time name="dav">    2.04    2.04</time>
   <time name="total">    2.12    2.12</time>
   <dipole>
    <v name="dipole">      0.00000000       0.00000000      -0.03089866 </v>
    <i name="Tr[quadrupol]">  -8971.70009031 </i>
    <i name="Echarged">      0.00000000 </i>
    <i name="Edipol_quadrupol">      0.00000000 </i>
    <i name="Eion">      0.00000000 </i>
   </dipole>
   <energy>
    <i name="e_fr_energy">   -464.63576224 </i>
    <i name="e_wo_entrp">   -464.52942853 </i>
    <i name="e_0_energy">   -464.58259538 </i>
   </energy>
  </scstep>
  <scstep>
   <time name="dav">    1.93    1.93</time>
   <time name="total">    2.01    2.01</time>
   <dipole>
    <v name="dipole">      0.00000000       0.00000000      -0.03171879 </v>
    <i name="Tr[quadrupol]">  -8971.69255658 </i>
    <i name="Echarged">      0.00000000 </i>
    <i name="Edipol_quadrupol">      0.00000000 </i>
    <i name="Eion">      0.00000000 </i>
   </dipole>
   <energy>
    <i name="e_fr_energy">   -464.63560718 </i>
    <i name="e_wo_entrp">   -464.52843117 </i>
    <i name="e_0_energy">   -464.58201918 </i>
   </energy>
  </scstep>
  <scstep>
   <time name="dav">    1.89    1.89</time>
   <time name="total">    1.97    1.97</time>
   <dipole>
    <v name="dipole">      0.00000000       0.00000000      -0.03297217 </v>
    <i name="Tr[quadrupol]">  -8971.68030970 </i>
    <i name="Echarged">      0.00000000 </i>
    <i name="Edipol_quadrupol">      0.00000000 </i>
    <i name="Eion">      0.00000000 </i>
   </dipole>
   <energy>
    <i name="e_fr_energy">   -464.63558364 </i>
    <i name="e_wo_entrp">   -464.52666739 </i>
    <i name="e_0_energy">   -464.58112551 </i>
   </energy>
  </scstep>
  <scstep>
   <time name="dav">    1.90    1.90</time>
   <time name="total">    1.98    1.98</time>
   <dipole>
    <v name="dipole">      0.00000000       0.00000000      -0.03379715 </v>
    <i name="Tr[quadrupol]">  -8971.67127854 </i>
    <i name="Echarged">      0.00000000 </i>
    <i name="Edipol_quadrupol">      0.00000000 </i>
    <i name="Eion">      0.00000000 </i>
   </dipole>
   <energy>
    <i name="e_fr_energy">   -464.63566616 </i>
    <i name="e_wo_entrp">   -464.52646530 </i>
    <i name="e_0_energy">   -464.58106573 </i>
   </energy>
  </scstep>
  <scstep>
   <time name="dav">    1.24    1.24</time>
   <time name="total">    1.32    1.33</time>
   <dipole>
    <v name="dipole">      0.00000000       0.00000000      -0.03417809 </v>
    <i name="Tr[quadrupol]">  -8971.66657007 </i>
    <i name="Echarged">      0.00000000 </i>
    <i name="Edipol_quadrupol">      0.00000000 </i>
    <i name="Eion">      0.00000000 </i>
   </dipole>
   <energy>
    <i name="e_fr_energy">   -464.63570083 </i>
    <i name="e_wo_entrp">   -464.52618513 </i>
    <i name="e_0_energy">   -464.58094298 </i>
   </energy>
  </scstep>
  <scstep>
   <time name="dav">    1.19    1.19</time>
   <time name="total">    1.27    1.27</time>
   <dipole>
    <v name="dipole">      0.00000000       0.00000000      -0.03483059 </v>
    <i name="Tr[quadrupol]">  -8971.65745719 </i>
    <i name="Echarged">      0.00000000 </i>
    <i name="Edipol_quadrupol">      0.00000000 </i>
    <i name="Eion">      0.00000000 </i>
   </dipole>
   <energy>
    <i name="e_fr_energy">   -464.63574200 </i>
    <i name="e_wo_entrp">   -464.52605137 </i>
    <i name="e_0_energy">   -464.58089668 </i>
   </energy>
  </scstep>
  <scstep>
   <time name="dav">    1.26    1.26</time>
   <time name="total">    1.34    1.34</time>
   <dipole>
    <v name="dipole">      0.00000000       0.00000000      -0.03513856 </v>
    <i name="Tr[quadrupol]">  -8971.65790978 </i>
    <i name="Echarged">      0.00000000 </i>
    <i name="Edipol_quadrupol">      0.00000000 </i>
    <i name="Eion">      0.00000000 </i>
   </dipole>
   <energy>
    <i name="e_fr_energy">   -464.63575843 </i>
    <i name="e_wo_entrp">   -464.52616104 </i>
    <i name="e_0_energy">   -464.58095974 </i>
   </energy>
  </scstep>
  <scstep>
   <time name="dav">    1.20    1.20</time>
   <time name="total">    1.23    1.23</time>
   <dipole>
    <v name="dipole">      0.00000000       0.00000000      -0.03527704 </v>
    <i name="Tr[quadrupol]">  -8971.65445776 </i>
    <i name="Echarged">      0.00000000 </i>
    <i name="Edipol_quadrupol">      0.00000000 </i>
    <i name="Eion">      0.00000000 </i>
   </dipole>
   <energy>
    <i name="alphaZ">    135.96903456 </i>
    <i name="ewald">  29698.77902151 </i>
    <i name="hartreedc"> -42172.74017097 </i>
    <i name="XCdc">   1022.17210550 </i>
    <i name="pawpsdc">  30023.68351104 </i>
    <i name="pawaedc"> -30159.60136823 </i>
    <i name="eentropy">     -0.10955618 </i>
    <i name="bandstr">  -3435.25786265 </i>
    <i name="atom">  14422.46951874 </i>
    <i name="e_fr_energy">   -464.63576669 </i>
    <i name="e_wo_entrp">   -464.52621051 </i>
    <i name="e_0_energy">   -464.58098860 </i>
   </energy>
  </scstep>
  <structure>
   <crystal>
    <varray name="basis" >
     <v>      14.44674293       0.00000000       0.00000000 </v>
     <v>       0.00000000      12.45031352       0.00000000 </v>
     <v>       0.00000000       0.00000000      15.00000000 </v>
    </varray>
    <i name="volume">   2697.99718110 </i>
    <varray name="rec_basis" >
     <v>       0.06921975       0.00000000       0.00000000 </v>
     <v>       0.00000000       0.08031926       0.00000000 </v>
     <v>       0.00000000       0.00000000       0.06666667 </v>
    </varray>
   </crystal>
   <varray name="positions" >
    <v>       0.06553188       0.40382331       0.13333031 </v>
    <v>       0.98094645       0.23463208       0.13332973 </v>
    <v>       0.22590603       0.39800565       0.13333230 </v>
    <v>       0.81715623       0.57588788       0.13330675 </v>
    <v>       0.14990516       0.23471357       0.13332863 </v>
    <v>       0.90529435       0.39786717       0.13333207 </v>
    <v>       0.56474545       0.40248019       0.13328636 </v>
    <v>       0.48054609       0.23415206       0.13332533 </v>
    <v>       0.72778340       0.39718025       0.13331551 </v>
    <v>       0.31437019       0.57580998       0.13335619 </v>
    <v>       0.65015592       0.23410142       0.13332554 </v>
    <v>       0.40377429       0.39765089       0.13333427 </v>
    <v>       0.81590022       0.90431404       0.13333333 </v>
    <v>       0.73204798       0.73660184       0.13327446 </v>
    <v>       0.97640149       0.89825762       0.13332630 </v>
    <v>       0.06543172       0.07702585       0.13333127 </v>
    <v>       0.90053337       0.73485465       0.13332818 </v>
    <v>       0.65480884       0.89939022       0.13332686 </v>
    <v>       0.31538208       0.90457542       0.13332167 </v>
    <v>       0.23039590       0.73456472       0.13333781 </v>
    <v>       0.47665039       0.89994301       0.13330275 </v>
    <v>       0.56541834       0.07682185       0.13333910 </v>
    <v>       0.39509550       0.73817164       0.13292821 </v>
    <v>       0.15494428       0.89823281       0.13331631 </v>
    <v>       0.98393811       0.45601864       0.13333107 </v>
    <v>       0.90098304       0.29023418       0.13332981 </v>
    <v>       0.14697348       0.45603388       0.13333454 </v>
    <v>       0.14840438       0.12721380       0.13333020 </v>
    <v>       0.98243018       0.12725085       0.13333100 </v>
    <v>       0.22994667       0.29013364       0.13332846 </v>
    <v>       0.06536599       0.29116394       0.13332889 </v>
    <v>       0.81507893       0.45801927       0.13332253 </v>
    <v>       0.48518000       0.45589737       0.13334764 </v>
    <v>       0.40133955       0.29039323       0.13334436 </v>
    <v>       0.64604576       0.45103670       0.13322739 </v>
    <v>       0.64856385       0.12766042       0.13332365 </v>
    <v>       0.48230332       0.12764037       0.13332807 </v>
    <v>       0.72961491       0.29059847       0.13333581 </v>
    <v>       0.56546076       0.29173217       0.13331054 </v>
    <v>       0.31589390       0.45791635       0.13332308 </v>
    <v>       0.73411755       0.95565046       0.13334625 </v>
    <v>       0.65185725       0.78933675       0.13327283 </v>
    <v>       0.89670655       0.95589744       0.13331870 </v>
    <v>       0.89808040       0.62722072       0.13333727 </v>
    <v>       0.74236166       0.63249828       0.13268077 </v>
    <v>       0.97978519       0.78978182       0.13331983 </v>
    <v>       0.81527852       0.79089537       0.13337281 </v>
    <v>       0.56567897       0.95746340       0.13333623 </v>
    <v>       0.23463503       0.95584768       0.13333357 </v>
    <v>       0.15150923       0.78978701       0.13332685 </v>
    <v>       0.39707996       0.95559578       0.13337919 </v>
    <v>       0.38947609       0.62521476       0.13225773 </v>
    <v>       0.23285778       0.62742489       0.13334212 </v>
    <v>       0.47738461       0.79874638       0.13247990 </v>
    <v>       0.31587984       0.79089241       0.13339908 </v>
    <v>       0.06563373       0.95765497       0.13333799 </v>
    <v>       0.52267848       0.65127330       0.14580258 </v>
    <v>       0.63057350       0.58450880       0.14014004 </v>
   </varray>
  </structure>
  <varray name="forces" >
   <v>       0.00360461       0.17959955       0.00084065 </v>
   <v>      -0.03214573       0.08704490       0.00140689 </v>
   <v>      -0.45408308      -0.19472251       0.00061114 </v>
   <v>       3.29371433      -0.61825329      -0.04398958 </v>
   <v>       0.04011086       0.07084319      -0.00211958 </v>
   <v>       0.57721891      -0.17361548       0.00007722 </v>
   <v>      -0.65367770      -2.21605871      -0.06233202 </v>
   <v>      -0.16345382      -0.30345941      -0.00786333 </v>
   <v>       0.79247707      -1.10538015      -0.03271873 </v>
   <v>      -4.50717628      -2.02881493       0.03482607 </v>
   <v>       0.39868743      -0.06847333      -0.00469692 </v>
   <v>      -0.35354903      -0.13815535       0.00052725 </v>
   <v>       0.09395786       0.26008725       0.00410538 </v>
   <v>       1.94182394       2.06850870      -0.09637090 </v>
   <v>      -0.40480873      -0.10782148      -0.00539944 </v>
   <v>       0.03118180       0.45981915       0.00209676 </v>
   <v>       0.10413825      -0.46736576      -0.00005849 </v>
   <v>      -0.14823427       0.49716753       0.00639415 </v>
   <v>       0.30800093       0.65236586       0.00291353 </v>
   <v>      -0.31895485      -0.58392110       0.00232358 </v>
   <v>      -0.31311361       4.40575259       0.01764628 </v>
   <v>       0.05444364       0.27861248       0.00486332 </v>
   <v>      -0.52203992       0.09792211      -0.34356274 </v>
   <v>       0.28330556      -0.05521524      -0.01657940 </v>
   <v>      -0.02938670      -0.39616854       0.00228152 </v>
   <v>       0.40787793       0.08086949      -0.00023841 </v>
   <v>       0.01559006      -0.40868992       0.00430950 </v>
   <v>      -0.55474860       0.06229836      -0.00081546 </v>
   <v>       0.55669534       0.02639816       0.00135262 </v>
   <v>      -0.44992053       0.11082652      -0.00009117 </v>
   <v>       0.05579994      -0.09794954      -0.00100669 </v>
   <v>      -0.03470406      -0.05504298      -0.02274268 </v>
   <v>       0.26242628       0.04745170       0.10163640 </v>
   <v>       0.38715158       0.51397182       0.01310763 </v>
   <v>       0.34803988      -3.12399895      -0.08610552 </v>
   <v>      -0.47513968       0.21263541       0.00140201 </v>
   <v>       0.43457113       0.24085041       0.00145030 </v>
   <v>      -0.27247527      -0.06674673       0.01954512 </v>
   <v>      -0.30752214      -0.19069452      -0.06549428 </v>
   <v>      -0.32903306      -0.51817047      -0.00122509 </v>
   <v>      -0.17352935      -0.52228083       0.01455503 </v>
   <v>       0.52428324      -0.74447178       0.02312503 </v>
   <v>       0.01867002      -0.36713321      -0.01532174 </v>
   <v>       0.82855719       0.22883542       0.05353271 </v>
   <v>      -0.97356248       0.72049401      -0.28501973 </v>
   <v>      -0.42499283       0.16962288      -0.02245997 </v>
   <v>       0.55316254       1.15725525       0.05036976 </v>
   <v>       0.25950245       0.57487713      -0.01193302 </v>
   <v>      -0.21791990      -0.35946037       0.01120875 </v>
   <v>       0.27113957       0.33972944       0.00447994 </v>
   <v>      -0.63877363       0.37901298       0.05602075 </v>
   <v>       2.20324005       4.40202113      -0.67980993 </v>
   <v>      -0.79148078       0.30022903       0.04425512 </v>
   <v>      -2.71319071      -3.75934533      -0.51255249 </v>
   <v>      -1.98393855       1.17052097       0.05840493 </v>
   <v>       0.05852106      -0.05570267       0.00773025 </v>
   <v>     -10.27380330       4.93193171       2.29974573 </v>
   <v>      13.40746513      -6.00044254      -0.52663800 </v>
  </varray>
  <varray name="stress" >
   <v>      12.46498652     -11.22440415      -0.32184037 </v>
   <v>     -11.22440415       0.78264964       0.16461910 </v>
   <v>      -0.32184038       0.16461907     -12.76979433 </v>
  </varray>
  <energy>
   <i name="e_fr_energy">   -464.63576669 </i>
   <i name="e_wo_entrp">   -464.52621051 </i>
   <i name="e_0_energy">   -464.58098860 </i>
  </energy>
  <time name="totalsc">   37.43   37.45</time>
 </calculation>
 <calculation>
  <scstep>
   <time name="dav">    1.60    1.60</time>
   <time name="total">    1.68    1.68</time>
   <dipole>
    <v name="dipole">      0.00000000       0.00000000      -0.03567513 </v>
    <i name="Tr[quadrupol]">  -8940.81368365 </i>
    <i name="Echarged">      0.00000000 </i>
    <i name="Edipol_quadrupol">      0.00000000 </i>
    <i name="Eion">      0.00000000 </i>
   </dipole>
   <energy>
    <i name="alphaZ">    136.42350799 </i>
    <i name="ewald">  29854.12119604 </i>
    <i name="hartreedc"> -42333.97047185 </i>
    <i name="XCdc">   1023.43068085 </i>
    <i name="pawpsdc">  30023.80173219 </i>
    <i name="pawaedc"> -30159.72196329 </i>
    <i name="eentropy">     -0.14835115 </i>
    <i name="bandstr">  -3431.25413290 </i>
    <i name="atom">  14422.46951874 </i>
    <i name="e_fr_energy">   -464.84828339 </i>
    <i name="e_wo_entrp">   -464.69993224 </i>
    <i name="e_0_energy">   -464.77410781 </i>
   </energy>
  </scstep>
  <scstep>
   <time name="dav">    2.10    2.10</time>
   <time name="total">    2.18    2.18</time>
   <dipole>
    <v name="dipole">      0.00000000       0.00000000      -0.03687533 </v>
    <i name="Tr[quadrupol]">  -8940.78624945 </i>
    <i name="Echarged">      0.00000000 </i>
    <i name="Edipol_quadrupol">      0.00000000 </i>
    <i name="Eion">      0.00000000 </i>
[...]
   <v>       0.18256356       0.12472391      -0.03058525 </v>
   <v>      -0.06856249      -0.24123805      -0.07800168 </v>
   <v>       0.21372043      -0.04244482       0.20484429 </v>
   <v>       0.09426903      -0.08023556      -0.16196238 </v>
   <v>       0.35320480       0.15694697       0.16452410 </v>
   <v>       0.03294371      -0.15689980       0.04073841 </v>
   <v>      -0.02034119       0.03031725       0.25478204 </v>
   <v>       0.05770333      -0.07017224      -0.10723841 </v>
   <v>       0.01756127      -0.07457373      -0.07974054 </v>
   <v>      -0.07606179      -0.19327369      -0.06237104 </v>
   <v>      -0.17742826      -0.01567073       0.03174825 </v>
   <v>      -0.64081695       0.37548037       0.20652390 </v>
   <v>      -0.13997201      -0.08495980      -0.22419003 </v>
   <v>       0.02570342       0.24483374       0.12533060 </v>
   <v>      -0.11561434       0.06684999       0.01186379 </v>
   <v>      -0.11491432       0.09006020      -0.19915284 </v>
   <v>      -0.09015071       0.17954547      -0.01611232 </v>
   <v>      -0.06155793      -0.09307891      -0.01781807 </v>
   <v>       0.02669647       0.02198599      -0.00483844 </v>
   <v>      -0.26419124      -0.26446176       0.19341045 </v>
  </varray>
  <varray name="stress" >
   <v>      -0.92967083       0.06202957      -1.46071355 </v>
   <v>       0.06202958      -0.59856541       0.04262424 </v>
   <v>      -1.46071355       0.04262424      -9.63898388 </v>
  </varray>
  <energy>
   <i name="e_fr_energy">   -479.61632931 </i>
   <i name="e_wo_entrp">   -479.61632808 </i>
   <i name="e_0_energy">   -479.61632869 </i>
  </energy>
  <time name="totalsc">   20.76   20.99</time>
 </calculation>
 <calculation>
  <scstep>
   <time name="dav">    1.58    1.60</time>
   <time name="total">    1.66    1.68</time>
   <dipole>
    <v name="dipole">      0.00000000       0.00000000       0.09014434 </v>
    <i name="Tr[quadrupol]">  -7669.32348179 </i>
    <i name="Echarged">      0.00000000 </i>
    <i name="Edipol_quadrupol">      0.00000000 </i>
    <i name="Eion">      0.00000000 </i>
   </dipole>
   <energy>
    <i name="alphaZ">    157.97875028 </i>
    <i name="ewald">  26779.15588226 </i>
    <i name="hartreedc"> -39228.95554698 </i>
    <i name="XCdc">   1019.97881819 </i>
    <i name="pawpsdc">  29802.70023785 </i>
    <i name="pawaedc"> -29927.20580767 </i>
    <i name="eentropy">     -0.00000117 </i>
    <i name="bandstr">  -3505.66493049 </i>
    <i name="atom">  14422.46951874 </i>
    <i name="e_fr_energy">   -479.54307901 </i>
    <i name="e_wo_entrp">   -479.54307784 </i>
    <i name="e_0_energy">   -479.54307842 </i>
   </energy>
  </scstep>
  <scstep>
   <time name="dav">    1.96    1.98</time>
   <time name="total">    2.04    2.06</time>
   <dipole>
    <v name="dipole">      0.00000000       0.00000000       0.09425197 </v>
    <i name="Tr[quadrupol]">  -7669.32745778 </i>
    <i name="Echarged">      0.00000000 </i>
    <i name="Edipol_quadrupol">      0.00000000 </i>
    <i name="Eion">      0.00000000 </i>
   </dipole>
   <energy>
    <i name="e_fr_energy">   -479.66978760 </i>
    <i name="e_wo_entrp">   -479.66978654 </i>
    <i name="e_0_energy">   -479.66978707 </i>
   </energy>
  </scstep>
  <scstep>
   <time name="dav">    2.04    2.06</time>
   <time name="total">    2.12    2.15</time>
   <dipole>
    <v name="dipole">      0.00000000       0.00000000       0.09694260 </v>
    <i name="Tr[quadrupol]">  -7669.32339386 </i>
    <i name="Echarged">      0.00000000 </i>
    <i name="Edipol_quadrupol">      0.00000000 </i>
    <i name="Eion">      0.00000000 </i>
   </dipole>
   <energy>
    <i name="e_fr_energy">   -479.66426304 </i>
    <i name="e_wo_entrp">   -479.66426177 </i>
    <i name="e_0_energy">   -479.66426241 </i>
   </energy>
  </scstep>
  <scstep>
   <time name="dav">    2.00    2.02</time>
   <time name="total">    2.08    2.10</time>
   <dipole>
    <v name="dipole">      0.00000000       0.00000000       0.09729661 </v>
    <i name="Tr[quadrupol]">  -7669.32359905 </i>
    <i name="Echarged">      0.00000000 </i>
    <i name="Edipol_quadrupol">      0.00000000 </i>
    <i name="Eion">      0.00000000 </i>
   </dipole>
   <energy>
    <i name="e_fr_energy">   -479.66506512 </i>
    <i name="e_wo_entrp">   -479.66506410 </i>
    <i name="e_0_energy">   -479.66506461 </i>
   </energy>
  </scstep>
  <scstep>
   <time name="dav">    2.07    2.08</time>
   <time name="total">    2.15    2.17</time>
   <dipole>
    <v name="dipole">      0.00000000       0.00000000       0.09859035 </v>
    <i name="Tr[quadrupol]">  -7669.33004823 </i>
    <i name="Echarged">      0.00000000 </i>
    <i name="Edipol_quadrupol">      0.00000000 </i>
    <i name="Eion">      0.00000000 </i>
   </dipole>
   <energy>
    <i name="e_fr_energy">   -479.66612805 </i>
    <i name="e_wo_entrp">   -479.66612657 </i>
    <i name="e_0_energy">   -479.66612731 </i>
   </energy>
  </scstep>
  <scstep>
   <time name="dav">    2.11    2.13</time>
   <time name="total">    2.19    2.21</time>
   <dipole>
    <v name="dipole">      0.00000000       0.00000000       0.09896282 </v>
    <i name="Tr[quadrupol]">  -7669.31343874 </i>
    <i name="Echarged">      0.00000000 </i>
    <i name="Edipol_quadrupol">      0.00000000 </i>
    <i name="Eion">      0.00000000 </i>
   </dipole>
   <energy>
    <i name="e_fr_energy">   -479.66575003 </i>
    <i name="e_wo_entrp">   -479.66574882 </i>
    <i name="e_0_energy">   -479.66574942 </i>
   </energy>
  </scstep>
  <scstep>
   <time name="dav">    2.00    2.02</time>
   <time name="total">    2.08    2.11</time>
   <dipole>
    <v name="dipole">      0.00000000       0.00000000       0.09945950 </v>
    <i name="Tr[quadrupol]">  -7669.31521026 </i>
    <i name="Echarged">      0.00000000 </i>
    <i name="Edipol_quadrupol">      0.00000000 </i>
    <i name="Eion">      0.00000000 </i>
   </dipole>
   <energy>
    <i name="e_fr_energy">   -479.66580010 </i>
    <i name="e_wo_entrp">   -479.66579885 </i>
    <i name="e_0_energy">   -479.66579947 </i>
   </energy>
  </scstep>
  <scstep>
   <time name="dav">    1.60    1.61</time>
   <time name="total">    1.68    1.69</time>
   <dipole>
    <v name="dipole">      0.00000000       0.00000000       0.10010507 </v>
    <i name="Tr[quadrupol]">  -7669.31810650 </i>
    <i name="Echarged">      0.00000000 </i>
    <i name="Edipol_quadrupol">      0.00000000 </i>
    <i name="Eion">      0.00000000 </i>
   </dipole>
   <energy>
    <i name="e_fr_energy">   -479.66583096 </i>
    <i name="e_wo_entrp">   -479.66582971 </i>
    <i name="e_0_energy">   -479.66583034 </i>
   </energy>
  </scstep>
  <scstep>
   <time name="dav">    1.28    1.30</time>
   <time name="total">    1.36    1.38</time>
   <dipole>
    <v name="dipole">      0.00000000       0.00000000       0.10049723 </v>
    <i name="Tr[quadrupol]">  -7669.31904973 </i>
    <i name="Echarged">      0.00000000 </i>
    <i name="Edipol_quadrupol">      0.00000000 </i>
    <i name="Eion">      0.00000000 </i>
   </dipole>
   <energy>
    <i name="e_fr_energy">   -479.66584714 </i>
    <i name="e_wo_entrp">   -479.66584590 </i>
    <i name="e_0_energy">   -479.66584652 </i>
   </energy>
  </scstep>
  <scstep>
   <time name="dav">    1.18    1.19</time>
   <time name="total">    1.26    1.27</time>
   <dipole>
    <v name="dipole">      0.00000000       0.00000000       0.10094757 </v>
    <i name="Tr[quadrupol]">  -7669.32011419 </i>
    <i name="Echarged">      0.00000000 </i>
    <i name="Edipol_quadrupol">      0.00000000 </i>
    <i name="Eion">      0.00000000 </i>
   </dipole>
   <energy>
    <i name="e_fr_energy">   -479.66586415 </i>
    <i name="e_wo_entrp">   -479.66586291 </i>
    <i name="e_0_energy">   -479.66586353 </i>
   </energy>
  </scstep>
  <scstep>
   <time name="dav">    1.17    1.18</time>
   <time name="total">    1.25    1.26</time>
   <dipole>
    <v name="dipole">      0.00000000       0.00000000       0.10155966 </v>
    <i name="Tr[quadrupol]">  -7669.32155214 </i>
    <i name="Echarged">      0.00000000 </i>
    <i name="Edipol_quadrupol">      0.00000000 </i>
    <i name="Eion">      0.00000000 </i>
   </dipole>
   <energy>
    <i name="e_fr_energy">   -479.66588233 </i>
    <i name="e_wo_entrp">   -479.66588109 </i>
    <i name="e_0_energy">   -479.66588171 </i>
   </energy>
  </scstep>
  <scstep>
   <time name="dav">    1.21    1.22</time>
   <time name="total">    1.24    1.25</time>
   <dipole>
    <v name="dipole">      0.00000000       0.00000000       0.10195366 </v>
    <i name="Tr[quadrupol]">  -7669.32239896 </i>
    <i name="Echarged">      0.00000000 </i>
    <i name="Edipol_quadrupol">      0.00000000 </i>
    <i name="Eion">      0.00000000 </i>
   </dipole>
   <energy>
    <i name="alphaZ">    157.87857844 </i>
    <i name="ewald">  26779.15588226 </i>
    <i name="hartreedc"> -39224.56612918 </i>
    <i name="XCdc">   1019.74747203 </i>
    <i name="pawpsdc">  29815.00496914 </i>
    <i name="pawaedc"> -29939.48012748 </i>
    <i name="eentropy">     -0.00000124 </i>
    <i name="bandstr">  -3509.87605429 </i>
    <i name="atom">  14422.46951874 </i>
    <i name="e_fr_energy">   -479.66589158 </i>
    <i name="e_wo_entrp">   -479.66589034 </i>
    <i name="e_0_energy">   -479.66589096 </i>
   </energy>
  </scstep>
  <structure>
   <crystal>
    <varray name="basis" >
     <v>      13.28960072       0.00000000       0.00000000 </v>
     <v>       0.00000000      11.77156391       0.00000000 </v>
     <v>       0.00000000       0.00000000      15.00000000 </v>
    </varray>
    <i name="volume">   2346.59076225 </i>
    <varray name="rec_basis" >
     <v>       0.07524681       0.00000000       0.00000000 </v>
     <v>       0.00000000       0.08495048       0.00000000 </v>
     <v>       0.00000000       0.00000000       0.06666667 </v>
    </varray>
   </crystal>
   <varray name="positions" >
    <v>       0.05207156       0.39537961       0.09875070 </v>
    <v>       0.00083981       0.24231285       0.19977892 </v>
    <v>       0.21566326       0.38799129       0.05928081 </v>
    <v>       0.81326210       0.57179497       0.16917545 </v>
    <v>       0.14785623       0.22305771       0.10564141 </v>
    <v>       0.90454402       0.39573908       0.17480272 </v>
    <v>       0.55153132       0.40347703       0.14495207 </v>
    <v>       0.49026927       0.23877549       0.06212439 </v>
    <v>       0.71688573       0.39363541       0.18429035 </v>
    <v>       0.30317924       0.57271924       0.07545305 </v>
    <v>       0.64075242       0.22682326       0.15458958 </v>
    <v>       0.40101017       0.40012381       0.07298694 </v>
    <v>       0.83065091       0.90162829       0.10660116 </v>
    <v>       0.74123292       0.72534358       0.11078708 </v>
    <v>       0.98160385       0.90034732       0.17774089 </v>
    <v>       0.07773371       0.07438137       0.17592960 </v>
    <v>       0.89431708       0.73838738       0.19302067 </v>
    <v>       0.66416400       0.89561784       0.07975243 </v>
    <v>       0.33208459       0.89283328       0.16016987 </v>
    <v>       0.23441285       0.72240484       0.14441102 </v>
    <v>       0.48222893       0.89468678       0.09179120 </v>
    <v>       0.57009105       0.07416388       0.09122658 </v>
    <v>       0.39215203       0.73555953       0.06691059 </v>
    <v>       0.16593614       0.89096532       0.18590325 </v>
    <v>       0.95995093       0.44037603       0.10871775 </v>
    <v>       0.92406402       0.30737723       0.22731543 </v>
    <v>       0.12727653       0.44438134       0.05460608 </v>
    <v>       0.14322141       0.11039091       0.11553740 </v>
    <v>       0.01176873       0.13401315       0.22458676 </v>
    <v>       0.22410702       0.27506762       0.06644592 </v>
    <v>       0.06887797       0.28881072       0.13930502 </v>
    <v>       0.80947760       0.45278171       0.18637821 </v>
    <v>       0.46267622       0.45391755       0.12930483 </v>
    <v>       0.41552750       0.30233557       0.03007540 </v>
    <v>       0.63153513       0.45513876       0.17997880 </v>
    <v>       0.63599069       0.11363808       0.14956782 </v>
    <v>       0.50184508       0.12901639       0.04153504 </v>
    <v>       0.72186078       0.28015535       0.18496055 </v>
    <v>       0.55954930       0.28877413       0.12106220 </v>
    <v>       0.30495727       0.45286489       0.05930006 </v>
    <v>       0.75092401       0.95128203       0.06813070 </v>
    <v>       0.65567377       0.78335062       0.09706334 </v>
    <v>       0.91865102       0.95351768       0.12123903 </v>
    <v>       0.88221225       0.62976284       0.21582963 </v>
    <v>       0.74529299       0.61243815       0.11232710 </v>
    <v>       0.96880247       0.80370387       0.22293040 </v>
    <v>       0.82441998       0.78797866       0.13448036 </v>
    <v>       0.57371975       0.95453811       0.07816324 </v>
    <v>       0.25333119       0.94597608       0.19586354 </v>
    <v>       0.15463963       0.78038810       0.17010566 </v>
    <v>       0.42052594       0.94436254       0.15037745 </v>
    <v>       0.37662722       0.63112285       0.03472410 </v>
    <v>       0.23248282       0.61041104       0.13005149 </v>
    <v>       0.46972757       0.80071885       0.04292538 </v>
    <v>       0.32234332       0.78161088       0.12710586 </v>
    <v>       0.07645639       0.95468853       0.18965855 </v>
    <v>       0.50217889       0.72293340       0.34813773 </v>
    <v>       0.58305420       0.73771882       0.20546842 </v>
   </varray>
  </structure>
  <varray name="forces" >
   <v>      -0.00812841      -0.02291047       0.06213807 </v>
   <v>      -0.19828637       0.04093789      -0.04186618 </v>
   <v>      -0.03937848       0.10989359       0.08078946 </v>
   <v>      -0.11646108      -0.02090782       0.02533816 </v>
   <v>       0.02125215      -0.00513589      -0.08687414 </v>
   <v>      -0.14782170      -0.05117883       0.03004085 </v>
   <v>       0.08619938       0.00874819       0.01174099 </v>
   <v>       0.09670761      -0.11509951       0.05423575 </v>
   <v>       0.04050568       0.10981467      -0.05705749 </v>
   <v>       0.09031956      -0.03118846       0.10325219 </v>
   <v>       0.19674903      -0.05775749      -0.05673436 </v>
   <v>      -0.00376236      -0.15811608      -0.04608671 </v>
   <v>       0.24867198       0.03040663       0.09848214 </v>
   <v>      -0.08902696       0.09896975       0.07424818 </v>
   <v>       0.00137925       0.02936626       0.12181141 </v>
   <v>       0.12621363       0.05358976      -0.01651750 </v>
   <v>       0.07057493       0.03437624       0.00706493 </v>
   <v>       0.13851824      -0.14064876       0.03012394 </v>
   <v>      -0.13351946       0.11144983      -0.05960892 </v>
   <v>      -0.24880287       0.22274412       0.09192292 </v>
   <v>      -0.11030272      -0.02315850      -0.12921840 </v>
   <v>       0.07870648      -0.02557704      -0.07285436 </v>
   <v>      -0.03337683       0.15343984      -0.12423386 </v>
   <v>      -0.17075540      -0.08986605       0.05024830 </v>
   <v>       0.13586440       0.11157379       0.17573158 </v>
   <v>      -0.17891320      -0.08593827      -0.04762644 </v>
   <v>       0.06001070      -0.04790103       0.14947199 </v>
   <v>       0.14860166       0.09710387       0.05017354 </v>
   <v>       0.02578644      -0.01203372       0.08416404 </v>
   <v>       0.11919528       0.17882194       0.17871212 </v>
   <v>       0.04723382      -0.03202602      -0.28100528 </v>
   <v>      -0.05316364      -0.04741347      -0.19002973 </v>
   <v>       0.02424955       0.11523020       0.04002885 </v>
   <v>       0.06554076      -0.08917968      -0.00162588 </v>
   <v>      -0.18507886       0.03047832       0.03530837 </v>
   <v>       0.17964375       0.11611700      -0.02965861 </v>
   <v>       0.07709505       0.03381068       0.03499092 </v>
   <v>      -0.06002328       0.00199388      -0.08792862 </v>
   <v>       0.17454084       0.09018485      -0.02400325 </v>
   <v>      -0.01200101      -0.05785437      -0.03054353 </v>
   <v>       0.14227123       0.02562375       0.18164341 </v>
   <v>      -0.01353812      -0.16174632      -0.06571071 </v>
   <v>       0.08729931      -0.00989598       0.08402950 </v>
   <v>       0.07350345      -0.09323933       0.10654409 </v>
   <v>      -0.05690014       0.07324341       0.21777572 </v>
   <v>      -0.01292144      -0.02082976      -0.10838171 </v>
   <v>       0.01249247       0.01844567      -0.11327147 </v>
   <v>       0.04436263      -0.07162769      -0.11052197 </v>
   <v>      -0.06901968      -0.00571245       0.06210479 </v>
   <v>      -0.26191327      -0.30102244      -0.02564964 </v>
   <v>       0.21578173      -0.01734508      -0.30331406 </v>
   <v>      -0.00484963       0.08861650       0.02312840 </v>
   <v>      -0.01668762      -0.05536740      -0.08437929 </v>
   <v>      -0.21041174      -0.03642185      -0.12359900 </v>
   <v>      -0.03089146       0.13047238      -0.08720135 </v>
   <v>      -0.17202157      -0.01974285       0.02937079 </v>
   <v>       0.01310482       0.01258321       0.01602179 </v>
   <v>      -0.20441847      -0.22119362       0.09486527 </v>
  </varray>
  <varray name="stress" >
   <v>      -0.94798165       0.32560719      -1.20678904 </v>
   <v>       0.32560721      -0.21330699      -0.30672657 </v>
   <v>      -1.20678903      -0.30672660      -9.46477713 </v>
  </varray>
  <energy>
   <i name="e_fr_energy">   -479.66589158 </i>
   <i name="e_wo_entrp">   -479.66589034 </i>
   <i name="e_0_energy">   -479.66589096 </i>
  </energy>
  <time name="totalsc">   22.47   22.70</time>
 </calculation>
 <calculation>
  <scstep>
   <time name="dav">    1.55    1.56</time>
   <time name="total">    1.63    1.64</time>
   <dipole>
    <v name="dipole">      0.00000000       0.00000000       0.10239560 </v>
    <i name="Tr[quadrupol]">  -7660.93574987 </i>
    <i name="Echarged">      0.00000000 </i>
    <i name="Edipol_quadrupol">      0.00000000 </i>
    <i name="Eion">      0.00000000 </i>
   </dipole>
   <energy>
    <i name="alphaZ">    157.99120486 </i>
    <i name="ewald">  26768.34629096 </i>
    <i name="hartreedc"> -39216.64820864 </i>
    <i name="XCdc">   1019.88390599 </i>
    <i name="pawpsdc">  29815.03337182 </i>
    <i name="pawaedc"> -29939.50831582 </i>
    <i name="eentropy">     -0.00000124 </i>
    <i name="bandstr">  -3507.21225566 </i>
    <i name="atom">  14422.46951874 </i>
    <i name="e_fr_energy">   -479.64448899 </i>
    <i name="e_wo_entrp">   -479.64448775 </i>
    <i name="e_0_energy">   -479.64448837 </i>
   </energy>
  </scstep>
  <scstep>
   <time name="dav">    2.02    2.04</time>
   <time name="total">    2.10    2.12</time>
   <dipole>
    <v name="dipole">      0.00000000       0.00000000       0.10442647 </v>
    <i name="Tr[quadrupol]">  -7660.94026186 </i>
    <i name="Echarged">      0.00000000 </i>
    <i name="Edipol_quadrupol">      0.00000000 </i>
    <i name="Eion">      0.00000000 </i>
   </dipole>
   <energy>
    <i name="e_fr_energy">   -479.67196033 </i>
    <i name="e_wo_entrp">   -479.67195911 </i>
    <i name="e_0_energy">   -479.67195972 </i>
   </energy>
  </scstep>
  <scstep>
   <time name="dav">    2.21    2.24</time>
   <time name="total">    2.29    2.32</time>
   <dipole>
    <v name="dipole">      0.00000000       0.00000000       0.10548952 </v>
    <i name="Tr[quadrupol]">  -7660.93641645 </i>
    <i name="Echarged">      0.00000000 </i>
    <i name="Edipol_quadrupol">      0.00000000 </i>
    <i name="Eion">      0.00000000 </i>
   </dipole>
   <energy>
    <i name="e_fr_energy">   -479.67101313 </i>
    <i name="e_wo_entrp">   -479.67101198 </i>
    <i name="e_0_energy">   -479.67101256 </i>
   </energy>
  </scstep>
  <scstep>
