slab_Cel1-OPT                           
           1
    14.265900    0.000000    0.000000
     0.000000   12.356997    0.000000
     0.000000    0.000000   15.000000
   C    N    Ag   Cu
    24    32     1     1
Direct configuration=     1
   0.06537593  0.40364000  0.13333000
   0.98097748  0.23494000  0.13333000
   0.22593437  0.39820000  0.13333000
   0.81543575  0.57710000  0.13333000
   0.14973747  0.23490000  0.13333000
   0.90517930  0.39797000  0.13333000
   0.56537593  0.40364000  0.13333000
   0.48097748  0.23494000  0.13333000
   0.72593437  0.39820000  0.13333000
   0.31543575  0.57710000  0.13333000
   0.64973747  0.23490000  0.13333000
   0.40517930  0.39797000  0.13333000
   0.81551954  0.90364000  0.13333000
   0.73112108  0.73494000  0.13333000
   0.97607797  0.89820000  0.13333000
   0.06529214  0.07710000  0.13333000
   0.89988107  0.73490000  0.13333000
   0.65532291  0.89797000  0.13333000
   0.31551954  0.90364000  0.13333000
   0.23112108  0.73494000  0.13333000
   0.47607797  0.89820000  0.13333000
   0.56529214  0.07710000  0.13333000
   0.39988107  0.73490000  0.13333000
   0.15532291  0.89797000  0.13333000
   0.98400093  0.45588000  0.13333000
   0.90111835  0.29021000  0.13333000
   0.14710595  0.45595000  0.13333000
   0.14840652  0.12714000  0.13333000
   0.98256150  0.12707000  0.13333000
   0.22992331  0.29008000  0.13333000
   0.06536362  0.29116000  0.13333000
   0.81553147  0.45774000  0.13333000
   0.48400093  0.45588000  0.13333000
   0.40111835  0.29021000  0.13333000
   0.64710595  0.45595000  0.13333000
   0.64840652  0.12714000  0.13333000
   0.48256150  0.12707000  0.13333000
   0.72992331  0.29008000  0.13333000
   0.56536362  0.29116000  0.13333000
   0.31553147  0.45774000  0.13333000
   0.73414454  0.95588000  0.13333000
   0.65126196  0.79021000  0.13333000
   0.89724956  0.95595000  0.13333000
   0.89855012  0.62714000  0.13333000
   0.73270510  0.62707000  0.13333000
   0.98006692  0.79008000  0.13333000
   0.81550723  0.79116000  0.13333000
   0.56567507  0.95774000  0.13333000
   0.23414454  0.95588000  0.13333000
   0.15126196  0.79021000  0.13333000
   0.39724956  0.95595000  0.13333000
   0.39855012  0.62714000  0.13333000
   0.23270510  0.62707000  0.13333000
   0.48006692  0.79008000  0.13333000
   0.31550723  0.79116000  0.13333000
   0.06567507  0.95774000  0.13333000
   0.51318019  0.65760505  0.14333042
   0.63498818  0.58816656  0.13951958
slab_Cel1-OPT                           
           1
    14.446743    0.000000    0.000000
     0.000000   12.450314    0.000000
     0.000000    0.000000   15.000000
   C    N    Ag   Cu
    24    32     1     1
Direct configuration=     2
   0.06553188  0.40382331  0.13333031
   0.98094645  0.23463208  0.13332973
   0.22590603  0.39800565  0.13333230
   0.81715623  0.57588788  0.13330675
   0.14990516  0.23471357  0.13332863
   0.90529435  0.39786717  0.13333207
   0.56474545  0.40248019  0.13328636
   0.48054609  0.23415206  0.13332533
   0.72778340  0.39718025  0.13331551
   0.31437019  0.57580998  0.13335619
   0.65015592  0.23410142  0.13332554
   0.40377429  0.39765089  0.13333427
   0.81590022  0.90431404  0.13333333
   0.73204798  0.73660184  0.13327446
   0.97640149  0.89825762  0.13332630
   0.06543172  0.07702585  0.13333127
   0.90053337  0.73485465  0.13332818
   0.65480884  0.89939022  0.13332686
   0.31538208  0.90457542  0.13332167
   0.23039590  0.73456472  0.13333781
   0.47665039  0.89994301  0.13330275
   0.56541834  0.07682185  0.13333910
   0.39509550  0.73817164  0.13292821
   0.15494428  0.89823281  0.13331631
   0.98393811  0.45601864  0.13333107
   0.90098304  0.29023418  0.13332981
   0.14697348  0.45603388  0.13333454
   0.14840438  0.12721380  0.13333020
   0.98243018  0.12725085  0.13333100
   0.22994667  0.29013364  0.13332846
   0.06536599  0.29116394  0.13332889
   0.81507893  0.45801927  0.13332253
   0.48518000  0.45589737  0.13334764
   0.40133955  0.29039323  0.13334436
   0.64604576  0.45103670  0.13322739
   0.64856385  0.12766042  0.13332365
   0.48230332  0.12764037  0.13332807
   0.72961491  0.29059847  0.13333581
   0.56546076  0.29173217  0.13331054
   0.31589390  0.45791635  0.13332308
   0.73411755  0.95565046  0.13334625
   0.65185725  0.78933675  0.13327283
   0.89670655  0.95589744  0.13331870
   0.89808040  0.62722072  0.13333727
   0.74236166  0.63249828  0.13268077
   0.97978519  0.78978182  0.13331983
   0.81527852  0.79089537  0.13337281
   0.56567897  0.95746340  0.13333623
   0.23463503  0.95584768  0.13333357
   0.15150923  0.78978701  0.13332685
   0.39707996  0.95559578  0.13337919
   0.38947609  0.62521476  0.13225773
   0.23285778  0.62742489  0.13334212
   0.47738461  0.79874638  0.13247990
   0.31587984  0.79089241  0.13339908
   0.06563373  0.95765497  0.13333799
   0.52267848  0.65127330  0.14580258
   0.63057350  0.58450880  0.14014004
slab_Cel1-OPT                           
           1
    14.411750    0.000000    0.000000
     0.000000   12.432257    0.000000
     0.000000    0.000000   15.000000
   C    N    Ag   Cu
    24    32     1     1
Direct configuration=     3
   0.06550208  0.40378810  0.13333025
   0.98095238  0.23469121  0.13332978
   0.22591145  0.39804298  0.13333185
   0.81682749  0.57612066  0.13331125
   0.14987312  0.23474938  0.13332890
   0.90527237  0.39788692  0.13333167
   0.56486592  0.40270293  0.13329481
   0.48062851  0.23430338  0.13332623
   0.72743009  0.39737609  0.13331831
   0.31457379  0.57605772  0.13335112
   0.65007597  0.23425479  0.13332640
   0.40404276  0.39771218  0.13333345
   0.81582748  0.90418459  0.13333268
   0.73187087  0.73628268  0.13328520
   0.97633967  0.89824655  0.13332702
   0.06540505  0.07704009  0.13333102
   0.90040873  0.73486336  0.13332853
   0.65490706  0.89911746  0.13332747
   0.31540835  0.90439577  0.13332328
   0.23053447  0.73463679  0.13333630
   0.47654102  0.89960827  0.13330802
   0.56539423  0.07687527  0.13333734
   0.39600992  0.73754332  0.13300595
   0.15501663  0.89818234  0.13331896
   0.98395011  0.45599202  0.13333086
   0.90100890  0.29022954  0.13332984
   0.14699879  0.45601777  0.13333366
   0.14840479  0.12719963  0.13333016
   0.98245527  0.12721611  0.13333080
   0.22994221  0.29012334  0.13332876
   0.06536554  0.29116318  0.13332911
   0.81516540  0.45796564  0.13332398
   0.48495471  0.45589403  0.13334423
   0.40129729  0.29035804  0.13334158
   0.64624834  0.45198030  0.13324725
   0.64853379  0.12756047  0.13332488
   0.48235265  0.12753083  0.13332844
   0.72967384  0.29049890  0.13333469
   0.56544220  0.29162229  0.13331431
   0.31582465  0.45788248  0.13332442
   0.73412271  0.95569454  0.13334310
   0.65174350  0.78950446  0.13328389
   0.89681031  0.95590753  0.13332089
   0.89817016  0.62720522  0.13333586
   0.74051651  0.63145578  0.13280640
   0.97983902  0.78983909  0.13332180
   0.81532222  0.79094619  0.13336453
   0.56567823  0.95751652  0.13333502
   0.23454131  0.95585389  0.13333288
   0.15146198  0.78986825  0.13332746
   0.39711237  0.95566381  0.13336968
   0.39120993  0.62558450  0.13246521
   0.23282861  0.62735673  0.13333978
   0.47789714  0.79708201  0.13264439
   0.31580865  0.79094380  0.13338572
   0.06564163  0.95767130  0.13333644
   0.52086357  0.65248931  0.14532421
   0.63141705  0.58521127  0.14001998
slab_Cel1-OPT                           
           1
    14.523543    0.000000    0.000000
     0.000000   12.471184    0.000000
     0.000000    0.000000   15.000000
   C    N    Ag   Cu
    24    32     1     1
Direct configuration=     4
   0.06556622  0.40397594  0.13333085
   0.98092224  0.23461673  0.13332998
   0.22565913  0.39784459  0.13333246
   0.81927590  0.57523970  0.13327896
   0.14996314  0.23471652  0.13332699
   0.90562099  0.39774088  0.13333276
   0.56426910  0.40087336  0.13324568
   0.48036501  0.23378591  0.13332054
   0.72862454  0.39627828  0.13329594
   0.31189930  0.57438856  0.13337663
   0.65046397  0.23387785  0.13332172
   0.40327695  0.39750830  0.13333547
   0.81602978  0.90462649  0.13333565
   0.73326422  0.73824050  0.13321340
   0.97626030  0.89821026  0.13332303
   0.06547777  0.07729141  0.13333231
   0.90073644  0.73455675  0.13332753
   0.65460925  0.90000775  0.13332874
   0.31551718  0.90517209  0.13332025
   0.23007739  0.73413449  0.13333996
   0.47661164  0.90287817  0.13330552
   0.56547550  0.07693034  0.13334353
   0.39387464  0.73887224  0.13267395
   0.15501398  0.89826171  0.13330480
   0.98390997  0.45580890  0.13333245
   0.90116666  0.29028776  0.13332963
   0.14695610  0.45580384  0.13333777
   0.14811307  0.12726809  0.13332981
   0.98269446  0.12730491  0.13333188
   0.22971797  0.29021374  0.13332819
   0.06539642  0.29110469  0.13332816
   0.81495686  0.45805394  0.13330916
   0.48558288  0.45593150  0.13340654
   0.40159713  0.29074653  0.13335420
   0.64596916  0.44802332  0.13316137
   0.64834970  0.12790792  0.13332302
   0.48247553  0.12791699  0.13332831
   0.72939657  0.29068025  0.13334720
   0.56532251  0.29175343  0.13327234
   0.31581028  0.45765648  0.13331919
   0.73402699  0.95527980  0.13335736
   0.65227241  0.78868148  0.13327315
   0.89659707  0.95565918  0.13330836
   0.89838412  0.62738487  0.13336480
   0.74354048  0.63396236  0.13242476
   0.97949715  0.78981411  0.13330628
   0.81551652  0.79151531  0.13340717
   0.56580879  0.95774299  0.13332997
   0.23462785  0.95562458  0.13334092
   0.15170546  0.78989084  0.13332923
   0.39671656  0.95572723  0.13341868
   0.38882074  0.62759862  0.13170412
   0.23249855  0.62768031  0.13336554
   0.47535015  0.79815133  0.13205241
   0.31496612  0.79151231  0.13344060
   0.06565460  0.95760233  0.13334365
   0.51896261  0.65298552  0.14743844
   0.63700675  0.58038730  0.14000869
slab_Cel1-OPT                           
           1
    14.621940    0.000000    0.000000
     0.000000   12.505446    0.000000
     0.000000    0.000000   15.000000
   C    N    Ag   Cu
    24    32     1     1
Direct configuration=     5
   0.06562223  0.40414075  0.13333138
   0.98089592  0.23455138  0.13333015
   0.22543876  0.39767053  0.13333300
   0.82141432  0.57446673  0.13325054
   0.15004176  0.23468768  0.13332531
   0.90592547  0.39761275  0.13333371
   0.56374785  0.39926806  0.13320244
   0.48013487  0.23333188  0.13331552
   0.72966776  0.39531505  0.13327626
   0.30956343  0.57292401  0.13339909
   0.65080285  0.23354712  0.13331761
   0.40260810  0.39732942  0.13333725
   0.81620646  0.90501422  0.13333826
   0.73448115  0.73995831  0.13315021
   0.97619097  0.89817842  0.13331952
   0.06554129  0.07751192  0.13333344
   0.90102266  0.73428774  0.13332665
   0.65434914  0.90078891  0.13332986
   0.31561224  0.90585325  0.13331759
   0.22967818  0.73369375  0.13334318
   0.47667332  0.90574723  0.13330332
   0.56554648  0.07697866  0.13334898
   0.39200971  0.74003826  0.13238173
   0.15501166  0.89833135  0.13329233
   0.98387491  0.45564822  0.13333384
   0.90130445  0.29033885  0.13332945
   0.14691881  0.45561613  0.13334139
   0.14785829  0.12732816  0.13332949
   0.98290337  0.12738282  0.13333282
   0.22952212  0.29029306  0.13332769
   0.06542340  0.29105337  0.13332732
   0.81477473  0.45813142  0.13329613
   0.48613152  0.45596438  0.13346139
   0.40185901  0.29108739  0.13336530
   0.64572533  0.44455141  0.13308579
   0.64818892  0.12821277  0.13332138
   0.48258286  0.12825581  0.13332820
   0.72915440  0.29083936  0.13335821
   0.56521797  0.29186849  0.13323539
   0.31579772  0.45745819  0.13331459
   0.73394339  0.95491590  0.13336991
   0.65273435  0.78795938  0.13326369
   0.89641083  0.95544127  0.13329733
   0.89857100  0.62754250  0.13339028
   0.74618158  0.63616167  0.13208886
   0.97919857  0.78979220  0.13329263
   0.81568621  0.79201466  0.13344471
   0.56592283  0.95794169  0.13332553
   0.23470344  0.95542338  0.13334800
   0.15191811  0.78991066  0.13333079
   0.39637086  0.95578288  0.13346180
   0.38673404  0.62936583  0.13103424
   0.23221028  0.62796422  0.13338821
   0.47312564  0.79908958  0.13153136
   0.31423027  0.79201113  0.13348890
   0.06566592  0.95754181  0.13334999
   0.51730233  0.65342090  0.14929931
   0.64188873  0.57615468  0.13999876
slab_Cel1-OPT                           
           1
    14.578113    0.000000    0.000000
     0.000000   12.482427    0.000000
     0.000000    0.000000   15.000000
   C    N    Ag   Cu
    24    32     1     1
Direct configuration=     6
   0.06557651  0.40408606  0.13333068
   0.98106669  0.23460262  0.13333111
   0.22485862  0.39721492  0.13333879
   0.82221908  0.57518209  0.13317471
   0.14984101  0.23469159  0.13332512
   0.90652292  0.39722637  0.13332933
   0.56334777  0.39773648  0.13315657
   0.48014938  0.23369150  0.13331288
   0.72941475  0.39446091  0.13324079
   0.30881119  0.57340025  0.13331820
   0.65089576  0.23391805  0.13330758
   0.40328733  0.39749984  0.13333997
   0.81622228  0.90518987  0.13335219
   0.73581328  0.74134467  0.13306290
   0.97573850  0.89809237  0.13331542
   0.06551712  0.07784232  0.13333375
   0.90114211  0.73440677  0.13332814
   0.65476006  0.90022286  0.13333315
   0.31524175  0.90631625  0.13332657
   0.22920991  0.73403110  0.13334362
   0.47583068  0.90633167  0.13324729
   0.56566691  0.07780456  0.13335450
   0.39091627  0.74060403  0.13193060
   0.15548783  0.89817320  0.13327301
   0.98398387  0.45515429  0.13333532
   0.90184176  0.29045384  0.13332948
   0.14690062  0.45512747  0.13334630
   0.14731911  0.12757956  0.13332899
   0.98350110  0.12755819  0.13333472
   0.22899316  0.29038534  0.13332589
   0.06545359  0.29114960  0.13332657
   0.81547579  0.45786734  0.13329287
   0.48577678  0.45566410  0.13355654
   0.40213578  0.29129512  0.13337921
   0.64578886  0.44122226  0.13301279
   0.64756062  0.12810513  0.13332962
   0.48322287  0.12794400  0.13332990
   0.72927642  0.28969893  0.13336127
   0.56470082  0.29026612  0.13316539
   0.31496016  0.45698436  0.13332086
   0.73369224  0.95458749  0.13337900
   0.65316387  0.78836089  0.13327689
   0.89659244  0.95518319  0.13328386
   0.90001208  0.62768783  0.13342246
   0.74700088  0.63654485  0.13186237
   0.97873987  0.78996236  0.13328397
   0.81670997  0.79355443  0.13347697
   0.56593390  0.95896148  0.13332656
   0.23449029  0.95522264  0.13336384
   0.15213729  0.79015455  0.13333964
   0.39595161  0.95698031  0.13353664
   0.38534601  0.63105450  0.13022901
   0.23105567  0.62765931  0.13348211
   0.47120141  0.79930651  0.13087313
   0.31246226  0.79323935  0.13357276
   0.06563521  0.95762727  0.13335016
   0.51853351  0.65180137  0.15151871
   0.64513519  0.57527729  0.13996932
slab_Cel1-OPT                           
           1
    14.514637    0.000000    0.000000
     0.000000   12.449087    0.000000
     0.000000    0.000000   15.000000
   C    N    Ag   Cu
    24    32     1     1
Direct configuration=     7
   0.06551011  0.40400670  0.13332967
   0.98131477  0.23467697  0.13333250
   0.22401585  0.39655383  0.13334718
   0.82338819  0.57622009  0.13306489
   0.14954937  0.23469726  0.13332483
   0.90739086  0.39666573  0.13332298
   0.56276655  0.39551411  0.13309013
   0.48017047  0.23421333  0.13330905
   0.72904720  0.39322151  0.13318941
   0.30771840  0.57409129  0.13320104
   0.65103073  0.23445627  0.13329305
   0.40427407  0.39774711  0.13334391
   0.81624526  0.90544474  0.13337236
   0.73774849  0.74335631  0.13293644
   0.97508119  0.89796751  0.13330947
   0.06548200  0.07832174  0.13333421
   0.90131563  0.73457948  0.13333031
   0.65535700  0.89940151  0.13333791
   0.31470353  0.90698808  0.13333959
   0.22852965  0.73452060  0.13334425
   0.47460657  0.90717970  0.13316614
   0.56584187  0.07900297  0.13336250
   0.38932781  0.74142499  0.13127721
   0.15617957  0.89794372  0.13324501
   0.98414215  0.45443756  0.13333747
   0.90262232  0.29062070  0.13332953
   0.14687420  0.45441840  0.13335340
   0.14653584  0.12794436  0.13332827
   0.98436944  0.12781268  0.13333748
   0.22822473  0.29051924  0.13332329
   0.06549744  0.29128923  0.13332548
   0.81649423  0.45748415  0.13328816
   0.48526143  0.45522838  0.13369437
   0.40253786  0.29159655  0.13339936
   0.64588115  0.43639155  0.13290707
   0.64664788  0.12794893  0.13334155
   0.48415262  0.12749155  0.13333236
   0.72945368  0.28804414  0.13336570
   0.56394954  0.28794103  0.13306400
   0.31374342  0.45629681  0.13332994
   0.73332740  0.95411096  0.13339217
   0.65378785  0.78894350  0.13329600
   0.89685627  0.95480872  0.13326436
   0.90210557  0.62789869  0.13346908
   0.74819111  0.63710084  0.13153433
   0.97807350  0.79020925  0.13327143
   0.81819721  0.79578869  0.13352369
   0.56594997  0.96044122  0.13332804
   0.23418066  0.95493134  0.13338678
   0.15245571  0.79050845  0.13335245
   0.39534255  0.95871781  0.13364504
   0.38332960  0.63350481  0.12906275
   0.22937835  0.62721688  0.13361811
   0.46840605  0.79962129  0.12991977
   0.30989383  0.79502154  0.13369421
   0.06559060  0.95775127  0.13335042
   0.52032207  0.64945137  0.15473322
   0.64985137  0.57400417  0.13992668
slab_Cel1-OPT                           
           1
    14.500306    0.000000    0.000000
     0.000000   12.452557    0.000000
     0.000000    0.000000   15.000000
   C    N    Ag   Cu
    24    32     1     1
Direct configuration=     8
   0.06562273  0.40364004  0.13333004
   0.98192420  0.23464015  0.13333523
   0.22370614  0.39623306  0.13336388
   0.82483490  0.57648921  0.13291858
   0.14897684  0.23472264  0.13332315
   0.90764778  0.39646600  0.13330418
   0.56216689  0.39396508  0.13302355
   0.48006596  0.23316179  0.13329703
   0.73003386  0.39145782  0.13312844
   0.30694911  0.57500898  0.13292520
   0.65077477  0.23336212  0.13326708
   0.40430164  0.39842155  0.13337289
   0.81654361  0.90692602  0.13340252
   0.73885007  0.74379201  0.13276171
   0.97521921  0.89796518  0.13330196
   0.06549374  0.07785537  0.13333418
   0.90208657  0.73515005  0.13333558
   0.65516718  0.89909472  0.13334827
   0.31393283  0.90787843  0.13339356
   0.22772520  0.73477508  0.13337421
   0.47351299  0.90698766  0.13297544
   0.56602379  0.07944593  0.13337221
   0.38743910  0.74272195  0.13042179
   0.15604802  0.89806328  0.13322729
   0.98463946  0.45436064  0.13333977
   0.90305277  0.29011305  0.13333126
   0.14638183  0.45425166  0.13335912
   0.14661905  0.12830828  0.13332748
   0.98430227  0.12823911  0.13334180
   0.22782837  0.28979388  0.13332114
   0.06543652  0.29140372  0.13332466
   0.81742175  0.45713733  0.13327000
   0.48529243  0.45475187  0.13389255
   0.40264220  0.29131076  0.13341473
   0.64483204  0.43570040  0.13291357
   0.64700336  0.12828570  0.13337224
   0.48374863  0.12785401  0.13334613
   0.73049128  0.28541125  0.13337450
   0.56322880  0.28594240  0.13290557
   0.31301446  0.45628481  0.13333867
   0.73363908  0.95432011  0.13339749
   0.65460282  0.78933431  0.13336067
   0.89683670  0.95566562  0.13325000
   0.90446889  0.62811269  0.13352619
   0.74992002  0.63989170  0.13109355
   0.97843412  0.79075647  0.13326443
   0.81935951  0.79663935  0.13354563
   0.56557065  0.96076691  0.13333166
   0.23339626  0.95605700  0.13340751
   0.15131160  0.79102509  0.13335860
   0.39413222  0.96125208  0.13380830
   0.38326025  0.63509318  0.12780316
   0.22684859  0.62713956  0.13387071
   0.46707012  0.79884171  0.12892004
   0.30844570  0.79597334  0.13379900
   0.06552068  0.95780537  0.13334017
   0.52233385  0.64686022  0.15846071
   0.65208931  0.57078394  0.13978103
slab_Cel1-OPT                           
           1
    14.490535    0.000000    0.000000
     0.000000   12.454922    0.000000
     0.000000    0.000000   15.000000
   C    N    Ag   Cu
    24    32     1     1
Direct configuration=     9
   0.06569959  0.40339013  0.13333029
   0.98234009  0.23461505  0.13333708
   0.22349479  0.39601443  0.13337526
   0.82582217  0.57667264  0.13281883
   0.14858614  0.23473993  0.13332200
   0.90782310  0.39632987  0.13329136
   0.56175766  0.39290931  0.13297815
   0.47999465  0.23244509  0.13328884
   0.73070718  0.39025574  0.13308688
   0.30642413  0.57563444  0.13273715
   0.65060010  0.23261639  0.13324937
   0.40432046  0.39888122  0.13339265
   0.81674721  0.90793561  0.13342308
   0.73960181  0.74408897  0.13264259
   0.97531339  0.89796359  0.13329685
   0.06550175  0.07753751  0.13333416
   0.90261268  0.73553893  0.13333918
   0.65503765  0.89888563  0.13335533
   0.31340689  0.90848526  0.13343036
   0.22717622  0.73494853  0.13339463
   0.47276671  0.90685676  0.13284543
   0.56614794  0.07974784  0.13337883
   0.38615020  0.74360591  0.12983861
   0.15595826  0.89814476  0.13321521
   0.98497884  0.45430821  0.13334134
   0.90334652  0.28976705  0.13333243
   0.14604582  0.45413801  0.13336302
   0.14667584  0.12855631  0.13332694
   0.98425644  0.12852976  0.13334475
   0.22755788  0.28929950  0.13331968
   0.06539495  0.29148175  0.13332411
   0.81805472  0.45690094  0.13325762
   0.48531358  0.45442711  0.13402767
   0.40271340  0.29111598  0.13342520
   0.64411610  0.43522933  0.13291799
   0.64724594  0.12851523  0.13339315
   0.48347293  0.12810105  0.13335552
   0.73119937  0.28361677  0.13338049
   0.56273694  0.28458021  0.13279756
   0.31251700  0.45627662  0.13334462
   0.73385179  0.95446266  0.13340111
   0.65515897  0.78960067  0.13340476
   0.89682334  0.95624966  0.13324021
   0.90608168  0.62825855  0.13356513
   0.75109988  0.64179384  0.13079304
   0.97868023  0.79112944  0.13325966
   0.82015269  0.79721912  0.13356059
   0.56531178  0.96098888  0.13333413
   0.23286097  0.95682420  0.13342164
   0.15053083  0.79137722  0.13336280
   0.39330626  0.96297934  0.13391960
   0.38321293  0.63617576  0.12694443
   0.22512221  0.62708687  0.13404292
   0.46615845  0.79831037  0.12823847
   0.30745745  0.79662205  0.13387044
   0.06547296  0.95784224  0.13333318
   0.52370675  0.64509419  0.16100194
   0.65361653  0.56858915  0.13968173
slab_Cel1-OPT                           
           1
    14.487940    0.000000    0.000000
     0.000000   12.483677    0.000000
     0.000000    0.000000   15.000000
   C    N    Ag   Cu
    24    32     1     1
Direct configuration=    10
   0.06563234  0.40291289  0.13333048
   0.98276072  0.23467884  0.13333950
   0.22355153  0.39568058  0.13339519
   0.82743476  0.57714420  0.13266449
   0.14809622  0.23472218  0.13332159
   0.90799673  0.39611157  0.13326814
   0.56142365  0.39180209  0.13293337
   0.47912136  0.23177302  0.13325596
   0.73122711  0.38840918  0.13303989
   0.30576337  0.57681516  0.13230796
   0.65067535  0.23181646  0.13320793
   0.40338610  0.39811512  0.13344572
   0.81711652  0.90877596  0.13344978
   0.74003475  0.74570218  0.13249325
   0.97575430  0.89876783  0.13328909
   0.06550344  0.07701237  0.13333070
   0.90354017  0.73591733  0.13334962
   0.65499470  0.89955013  0.13338050
   0.31230139  0.91010132  0.13354357
   0.22530810  0.73522903  0.13348903
   0.47161776  0.90656791  0.13255409
   0.56594391  0.07914777  0.13339020
   0.38573673  0.74403807  0.12889186
   0.15475998  0.89893148  0.13321677
   0.98509378  0.45456566  0.13333772
   0.90325183  0.28960804  0.13333220
   0.14606519  0.45428000  0.13336299
   0.14694014  0.12817323  0.13332646
   0.98393811  0.12820661  0.13335220
   0.22780192  0.28903098  0.13332269
   0.06539717  0.29137246  0.13332530
   0.81839481  0.45667623  0.13319663
   0.48535747  0.45414551  0.13430379
   0.40213321  0.29146492  0.13342656
   0.64429453  0.43464527  0.13297943
   0.64786842  0.12701725  0.13345445
   0.48263073  0.12698859  0.13339511
   0.73214859  0.28233507  0.13338501
   0.56311347  0.28481031  0.13255281
   0.31261674  0.45735659  0.13332909
   0.73369164  0.95535063  0.13337905
   0.65549456  0.78970361  0.13355566
   0.89761636  0.95817674  0.13324165
   0.90755576  0.62843668  0.13362848
   0.75169425  0.64099342  0.13043463
   0.98024522  0.79222246  0.13326305
   0.82067356  0.79748711  0.13354289
   0.56455370  0.95997895  0.13331831
   0.23183620  0.95849705  0.13344446
   0.14898805  0.79170103  0.13336482
   0.39262146  0.96390672  0.13410092
   0.38368115  0.63586742  0.12588510
   0.22390762  0.62743878  0.13435585
   0.46647755  0.79780869  0.12747441
   0.30689904  0.79694277  0.13389602
   0.06532508  0.95807000  0.13330871
   0.52423585  0.64382397  0.16471053
   0.65599858  0.56688619  0.13915433
slab_Cel1-OPT                           
           1
    14.486237    0.000000    0.000000
     0.000000   12.502545    0.000000
     0.000000    0.000000   15.000000
   C    N    Ag   Cu
    24    32     1     1
Direct configuration=    11
   0.06558821  0.40260047  0.13333060
   0.98303677  0.23472060  0.13334108
   0.22358877  0.39546203  0.13340826
   0.82849304  0.57745290  0.13256322
   0.14777470  0.23471056  0.13332131
   0.90811068  0.39596867  0.13325291
   0.56120445  0.39107725  0.13290398
   0.47854826  0.23133305  0.13323438
   0.73156833  0.38720035  0.13300906
   0.30532974  0.57758810  0.13202635
   0.65072473  0.23129280  0.13318074
   0.40277291  0.39761360  0.13348054
   0.81735889  0.90932609  0.13346729
   0.74031887  0.74675825  0.13239527
   0.97604365  0.89929431  0.13328401
   0.06550454  0.07666860  0.13332843
   0.90414885  0.73616504  0.13335646
   0.65496651  0.89998513  0.13339702
   0.31157590  0.91115925  0.13361786
   0.22408212  0.73541266  0.13355096
   0.47086374  0.90637882  0.13236293
   0.56581001  0.07875494  0.13339767
   0.38546538  0.74432098  0.12827065
   0.15397358  0.89944650  0.13321779
   0.98516920  0.45473419  0.13333535
   0.90318970  0.28950394  0.13333205
   0.14607791  0.45437295  0.13336298
   0.14711360  0.12792246  0.13332615
   0.98372920  0.12799506  0.13335710
   0.22796207  0.28885520  0.13332467
   0.06539862  0.29130093  0.13332608
   0.81861800  0.45652913  0.13315660
   0.48538627  0.45396116  0.13448497
   0.40175244  0.29169334  0.13342744
   0.64441164  0.43426292  0.13301974
   0.64827693  0.12603662  0.13349467
   0.48207803  0.12626033  0.13342109
   0.73277153  0.28149602  0.13338798
   0.56336057  0.28496094  0.13239222
   0.31268219  0.45806357  0.13331890
   0.73358654  0.95593193  0.13336458
   0.65571479  0.78977101  0.13365467
   0.89813679  0.95943828  0.13324260
   0.90852316  0.62855330  0.13367004
   0.75208431  0.64046943  0.13019946
   0.98127227  0.79293799  0.13326528
   0.82101539  0.79766254  0.13353127
   0.56405620  0.95931781  0.13330793
   0.23116368  0.95959215  0.13345944
   0.14797558  0.79191301  0.13336615
   0.39217205  0.96451382  0.13421990
   0.38398843  0.63566557  0.12519002
   0.22311053  0.62766916  0.13456118
   0.46668697  0.79748026  0.12697307
   0.30653257  0.79715272  0.13391281
   0.06522804  0.95821911  0.13329266
   0.52458308  0.64299243  0.16714391
   0.65756184  0.56577138  0.13880829
slab_Cel1-OPT                           
           1
    14.424280    0.000000    0.000000
     0.000000   12.482618    0.000000
     0.000000    0.000000   15.000000
   C    N    Ag   Cu
    24    32     1     1
Direct configuration=    12
   0.06564182  0.40274305  0.13333021
   0.98267842  0.23422025  0.13334581
   0.22383204  0.39561271  0.13342424
   0.82964329  0.57805102  0.13236929
   0.14810785  0.23417262  0.13332433
   0.90810829  0.39581131  0.13321878
   0.56143069  0.39142028  0.13291773
   0.47755940  0.23056806  0.13317125
   0.73139453  0.38586283  0.13297144
   0.30491914  0.57892449  0.13146348
   0.65135959  0.22962235  0.13311885
   0.40201697  0.39752859  0.13356106
   0.81817243  0.91057072  0.13349319
   0.74045434  0.74591531  0.13221298
   0.97668566  0.90106257  0.13327471
   0.06540241  0.07666344  0.13332016
   0.90627444  0.73705168  0.13337248
   0.65468699  0.90068674  0.13343914
   0.31021456  0.91256803  0.13377518
   0.22215857  0.73599003  0.13370812
   0.46978444  0.90586324  0.13198058
   0.56514785  0.07699920  0.13341502
   0.38599497  0.74372518  0.12711738
   0.15237790  0.90052178  0.13323297
   0.98517031  0.45453214  0.13332203
   0.90338049  0.28960200  0.13332852
   0.14629020  0.45390522  0.13335381
   0.14708484  0.12780644  0.13332229
   0.98371622  0.12788001  0.13336744
   0.22807217  0.28891649  0.13333548
   0.06544540  0.29103726  0.13332948
   0.81929366  0.45591843  0.13305243
   0.48513128  0.45296857  0.13486192
   0.40095094  0.29145206  0.13342236
   0.64525144  0.43238832  0.13313865
   0.64835656  0.12480821  0.13358615
   0.48139519  0.12563952  0.13348038
   0.73324515  0.28064193  0.13339197
   0.56352996  0.28428372  0.13201277
   0.31267543  0.45891873  0.13327509
   0.73372211  0.95671372  0.13332126
   0.65605243  0.79027576  0.13386875
   0.89846921  0.96088210  0.13326137
   0.90979888  0.62943558  0.13375220
   0.75288386  0.64105341  0.12980959
   0.98206723  0.79371915  0.13328119
   0.82180130  0.79839557  0.13346718
   0.56329652  0.95822752  0.13327242
   0.22968273  0.96085334  0.13351471
   0.14637528  0.79293390  0.13339105
   0.39172774  0.96388889  0.13441959
   0.38429673  0.63526538  0.12403138
   0.22285703  0.62851111  0.13493094
   0.46733230  0.79727813  0.12620168
   0.30598815  0.79750777  0.13381696
   0.06501898  0.95881302  0.13325174
   0.52468382  0.64206881  0.17163449
   0.65913262  0.56501390  0.13796432
slab_Cel1-OPT                           
           1
    14.386480    0.000000    0.000000
     0.000000   12.470461    0.000000
     0.000000    0.000000   15.000000
   C    N    Ag   Cu
    24    32     1     1
Direct configuration=    13
   0.06567466  0.40283017  0.13332998
   0.98245885  0.23391450  0.13334870
   0.22398110  0.39570478  0.13343399
   0.83034808  0.57841652  0.13225098
   0.14831199  0.23384390  0.13332616
   0.90810683  0.39571515  0.13319796
   0.56156932  0.39162989  0.13292611
   0.47695350  0.23010059  0.13313274
   0.73128804  0.38504550  0.13294849
   0.30466756  0.57974114  0.13112007