  57  57   0   0
  0.4599006E+02  0.1420606E-08  0.1230194E-08  0.1500000E-08  0.1000000E-15
  1.000000000000000E-004
  CAR 
 slab_Cel1-OPT                           
      4.23030495    -27.78497694  301     -2.24867705      1.00000000
    -27.785  0.0000E+00  0.0000E+00
    -27.678  0.0000E+00  0.0000E+00
    -27.572  0.0000E+00  0.0000E+00
    -27.465  0.0000E+00  0.0000E+00
    -27.358  0.0000E+00  0.0000E+00
    -27.251  0.0000E+00  0.0000E+00
    -27.145  0.0000E+00  0.0000E+00
    -27.038  0.0000E+00  0.0000E+00
    -26.931  0.0000E+00  0.0000E+00
    -26.825  0.7024E-14  0.7495E-15
    -26.718  0.1202E-09  0.1282E-10
    -26.611  0.2377E-06  0.2538E-07
    -26.504  0.5769E-04  0.6182E-05
    -26.398  0.1881E-02  0.2069E-03
    -26.291  0.9792E-02  0.1252E-02
    -26.184  0.1562E-01  0.2919E-02
    -26.077  0.2365E-01  0.5443E-02
    -25.971  0.1928E-01  0.7501E-02
    -25.864  0.4481E-02  0.7979E-02
    -25.757  0.1949E-03  0.8000E-02
    -25.651  0.1198E-05  0.8000E-02
    -25.544  0.9261E-09  0.8000E-02
    -25.437  0.8159E-07  0.8000E-02
    -25.330  0.2654E-04  0.8003E-02
    -25.224  0.1211E-02  0.8132E-02
    -25.117  0.9405E-02  0.9136E-02
    -25.010  0.1714E-01  0.1096E-01
    -24.904  0.1349E-01  0.1240E-01
    -24.797  0.1012E-01  0.1348E-01
    -24.690  0.8746E-02  0.1442E-01
    -24.583  0.7978E-02  0.1527E-01
    -24.477  0.2074E-02  0.1549E-01
    -24.370  0.9086E-04  0.1550E-01
    -24.263  0.1891E-03  0.1552E-01
    -24.157  0.1920E-02  0.1573E-01
    -24.050  0.7662E-02  0.1654E-01
    -23.943  0.2578E-01  0.1929E-01
    -23.836  0.3190E-01  0.2270E-01
    -23.730  0.1475E-01  0.2427E-01
    -23.623  0.2078E-02  0.2449E-01
    -23.516  0.7679E-04  0.2450E-01
    -23.410  0.7843E-03  0.2459E-01
    -23.303  0.5716E-02  0.2520E-01
    -23.196  0.9395E-02  0.2620E-01
    -23.089  0.7704E-02  0.2702E-01
    -22.983  0.1076E-01  0.2817E-01
    -22.876  0.1382E-01  0.2964E-01
    -22.769  0.1183E-01  0.3091E-01
    -22.663  0.8159E-02  0.3178E-01
    -22.556  0.2006E-02  0.3199E-01
    -22.449  0.8612E-04  0.3200E-01
    -22.342  0.7109E-06  0.3200E-01
    -22.236  0.6208E-04  0.3201E-01
    -22.129  0.2631E-02  0.3229E-01
    -22.022  0.1989E-01  0.3441E-01
    -21.916  0.3866E-01  0.3854E-01
    -21.809  0.3594E-01  0.4237E-01
    -21.702  0.3339E-01  0.4593E-01
    -21.595  0.1714E-01  0.4776E-01
    -21.489  0.2165E-02  0.4800E-01
    -21.382  0.5035E-04  0.4800E-01
    -21.275  0.4810E-03  0.4805E-01
    -21.168  0.6638E-02  0.4876E-01
    -21.062  0.2097E-01  0.5100E-01
    -20.955  0.2485E-01  0.5365E-01
    -20.848  0.1665E-01  0.5543E-01
    -20.742  0.4961E-02  0.5596E-01
    -20.635  0.1343E-02  0.5610E-01
    -20.528  0.9516E-02  0.5712E-01
    -20.421  0.2368E-01  0.5964E-01
    -20.315  0.2329E-01  0.6213E-01
    -20.208  0.1366E-01  0.6359E-01
    -20.101  0.3652E-02  0.6398E-01
    -19.995  0.2296E-03  0.6400E-01
    -19.888  0.2352E-05  0.6400E-01
    -19.781  0.3184E-08  0.6400E-01
    -19.674  0.5055E-12  0.6400E-01
    -19.568  0.8843E-17  0.6400E-01
    -19.461  0.0000E+00  0.6400E-01
    -19.354  0.0000E+00  0.6400E-01
    -19.248  0.0000E+00  0.6400E-01
    -19.141  0.0000E+00  0.6400E-01
    -19.034  0.0000E+00  0.6400E-01
    -18.927  0.0000E+00  0.6400E-01
    -18.821  0.0000E+00  0.6400E-01
    -18.714  0.0000E+00  0.6400E-01
    -18.607  0.0000E+00  0.6400E-01
    -18.501  0.0000E+00  0.6400E-01
    -18.394  0.0000E+00  0.6400E-01
    -18.287  0.0000E+00  0.6400E-01
    -18.180  0.0000E+00  0.6400E-01
    -18.074  0.3670E-15  0.6400E-01
    -17.967  0.1173E-10  0.6400E-01
    -17.860  0.4146E-07  0.6400E-01
    -17.754  0.1708E-04  0.6400E-01
    -17.647  0.9030E-03  0.6410E-01
    -17.540  0.7256E-02  0.6487E-01
    -17.433  0.1356E-01  0.6632E-01
    -17.327  0.1596E-01  0.6802E-01
    -17.220  0.1976E-01  0.7013E-01
    -17.113  0.1948E-01  0.7221E-01
    -17.006  0.1827E-01  0.7416E-01
    -16.900  0.1674E-01  0.7595E-01
    -16.793  0.1720E-01  0.7778E-01
    -16.686  0.9552E-02  0.7880E-01
    -16.580  0.2318E-02  0.7905E-01
    -16.473  0.3544E-02  0.7943E-01
    -16.366  0.4289E-02  0.7989E-01
    -16.259  0.1033E-02  0.8000E-01
    -16.153  0.4146E-04  0.8000E-01
    -16.046  0.2273E-06  0.8000E-01
    -15.939  0.1735E-05  0.8000E-01
    -15.833  0.2655E-03  0.8003E-01
    -15.726  0.6044E-02  0.8067E-01
    -15.619  0.2629E-01  0.8348E-01
    -15.512  0.2835E-01  0.8650E-01
    -15.406  0.9446E-02  0.8751E-01
    -15.299  0.3292E-02  0.8786E-01
    -15.192  0.1398E-02  0.8801E-01
    -15.086  0.2466E-02  0.8828E-01
    -14.979  0.4894E-02  0.8880E-01
    -14.872  0.1803E-02  0.8899E-01
    -14.765  0.8193E-03  0.8908E-01
    -14.659  0.4191E-02  0.8953E-01
    -14.552  0.5078E-02  0.9007E-01
    -14.445  0.5332E-02  0.9064E-01
    -14.339  0.1074E-01  0.9178E-01
    -14.232  0.1992E-01  0.9391E-01
    -14.125  0.2008E-01  0.9605E-01
    -14.018  0.2099E-01  0.9829E-01
    -13.912  0.2467E-01  0.1009E+00
    -13.805  0.2401E-01  0.1035E+00
    -13.698  0.2712E-01  0.1064E+00
    -13.592  0.2794E-01  0.1094E+00
    -13.485  0.2356E-01  0.1119E+00
    -13.378  0.1444E-01  0.1134E+00
    -13.271  0.7883E-02  0.1143E+00
    -13.165  0.5342E-02  0.1148E+00
    -13.058  0.8107E-02  0.1157E+00
    -12.951  0.9151E-02  0.1167E+00
    -12.845  0.9767E-02  0.1177E+00
    -12.738  0.6227E-02  0.1184E+00
    -12.631  0.1125E-02  0.1185E+00
    -12.524  0.1327E-03  0.1185E+00
    -12.418  0.1388E-02  0.1187E+00
    -12.311  0.4737E-02  0.1192E+00
    -12.204  0.1256E-01  0.1205E+00
    -12.097  0.2655E-01  0.1233E+00
    -11.991  0.3094E-01  0.1266E+00
    -11.884  0.1931E-01  0.1287E+00
    -11.777  0.9582E-02  0.1297E+00
    -11.671  0.1012E-01  0.1308E+00
    -11.564  0.1668E-01  0.1326E+00
    -11.457  0.2111E-01  0.1348E+00
    -11.350  0.1898E-01  0.1369E+00
    -11.244  0.1443E-01  0.1384E+00
    -11.137  0.1127E-01  0.1396E+00
    -11.030  0.9730E-02  0.1406E+00
    -10.924  0.6804E-02  0.1414E+00
    -10.817  0.8961E-02  0.1423E+00
    -10.710  0.1340E-01  0.1438E+00
    -10.603  0.1261E-01  0.1451E+00
    -10.497  0.1414E-01  0.1466E+00
    -10.390  0.1280E-01  0.1480E+00
    -10.283  0.1732E-01  0.1498E+00
    -10.177  0.1412E-01  0.1513E+00
    -10.070  0.5498E-02  0.1519E+00
     -9.963  0.4228E-02  0.1524E+00
     -9.856  0.1396E-01  0.1539E+00
     -9.750  0.2704E-01  0.1567E+00
     -9.643  0.1999E-01  0.1589E+00
     -9.536  0.9030E-02  0.1598E+00
     -9.430  0.1297E-01  0.1612E+00
     -9.323  0.1951E-01  0.1633E+00
     -9.216  0.2426E-01  0.1659E+00
     -9.109  0.1635E-01  0.1676E+00
     -9.003  0.3252E-02  0.1680E+00
     -8.896  0.1374E-03  0.1680E+00
     -8.789  0.4729E-03  0.1681E+00
     -8.683  0.5609E-02  0.1686E+00
     -8.576  0.1204E-01  0.1699E+00
     -8.469  0.8095E-02  0.1708E+00
     -8.362  0.1233E-01  0.1721E+00
     -8.256  0.1497E-01  0.1737E+00
     -8.149  0.1604E-01  0.1754E+00
     -8.042  0.2277E-01  0.1779E+00
     -7.936  0.2441E-01  0.1805E+00
     -7.829  0.1269E-01  0.1818E+00
     -7.722  0.2986E-02  0.1821E+00
     -7.615  0.1364E-01  0.1836E+00
     -7.509  0.3175E-01  0.1870E+00
     -7.402  0.3818E-01  0.1910E+00
     -7.295  0.3671E-01  0.1950E+00
     -7.188  0.3068E-01  0.1982E+00
     -7.082  0.2525E-01  0.2009E+00
     -6.975  0.1886E-01  0.2029E+00
     -6.868  0.1537E-01  0.2046E+00
     -6.762  0.2221E-01  0.2070E+00
     -6.655  0.2574E-01  0.2097E+00
     -6.548  0.1916E-01  0.2118E+00
     -6.441  0.1449E-01  0.2133E+00
     -6.335  0.1445E-01  0.2148E+00
     -6.228  0.1377E-01  0.2163E+00
     -6.121  0.1666E-01  0.2181E+00
     -6.015  0.2748E-01  0.2210E+00
     -5.908  0.2732E-01  0.2239E+00
     -5.801  0.1573E-01  0.2256E+00
     -5.694  0.1710E-01  0.2274E+00
     -5.588  0.2581E-01  0.2302E+00
     -5.481  0.3183E-01  0.2336E+00
     -5.374  0.3396E-01  0.2372E+00
     -5.268  0.3673E-01  0.2411E+00
     -5.161  0.3481E-01  0.2448E+00
     -5.054  0.2390E-01  0.2474E+00
     -4.947  0.1670E-01  0.2492E+00
     -4.841  0.1856E-01  0.2512E+00
     -4.734  0.1856E-01  0.2531E+00
     -4.627  0.1576E-01  0.2548E+00
     -4.521  0.1794E-01  0.2567E+00
     -4.414  0.2120E-01  0.2590E+00
     -4.307  0.2346E-01  0.2615E+00
     -4.200  0.2214E-01  0.2639E+00
     -4.094  0.1394E-01  0.2654E+00
     -3.987  0.5539E-02  0.2659E+00
     -3.880  0.4956E-03  0.2660E+00
     -3.774  0.6554E-05  0.2660E+00
     -3.667  0.1089E-07  0.2660E+00
     -3.560  0.2083E-11  0.2660E+00
     -3.453  0.4421E-16  0.2660E+00
     -3.347  0.0000E+00  0.2660E+00
     -3.240  0.0000E+00  0.2660E+00
     -3.133  0.0000E+00  0.2660E+00
     -3.026  0.0000E+00  0.2660E+00
     -2.920  0.0000E+00  0.2660E+00
     -2.813  0.4244E-14  0.2660E+00
     -2.706  0.7845E-10  0.2660E+00
     -2.600  0.1614E-06  0.2660E+00
     -2.493  0.3869E-04  0.2660E+00
     -2.386  0.1190E-02  0.2661E+00
     -2.279  0.5828E-02  0.2668E+00
     -2.173  0.8538E-02  0.2677E+00
     -2.066  0.1128E-01  0.2689E+00
     -1.959  0.1151E-01  0.2701E+00
     -1.853  0.1038E-01  0.2712E+00
     -1.746  0.9041E-02  0.2722E+00
     -1.639  0.3798E-02  0.2726E+00
     -1.532  0.8219E-02  0.2735E+00
     -1.426  0.1618E-01  0.2752E+00
     -1.319  0.1887E-01  0.2772E+00
     -1.212  0.2126E-01  0.2795E+00
     -1.106  0.1477E-01  0.2810E+00
     -0.999  0.7370E-02  0.2818E+00
     -0.892  0.3777E-02  0.2822E+00
     -0.785  0.7189E-02  0.2830E+00
     -0.679  0.1518E-01  0.2846E+00
     -0.572  0.2292E-01  0.2871E+00
     -0.465  0.1894E-01  0.2891E+00
     -0.359  0.7622E-02  0.2899E+00
     -0.252  0.9793E-03  0.2900E+00
     -0.145  0.2713E-04  0.2900E+00
     -0.038  0.1113E-03  0.2900E+00
      0.068  0.2494E-02  0.2903E+00
      0.175  0.9250E-02  0.2913E+00
      0.282  0.6168E-02  0.2919E+00
      0.388  0.7049E-03  0.2920E+00
      0.495  0.1198E-04  0.2920E+00
      0.602  0.1728E-04  0.2920E+00
      0.709  0.7546E-03  0.2921E+00
      0.815  0.4841E-02  0.2926E+00
      0.922  0.7720E-02  0.2934E+00
      1.029  0.8067E-02  0.2943E+00
      1.135  0.1401E-01  0.2958E+00
      1.242  0.1881E-01  0.2978E+00
      1.349  0.2017E-01  0.2999E+00
      1.456  0.2142E-01  0.3022E+00
      1.562  0.2073E-01  0.3044E+00
      1.669  0.1999E-01  0.3066E+00
      1.776  0.2197E-01  0.3089E+00
      1.883  0.2126E-01  0.3112E+00
      1.989  0.1712E-01  0.3130E+00
      2.096  0.2272E-01  0.3154E+00
      2.203  0.2512E-01  0.3181E+00
      2.309  0.1607E-01  0.3198E+00
      2.416  0.1514E-01  0.3214E+00
      2.523  0.1602E-01  0.3232E+00
      2.630  0.2120E-01  0.3254E+00
      2.736  0.1502E-01  0.3270E+00
      2.843  0.7587E-02  0.3278E+00
      2.950  0.1530E-02  0.3280E+00
      3.056  0.5459E-04  0.3280E+00
      3.163  0.2556E-06  0.3280E+00
      3.270  0.1397E-09  0.3280E+00
      3.377  0.8445E-14  0.3280E+00
      3.483  0.0000E+00  0.3280E+00
      3.590  0.0000E+00  0.3280E+00
      3.697  0.0000E+00  0.3280E+00
      3.803  0.0000E+00  0.3280E+00
      3.910  0.0000E+00  0.3280E+00
      4.017  0.0000E+00  0.3280E+00
      4.124  0.0000E+00  0.3280E+00
      4.230  0.0000E+00  0.3280E+00
