 running on   48 total cores
 distrk:  each k-point on   48 cores,    1 groups
 distr:  one band on   12 cores,    4 groups
 vasp.6.3.2 27Jun22 (build May 04 2024 18:40:40) complex                        
  
 POSCAR found type information on POSCAR C N Ag
 POSCAR found :  3 types and      57 ions
 Reading from existing POTCAR
 scaLAPACK will be used
 Reading from existing POTCAR
 LDA part: xc-table for Pade appr. of Perdew
 POSCAR found type information on POSCAR C N Ag
 POSCAR found :  3 types and      57 ions
 POSCAR, INCAR and KPOINTS ok, starting setup
 FFT: planning ... GRIDC
 FFT: planning ... GRID_SOFT
 FFT: planning ... GRID
 WAVECAR not read
 entering main loop
       N       E                     dE             d eps       ncg     rms          rms(c)
DAV:   1     0.245296110034E+04    0.24530E+04   -0.93464E+04  1528   0.101E+03
DAV:   2     0.169131604938E+02   -0.24360E+04   -0.23206E+04  1904   0.281E+02
DAV:   3    -0.491419564319E+03   -0.50833E+03   -0.50405E+03  1600   0.138E+02
DAV:   4    -0.509107835176E+03   -0.17688E+02   -0.17253E+02  1520   0.306E+01
DAV:   5    -0.509740880129E+03   -0.63304E+00   -0.62743E+00  1776   0.486E+00    0.414E+01
DAV:   6    -0.477737108636E+03    0.32004E+02   -0.94818E+01  1520   0.239E+01    0.217E+01
DAV:   7    -0.474138022564E+03    0.35991E+01   -0.11989E+01  1544   0.844E+00    0.126E+01
DAV:   8    -0.472926285022E+03    0.12117E+01   -0.41696E+00  1488   0.489E+00    0.299E+00
DAV:   9    -0.472797262556E+03    0.12902E+00   -0.37202E-01  1664   0.185E+00    0.118E+00
DAV:  10    -0.472772245739E+03    0.25017E-01   -0.10379E-01  1624   0.898E-01    0.627E-01
DAV:  11    -0.472758971447E+03    0.13274E-01   -0.25370E-02  1576   0.468E-01    0.297E-01
DAV:  12    -0.472753348264E+03    0.56232E-02   -0.13488E-02  1480   0.300E-01    0.193E-01
DAV:  13    -0.472752301811E+03    0.10465E-02   -0.94941E-03  1512   0.248E-01    0.108E-01
DAV:  14    -0.472754179623E+03   -0.18778E-02   -0.70732E-03  1404   0.164E-01    0.881E-02
DAV:  15    -0.472756784136E+03   -0.26045E-02   -0.72904E-04  1584   0.684E-02    0.596E-02
DAV:  16    -0.472760932045E+03   -0.41479E-02   -0.23095E-03  1460   0.108E-01    0.482E-02
DAV:  17    -0.472762757263E+03   -0.18252E-02   -0.43417E-04  1576   0.432E-02    0.460E-02
DAV:  18    -0.472764847547E+03   -0.20903E-02   -0.15926E-04  1408   0.314E-02    0.270E-02
DAV:  19    -0.472768350758E+03   -0.35032E-02   -0.39110E-04  1472   0.400E-02    0.192E-02
DAV:  20    -0.472769802501E+03   -0.14517E-02   -0.10857E-04  1368   0.201E-02    0.135E-02
DAV:  21    -0.472771257790E+03   -0.14553E-02   -0.11234E-04  1220   0.179E-02    0.604E-03
DAV:  22    -0.472771489714E+03   -0.23192E-03   -0.83107E-06  1024   0.624E-03    0.582E-03
DAV:  23    -0.472771660235E+03   -0.17052E-03   -0.11106E-05   936   0.710E-03    0.209E-03
DAV:  24    -0.472771677965E+03   -0.17731E-04   -0.41828E-06   944   0.438E-03    0.159E-03
DAV:  25    -0.472771689184E+03   -0.11219E-04   -0.30469E-06   872   0.340E-03    0.107E-03
DAV:  26    -0.472771698812E+03   -0.96281E-05   -0.11235E-06   848   0.190E-03
   1 F= -.47277170E+03 E0= -.47273531E+03  d E =-.472772E+03
 curvature:   0.00 expect dE= 0.000E+00 dE for cont linesearch  0.000E+00
 trial: gam= 0.00000 g(F)=  0.328E-01 g(S)=  0.857E-02 ort = 0.000E+00 (trialstep = 0.100E+01)
 search vector abs. value=  0.413E-01
 bond charge predicted
       N       E                     dE             d eps       ncg     rms          rms(c)
DAV:   1    -0.472803789270E+03   -0.32100E-01   -0.14599E+00  1320   0.322E+00    0.482E-01
DAV:   2    -0.472804257882E+03   -0.46861E-03   -0.34789E-02  1544   0.487E-01    0.302E-01
DAV:   3    -0.472803575692E+03    0.68219E-03   -0.19192E-03  1432   0.147E-01    0.156E-01
DAV:   4    -0.472803392511E+03    0.18318E-03   -0.91743E-04  1496   0.863E-02    0.564E-02
DAV:   5    -0.472803381571E+03    0.10940E-04   -0.12235E-04  1456   0.356E-02    0.218E-02
DAV:   6    -0.472803380002E+03    0.15694E-05   -0.21800E-05   912   0.135E-02
   2 F= -.47280338E+03 E0= -.47276688E+03  d E =-.316812E-01
 trial-energy change:   -0.031681  1 .order   -0.031668   -0.041342   -0.021994
 step:   2.1367(harm=  2.1367)  dis= 0.01399  next Energy=  -472.815867 (dE=-0.442E-01)
 bond charge predicted
       N       E                     dE             d eps       ncg     rms          rms(c)
DAV:   1    -0.472816419088E+03   -0.13038E-01   -0.18916E+00  1320   0.366E+00    0.542E-01
DAV:   2    -0.472817029165E+03   -0.61008E-03   -0.45145E-02  1568   0.554E-01    0.337E-01
DAV:   3    -0.472816131902E+03    0.89726E-03   -0.24983E-03  1440   0.167E-01    0.176E-01
DAV:   4    -0.472815883455E+03    0.24845E-03   -0.11714E-03  1500   0.982E-02    0.645E-02
DAV:   5    -0.472815872512E+03    0.10943E-04   -0.16434E-04  1432   0.409E-02    0.251E-02
DAV:   6    -0.472815874659E+03   -0.21467E-05   -0.32284E-05   956   0.162E-02
   3 F= -.47281587E+03 E0= -.47277925E+03  d E =-.441758E-01
 curvature:  -1.07 expect dE=-0.213E-01 dE for cont linesearch -0.177E-06
 trial: gam= 0.48350 g(F)=  0.198E-01 g(S)=  0.134E-03 ort =-0.828E-04 (trialstep = 0.123E+01)
 search vector abs. value=  0.295E-01
 bond charge predicted
       N       E                     dE             d eps       ncg     rms          rms(c)
DAV:   1    -0.472832695801E+03   -0.16823E-01   -0.14282E+00  1312   0.327E+00    0.414E-01
DAV:   2    -0.472834018238E+03   -0.13224E-02   -0.33156E-02  1508   0.488E-01    0.215E-01
DAV:   3    -0.472833803176E+03    0.21506E-03   -0.21088E-03  1536   0.146E-01    0.138E-01
DAV:   4    -0.472833746752E+03    0.56424E-04   -0.46457E-04  1492   0.635E-02    0.779E-02
DAV:   5    -0.472833734893E+03    0.11858E-04   -0.81002E-05  1472   0.289E-02    0.163E-02
DAV:   6    -0.472833735342E+03   -0.44847E-06   -0.19241E-05   880   0.142E-02
   4 F= -.47283374E+03 E0= -.47279723E+03  d E =-.178607E-01
 trial-energy change:   -0.017861  1 .order   -0.017799   -0.024382   -0.011215
 step:   2.2219(harm=  2.2728)  dis= 0.01002  next Energy=  -472.838312 (dE=-0.224E-01)
 bond charge predicted
       N       E                     dE             d eps       ncg     rms          rms(c)
DAV:   1    -0.472837853280E+03   -0.41184E-02   -0.93855E-01  1312   0.265E+00    0.339E-01
DAV:   2    -0.472838681599E+03   -0.82832E-03   -0.21916E-02  1528   0.397E-01    0.173E-01
DAV:   3    -0.472838537300E+03    0.14430E-03   -0.14123E-03  1512   0.119E-01    0.111E-01
DAV:   4    -0.472838494129E+03    0.43171E-04   -0.30307E-04  1496   0.512E-02    0.632E-02
DAV:   5    -0.472838481639E+03    0.12490E-04   -0.55092E-05  1296   0.236E-02    0.135E-02
DAV:   6    -0.472838483131E+03   -0.14919E-05   -0.14537E-05   844   0.122E-02
   5 F= -.47283848E+03 E0= -.47280205E+03  d E =-.226085E-01
 curvature:  -1.68 expect dE=-0.151E-01 dE for cont linesearch -0.125E-04
 trial: gam= 0.43647 g(F)=  0.856E-02 g(S)=  0.406E-03 ort = 0.469E-03 (trialstep = 0.143E+01)
 search vector abs. value=  0.150E-01
 bond charge predicted
       N       E                     dE             d eps       ncg     rms          rms(c)
DAV:   1    -0.472846852853E+03   -0.83712E-02   -0.94160E-01  1312   0.276E+00    0.297E-01
DAV:   2    -0.472848659460E+03   -0.18066E-02   -0.23136E-02  1544   0.396E-01    0.157E-01
DAV:   3    -0.472848430199E+03    0.22926E-03   -0.10011E-03  1528   0.119E-01    0.103E-01
DAV:   4    -0.472848412095E+03    0.18103E-04   -0.44719E-04  1500   0.595E-02    0.517E-02
DAV:   5    -0.472848416086E+03   -0.39905E-05   -0.53789E-05  1332   0.226E-02
   6 F= -.47284842E+03 E0= -.47281198E+03  d E =-.993295E-02
 trial-energy change:   -0.009933  1 .order   -0.009911   -0.013082   -0.006740
 step:   2.9419(harm=  2.9419)  dis= 0.00877  next Energy=  -472.851975 (dE=-0.135E-01)
 bond charge predicted
       N       E                     dE             d eps       ncg     rms          rms(c)
DAV:   1    -0.472850214598E+03   -0.18025E-02   -0.10623E+00  1312   0.293E+00    0.318E-01
DAV:   2    -0.472852266756E+03   -0.20522E-02   -0.26117E-02  1600   0.421E-01    0.166E-01
DAV:   3    -0.472852005600E+03    0.26116E-03   -0.11186E-03  1512   0.126E-01    0.108E-01
DAV:   4    -0.472851985582E+03    0.20018E-04   -0.50592E-04  1540   0.633E-02    0.546E-02
DAV:   5    -0.472851990113E+03   -0.45311E-05   -0.52993E-05  1312   0.229E-02
   7 F= -.47285199E+03 E0= -.47281557E+03  d E =-.135070E-01
 curvature:  -2.40 expect dE=-0.917E-02 dE for cont linesearch -0.279E-06
 trial: gam= 0.46979 g(F)=  0.375E-02 g(S)=  0.576E-04 ort =-0.417E-04 (trialstep = 0.173E+01)
 search vector abs. value=  0.708E-02
 bond charge predicted
       N       E                     dE             d eps       ncg     rms          rms(c)
DAV:   1    -0.472855539819E+03   -0.35542E-02   -0.71795E-01  1312   0.239E+00    0.221E-01
DAV:   2    -0.472856761146E+03   -0.12213E-02   -0.16072E-02  1588   0.328E-01    0.129E-01
DAV:   3    -0.472856622599E+03    0.13855E-03   -0.64099E-04  1512   0.949E-02    0.838E-02
DAV:   4    -0.472856611833E+03    0.10766E-04   -0.28181E-04  1520   0.491E-02    0.429E-02
DAV:   5    -0.472856615109E+03   -0.32759E-05   -0.50697E-05  1112   0.224E-02
   8 F= -.47285662E+03 E0= -.47282033E+03  d E =-.462500E-02
 trial-energy change:   -0.004625  1 .order   -0.004620   -0.006558   -0.002682
 step:   2.9260(harm=  2.9260)  dis= 0.00591  next Energy=  -472.857538 (dE=-0.555E-02)
 bond charge predicted
       N       E                     dE             d eps       ncg     rms          rms(c)
DAV:   1    -0.472857011739E+03   -0.39991E-03   -0.34312E-01  1312   0.165E+00    0.154E-01
DAV:   2    -0.472857595631E+03   -0.58389E-03   -0.76511E-03  1624   0.226E-01    0.887E-02
DAV:   3    -0.472857529016E+03    0.66615E-04   -0.29907E-04  1520   0.658E-02    0.573E-02
DAV:   4    -0.472857524477E+03    0.45393E-05   -0.13177E-04  1528   0.337E-02    0.288E-02
DAV:   5    -0.472857526712E+03   -0.22353E-05   -0.18031E-05   808   0.144E-02
   9 F= -.47285753E+03 E0= -.47282132E+03  d E =-.553660E-02
 curvature:  -2.73 expect dE=-0.113E-01 dE for cont linesearch -0.109E-07
 trial: gam= 1.06840 g(F)=  0.389E-02 g(S)=  0.237E-03 ort =-0.531E-05 (trialstep = 0.114E+01)
 search vector abs. value=  0.122E-01
 bond charge predicted
       N       E                     dE             d eps       ncg     rms          rms(c)
DAV:   1    -0.472860589977E+03   -0.30655E-02   -0.46209E-01  1312   0.192E+00    0.196E-01
DAV:   2    -0.472861278237E+03   -0.68826E-03   -0.10200E-02  1560   0.263E-01    0.104E-01
DAV:   3    -0.472861212077E+03    0.66160E-04   -0.46702E-04  1492   0.750E-02    0.676E-02
DAV:   4    -0.472861206392E+03    0.56845E-05   -0.13424E-04  1492   0.333E-02    0.365E-02
DAV:   5    -0.472861207905E+03   -0.15125E-05   -0.13657E-05   808   0.137E-02
  10 F= -.47286121E+03 E0= -.47282505E+03  d E =-.368119E-02
 trial-energy change:   -0.003681  1 .order   -0.003692   -0.004708   -0.002677
 step:   2.6498(harm=  2.6498)  dis= 0.00571  next Energy=  -472.862983 (dE=-0.546E-02)
 bond charge predicted
       N       E                     dE             d eps       ncg     rms          rms(c)
DAV:   1    -0.472861868203E+03   -0.66181E-03   -0.80249E-01  1312   0.253E+00    0.258E-01
DAV:   2    -0.472863056696E+03   -0.11885E-02   -0.17677E-02  1540   0.347E-01    0.137E-01
DAV:   3    -0.472862945450E+03    0.11125E-03   -0.81067E-04  1500   0.987E-02    0.892E-02
DAV:   4    -0.472862932969E+03    0.12482E-04   -0.23068E-04  1528   0.436E-02    0.483E-02
DAV:   5    -0.472862934132E+03   -0.11635E-05   -0.24569E-05   980   0.179E-02
  11 F= -.47286293E+03 E0= -.47282684E+03  d E =-.540742E-02
 curvature:  -3.92 expect dE=-0.550E-02 dE for cont linesearch -0.276E-07
 trial: gam= 0.34631 g(F)=  0.124E-02 g(S)=  0.164E-03 ort =-0.926E-05 (trialstep = 0.144E+01)
 search vector abs. value=  0.286E-02
 bond charge predicted
       N       E                     dE             d eps       ncg     rms          rms(c)
DAV:   1    -0.472864154660E+03   -0.12217E-02   -0.17247E-01  1312   0.118E+00    0.126E-01
DAV:   2    -0.472864350130E+03   -0.19547E-03   -0.36555E-03  1520   0.167E-01    0.664E-02
DAV:   3    -0.472864310484E+03    0.39647E-04   -0.17095E-04  1516   0.442E-02    0.385E-02
DAV:   4    -0.472864304970E+03    0.55137E-05   -0.73873E-05  1380   0.260E-02
  12 F= -.47286430E+03 E0= -.47282817E+03  d E =-.137084E-02
 trial-energy change:   -0.001371  1 .order   -0.001359   -0.002020   -0.000698
 step:   2.2075(harm=  2.2075)  dis= 0.00220  next Energy=  -472.864478 (dE=-0.154E-02)
 bond charge predicted
       N       E                     dE             d eps       ncg     rms          rms(c)
DAV:   1    -0.472864465440E+03   -0.15496E-03   -0.48274E-02  1320   0.624E-01    0.708E-02
DAV:   2    -0.472864519128E+03   -0.53688E-04   -0.10523E-03  1576   0.901E-02    0.374E-02
DAV:   3    -0.472864507355E+03    0.11773E-04   -0.53300E-05  1372   0.246E-02    0.219E-02
DAV:   4    -0.472864506383E+03    0.97205E-06   -0.22578E-05   876   0.153E-02
  13 F= -.47286451E+03 E0= -.47282835E+03  d E =-.157225E-02
 curvature:  -2.26 expect dE=-0.118E-02 dE for cont linesearch -0.444E-06
 trial: gam= 0.34903 g(F)=  0.489E-03 g(S)=  0.358E-04 ort = 0.237E-04 (trialstep = 0.160E+01)
 search vector abs. value=  0.890E-03
 bond charge predicted
       N       E                     dE             d eps       ncg     rms          rms(c)
DAV:   1    -0.472865055172E+03   -0.54782E-03   -0.76021E-02  1328   0.762E-01    0.643E-02
DAV:   2    -0.472865163922E+03   -0.10875E-03   -0.14639E-03  1560   0.102E-01    0.384E-02
DAV:   3    -0.472865153970E+03    0.99514E-05   -0.66376E-05  1428   0.260E-02
  14 F= -.47286515E+03 E0= -.47282900E+03  d E =-.647587E-03
 trial-energy change:   -0.000648  1 .order   -0.000650   -0.000852   -0.000447
 step:   3.3652(harm=  3.3652)  dis= 0.00288  next Energy=  -472.865404 (dE=-0.897E-03)
 bond charge predicted
       N       E                     dE             d eps       ncg     rms          rms(c)
DAV:   1    -0.472865273127E+03   -0.10921E-03   -0.92674E-02  1312   0.841E-01    0.749E-02
DAV:   2    -0.472865390728E+03   -0.11760E-03   -0.17109E-03  1572   0.110E-01    0.465E-02
DAV:   3    -0.472865377168E+03    0.13560E-04   -0.80642E-05  1484   0.282E-02    0.290E-02
DAV:   4    -0.472865375089E+03    0.20789E-05   -0.28698E-05   896   0.162E-02
  15 F= -.47286538E+03 E0= -.47282922E+03  d E =-.868706E-03
 curvature:  -2.81 expect dE=-0.139E-02 dE for cont linesearch -0.801E-06
 trial: gam= 0.99894 g(F)=  0.494E-03 g(S)=  0.222E-05 ort =-0.159E-04 (trialstep = 0.128E+01)
 search vector abs. value=  0.135E-02
 bond charge predicted
       N       E                     dE             d eps       ncg     rms          rms(c)
DAV:   1    -0.472865805052E+03   -0.42788E-03   -0.75036E-02  1324   0.730E-01    0.548E-02
DAV:   2    -0.472865889732E+03   -0.84679E-04   -0.11568E-03  1540   0.905E-02    0.340E-02
DAV:   3    -0.472865885670E+03    0.40616E-05   -0.58339E-05  1348   0.223E-02
  16 F= -.47286589E+03 E0= -.47282972E+03  d E =-.510581E-03
 trial-energy change:   -0.000511  1 .order   -0.000515   -0.000616   -0.000415
 step:   3.9250(harm=  3.9250)  dis= 0.00531  next Energy=  -472.866317 (dE=-0.942E-03)
 bond charge predicted
       N       E                     dE             d eps       ncg     rms          rms(c)
DAV:   1    -0.472865958530E+03   -0.68799E-04   -0.31753E-01  1312   0.150E+00    0.115E-01
DAV:   2    -0.472866298332E+03   -0.33980E-03   -0.48266E-03  1500   0.185E-01    0.728E-02
DAV:   3    -0.472866279607E+03    0.18725E-04   -0.25786E-04  1520   0.460E-02    0.467E-02
DAV:   4    -0.472866274417E+03    0.51895E-05   -0.69796E-05  1368   0.235E-02
  17 F= -.47286627E+03 E0= -.47283011E+03  d E =-.899328E-03
 curvature:  -5.53 expect dE=-0.308E-02 dE for cont linesearch -0.135E-05
 trial: gam= 1.07199 g(F)=  0.549E-03 g(S)=  0.809E-05 ort =-0.182E-04 (trialstep = 0.118E+01)
 search vector abs. value=  0.207E-02
 bond charge predicted
       N       E                     dE             d eps       ncg     rms          rms(c)
DAV:   1    -0.472866651478E+03   -0.37187E-03   -0.10767E-01  1328   0.843E-01    0.654E-02
DAV:   2    -0.472866766051E+03   -0.11457E-03   -0.16811E-03  1516   0.111E-01    0.401E-02
DAV:   3    -0.472866759955E+03    0.60966E-05   -0.10254E-04  1476   0.290E-02    0.254E-02
DAV:   4    -0.472866758824E+03    0.11311E-05   -0.22246E-05   816   0.139E-02
  18 F= -.47286676E+03 E0= -.47283062E+03  d E =-.484406E-03
 trial-energy change:   -0.000484  1 .order   -0.000484   -0.000635   -0.000333
 step:   2.4814(harm=  2.4814)  dis= 0.00493  next Energy=  -472.866941 (dE=-0.667E-03)
 bond charge predicted
       N       E                     dE             d eps       ncg     rms          rms(c)
DAV:   1    -0.472866806914E+03   -0.46959E-04   -0.12970E-01  1316   0.925E-01    0.714E-02
DAV:   2    -0.472866937219E+03   -0.13030E-03   -0.20446E-03  1540   0.122E-01    0.444E-02
DAV:   3    -0.472866929960E+03    0.72593E-05   -0.14453E-04  1468   0.338E-02    0.281E-02
DAV:   4    -0.472866927158E+03    0.28021E-05   -0.26425E-05   864   0.152E-02
  19 F= -.47286693E+03 E0= -.47283082E+03  d E =-.652740E-03
 curvature:  -4.78 expect dE=-0.212E-02 dE for cont linesearch -0.258E-06
 trial: gam= 0.78165 g(F)=  0.430E-03 g(S)=  0.134E-04 ort =-0.106E-04 (trialstep = 0.144E+01)
 search vector abs. value=  0.169E-02
 bond charge predicted
       N       E                     dE             d eps       ncg     rms          rms(c)
DAV:   1    -0.472867346603E+03   -0.41664E-03   -0.14625E-01  1320   0.930E-01    0.653E-02
DAV:   2    -0.472867476866E+03   -0.13026E-03   -0.18942E-03  1500   0.114E-01    0.416E-02
DAV:   3    -0.472867470002E+03    0.68644E-05   -0.82645E-05  1432   0.275E-02
  20 F= -.47286747E+03 E0= -.47283139E+03  d E =-.542844E-03
 ZBRENT: can't locate minimum, use default step
 trial-energy change:   -0.000543  1 .order   -0.000552   -0.000627   -0.000476
 step:   5.7697(harm=  6.0082)  dis= 0.01237  next Energy=  -472.868233 (dE=-0.131E-02)
 bond charge predicted
       N       E                     dE             d eps       ncg     rms          rms(c)
DAV:   1    -0.472867049372E+03    0.42749E-03   -0.13174E+00  1312   0.279E+00    0.197E-01
DAV:   2    -0.472868202676E+03   -0.11533E-02   -0.17007E-02  1472   0.342E-01    0.128E-01
DAV:   3    -0.472868139085E+03    0.63590E-04   -0.74557E-04  1536   0.825E-02    0.767E-02
DAV:   4    -0.472868137588E+03    0.14976E-05   -0.20949E-04  1472   0.439E-02    0.347E-02
DAV:   5    -0.472868140843E+03   -0.32552E-05   -0.56972E-05  1212   0.223E-02
  21 F= -.47286814E+03 E0= -.47283211E+03  d E =-.121369E-02
 curvature: -11.66 expect dE=-0.108E-01 dE for cont linesearch -0.223E-06
 trial: gam= 2.04976 g(F)=  0.763E-03 g(S)=  0.167E-03 ort =-0.569E-05 (trialstep = 0.487E+00)
 search vector abs. value=  0.802E-02
 bond charge predicted
       N       E                     dE             d eps       ncg     rms          rms(c)
DAV:   1    -0.472868487022E+03   -0.34943E-03   -0.84651E-02  1328   0.683E-01    0.430E-02
DAV:   2    -0.472868566453E+03   -0.79431E-04   -0.10116E-03  1520   0.820E-02    0.269E-02
DAV:   3    -0.472868566007E+03    0.44570E-06   -0.36157E-05  1128   0.180E-02
  22 F= -.47286857E+03 E0= -.47283255E+03  d E =-.425164E-03
 ZBRENT: can't locate minimum, use default step
 trial-energy change:   -0.000425  1 .order   -0.000425   -0.000448   -0.000402
 step:   1.9485(harm=  4.8186)  dis= 0.00994  next Energy=  -472.870354 (dE=-0.221E-02)
 bond charge predicted
       N       E                     dE             d eps       ncg     rms          rms(c)
DAV:   1    -0.472868887229E+03   -0.32078E-03   -0.76074E-01  1312   0.205E+00    0.130E-01
DAV:   2    -0.472869547127E+03   -0.65990E-03   -0.89485E-03  1504   0.245E-01    0.829E-02
DAV:   3    -0.472869525504E+03    0.21623E-04   -0.35138E-04  1528   0.543E-02    0.497E-02
DAV:   4    -0.472869535127E+03   -0.96237E-05   -0.77903E-05  1452   0.259E-02
  23 F= -.47286954E+03 E0= -.47283354E+03  d E =-.139428E-02
 curvature: -11.79 expect dE=-0.745E-02 dE for cont linesearch -0.327E-03
 ZBRENT: increasing intervall
 opt :   4.8714  next Energy=  -472.869878 (dE=-0.174E-02)
 bond charge predicted
       N       E                     dE             d eps       ncg     rms          rms(c)
DAV:   1    -0.472867527781E+03    0.19977E-02   -0.30476E+00  1312   0.410E+00    0.257E-01
DAV:   2    -0.472870234629E+03   -0.27068E-02   -0.36068E-02  1476   0.492E-01    0.163E-01
DAV:   3    -0.472870150174E+03    0.84456E-04   -0.14320E-03  1520   0.110E-01    0.990E-02
DAV:   4    -0.472870169640E+03   -0.19467E-04   -0.33859E-04  1532   0.528E-02    0.436E-02
DAV:   5    -0.472870188278E+03   -0.18637E-04   -0.11213E-04  1464   0.281E-02    0.165E-02
DAV:   6    -0.472870192405E+03   -0.41272E-05   -0.24568E-05   848   0.143E-02
  24 F= -.47287019E+03 E0= -.47283428E+03  d E =-.205156E-02
 curvature: -12.36 expect dE=-0.251E-01 dE for cont linesearch -0.711E-05
 trial: gam= 2.21659 g(F)=  0.203E-02 g(S)=  0.515E-05 ort =-0.679E-04 (trialstep = 0.266E+00)
 search vector abs. value=  0.411E-01
 bond charge predicted
       N       E                     dE             d eps       ncg     rms          rms(c)
DAV:   1    -0.472870573276E+03   -0.38500E-03   -0.13388E-01  1320   0.836E-01    0.495E-02
DAV:   2    -0.472870691796E+03   -0.11852E-03   -0.14935E-03  1520   0.985E-02    0.317E-02
DAV:   3    -0.472870690987E+03    0.80862E-06   -0.47004E-05  1304   0.196E-02
  25 F= -.47287069E+03 E0= -.47283481E+03  d E =-.498582E-03
 ZBRENT: can't locate minimum, use default step
 trial-energy change:   -0.000499  1 .order   -0.000496   -0.000500   -0.000491
 step:   1.0637(harm= 14.7396)  dis= 0.01293  next Energy=  -472.884051 (dE=-0.139E-01)
 bond charge predicted
       N       E                     dE             d eps       ncg     rms          rms(c)
DAV:   1    -0.472871047807E+03   -0.35601E-03   -0.12013E+00  1312   0.250E+00    0.151E-01
DAV:   2    -0.472872032322E+03   -0.98451E-03   -0.13217E-02  1508   0.293E-01    0.974E-02
DAV:   3    -0.472872009053E+03    0.23269E-04   -0.43878E-04  1584   0.591E-02    0.565E-02
DAV:   4    -0.472872028605E+03   -0.19552E-04   -0.10672E-04  1536   0.300E-02    0.196E-02
DAV:   5    -0.472872036322E+03   -0.77176E-05   -0.14679E-05   884   0.127E-02
  26 F= -.47287204E+03 E0= -.47283622E+03  d E =-.184392E-02
 curvature: -17.27 expect dE=-0.276E-01 dE for cont linesearch -0.947E-03
 ZBRENT: increasing intervall
 opt :   2.6593  next Energy=  -472.873882 (dE=-0.369E-02)
 bond charge predicted
       N       E                     dE             d eps       ncg     rms          rms(c)
DAV:   1    -0.472869925490E+03    0.21031E-02   -0.48146E+00  1312   0.501E+00    0.297E-01
DAV:   2    -0.472874042578E+03   -0.41171E-02   -0.53547E-02  1512   0.589E-01    0.191E-01
DAV:   3    -0.472873892318E+03    0.15026E-03   -0.17135E-03  1584   0.117E-01    0.113E-01
DAV:   4    -0.472873954087E+03   -0.61768E-04   -0.42049E-04  1528   0.594E-02    0.394E-02
DAV:   5    -0.472873979296E+03   -0.25209E-04   -0.67631E-05  1392   0.249E-02    0.142E-02
DAV:   6    -0.472873984937E+03   -0.56407E-05   -0.11001E-05   820   0.103E-02
  27 F= -.47287398E+03 E0= -.47283831E+03  d E =-.379253E-02
 curvature: -33.65 expect dE=-0.688E-01 dE for cont linesearch -0.595E-03
 ZBRENT: increasing intervall
 opt :   5.8505  next Energy=  -472.874633 (dE=-0.444E-02)
 bond charge predicted
       N       E                     dE             d eps       ncg     rms          rms(c)
DAV:   1    -0.472858339529E+03    0.15640E-01   -0.19295E+01  1312   0.100E+01    0.599E-01
DAV:   2    -0.472875255146E+03   -0.16916E-01   -0.21625E-01  1504   0.118E+00    0.387E-01
DAV:   3    -0.472874493914E+03    0.76123E-03   -0.69754E-03  1608   0.239E-01    0.229E-01
DAV:   4    -0.472874569278E+03   -0.75364E-04   -0.16909E-03  1536   0.119E-01    0.849E-02
DAV:   5    -0.472874664739E+03   -0.95461E-04   -0.29899E-04  1648   0.544E-02    0.296E-02
DAV:   6    -0.472874681918E+03   -0.17179E-04   -0.56715E-05  1256   0.227E-02    0.177E-02
DAV:   7    -0.472874696568E+03   -0.14651E-04   -0.90477E-06   852   0.100E-02    0.946E-03
DAV:   8    -0.472874717856E+03   -0.21288E-04   -0.55196E-06   896   0.660E-03    0.318E-03
DAV:   9    -0.472874727994E+03   -0.10138E-04   -0.13665E-06   864   0.313E-03    0.194E-03
DAV:  10    -0.472874740777E+03   -0.12783E-04   -0.78717E-07   848   0.185E-03    0.951E-04
DAV:  11    -0.472874754903E+03   -0.14126E-04   -0.91270E-07   880   0.157E-03    0.819E-04
DAV:  12    -0.472874761983E+03   -0.70798E-05   -0.40528E-07   848   0.109E-03
  28 F= -.47287476E+03 E0= -.47283938E+03  d E =-.456958E-02
 curvature: -36.66 expect dE=-0.254E+00 dE for cont linesearch -0.170E-03
 ZBRENT: bracketing found
 ZBRENT: interpolating
 opt :   4.7695  next Energy=  -472.874998 (dE=-0.481E-02)
 bond charge predicted
       N       E                     dE             d eps       ncg     rms          rms(c)
DAV:   1    -0.472873142434E+03    0.16125E-02   -0.22095E+00  1312   0.339E+00    0.203E-01
DAV:   2    -0.472875031521E+03   -0.18891E-02   -0.24518E-02  1516   0.400E-01    0.130E-01
DAV:   3    -0.472874965505E+03    0.66015E-04   -0.81062E-04  1600   0.809E-02    0.769E-02
DAV:   4    -0.472874978969E+03   -0.13464E-04   -0.20493E-04  1508   0.434E-02    0.270E-02
DAV:   5    -0.472874986507E+03   -0.75382E-05   -0.34691E-05  1144   0.193E-02
  29 F= -.47287499E+03 E0= -.47283949E+03  d E =-.479410E-02
 curvature: -50.90 expect dE=-0.240E+00 dE for cont linesearch -0.544E-05
 trial: gam= 2.11956 g(F)=  0.451E-02 g(S)=  0.203E-03 ort = 0.663E-04 (trialstep = 0.253E+00)
 search vector abs. value=  0.190E+00
 bond charge predicted
       N       E                     dE             d eps       ncg     rms          rms(c)
DAV:   1    -0.472875718592E+03   -0.73962E-03   -0.57471E-01  1312   0.170E+00    0.968E-02
DAV:   2    -0.472876182566E+03   -0.46397E-03   -0.60743E-03  1504   0.198E-01    0.646E-02
DAV:   3    -0.472876164697E+03    0.17869E-04   -0.19672E-04  1592   0.389E-02    0.368E-02
DAV:   4    -0.472876170654E+03   -0.59570E-05   -0.47384E-05  1320   0.203E-02
  30 F= -.47287617E+03 E0= -.47284071E+03  d E =-.118415E-02
 ZBRENT: can't locate minimum, use default step
 trial-energy change:   -0.001184  1 .order   -0.001156   -0.001226   -0.001085
 step:   1.0114(harm=  2.1857)  dis= 0.02726  next Energy=  -472.880287 (dE=-0.530E-02)
 bond charge predicted
       N       E                     dE             d eps       ncg     rms          rms(c)
DAV:   1    -0.472875265014E+03    0.89968E-03   -0.51783E+00  1312   0.510E+00    0.294E-01
DAV:   2    -0.472879534057E+03   -0.42690E-02   -0.55008E-02  1528   0.593E-01    0.194E-01
DAV:   3    -0.472879394236E+03    0.13982E-03   -0.17499E-03  1592   0.117E-01    0.113E-01
DAV:   4    -0.472879428049E+03   -0.33813E-04   -0.43315E-04  1544   0.606E-02    0.391E-02
DAV:   5    -0.472879450708E+03   -0.22659E-04   -0.69250E-05  1432   0.267E-02    0.144E-02
DAV:   6    -0.472879454243E+03   -0.35347E-05   -0.10452E-05   808   0.102E-02
  31 F= -.47287945E+03 E0= -.47284408E+03  d E =-.446774E-02
 curvature: -26.96 expect dE=-0.108E+00 dE for cont linesearch -0.217E-02
 ZBRENT: increasing intervall
 opt :   2.5285  next Energy=  -472.884805 (dE=-0.982E-02)
 bond charge predicted
       N       E                     dE             d eps       ncg     rms          rms(c)
DAV:   1    -0.472867405251E+03    0.12045E-01   -0.20760E+01  1312   0.102E+01    0.592E-01
DAV:   2    -0.472884980200E+03   -0.17575E-01   -0.22348E-01  1532   0.119E+00    0.397E-01
DAV:   3    -0.472884256914E+03    0.72329E-03   -0.70958E-03  1616   0.238E-01    0.236E-01
DAV:   4    -0.472884338970E+03   -0.82057E-04   -0.17619E-03  1544   0.124E-01    0.896E-02
DAV:   5    -0.472884441273E+03   -0.10230E-03   -0.33064E-04  1592   0.602E-02    0.309E-02
DAV:   6    -0.472884461721E+03   -0.20448E-04   -0.48325E-05  1256   0.205E-02    0.175E-02
DAV:   7    -0.472884481205E+03   -0.19484E-04   -0.76570E-06   860   0.929E-03    0.700E-03
DAV:   8    -0.472884498801E+03   -0.17596E-04   -0.43711E-06   888   0.581E-03    0.297E-03
DAV:   9    -0.472884506998E+03   -0.81975E-05   -0.11780E-06   896   0.284E-03
  32 F= -.47288451E+03 E0= -.47284932E+03  d E =-.952049E-02
 curvature: -66.45 expect dE=-0.312E+00 dE for cont linesearch -0.224E-02
 ZBRENT: increasing intervall
 opt :   5.5628  next Energy=  -472.888009 (dE=-0.130E-01)
 bond charge predicted
       N       E                     dE             d eps       ncg     rms          rms(c)
DAV:   1    -0.472813664690E+03    0.70834E-01   -0.83799E+01  1312   0.205E+01    0.124E+00
DAV:   2    -0.472888883186E+03   -0.75218E-01   -0.93649E-01  1544   0.244E+00    0.853E-01
DAV:   3    -0.472885498722E+03    0.33845E-02   -0.29388E-02  1632   0.506E-01    0.529E-01
DAV:   4    -0.472884855010E+03    0.64371E-03   -0.71328E-03  1536   0.253E-01    0.240E-01
DAV:   5    -0.472885336738E+03   -0.48173E-03   -0.18020E-03  1584   0.142E-01    0.707E-02
DAV:   6    -0.472885423743E+03   -0.87005E-04   -0.25037E-04  1520   0.434E-02    0.384E-02
DAV:   7    -0.472885479291E+03   -0.55548E-04   -0.31861E-05  1116   0.186E-02    0.134E-02
DAV:   8    -0.472885531995E+03   -0.52705E-04   -0.12348E-05   960   0.104E-02    0.530E-03
DAV:   9    -0.472885556909E+03   -0.24914E-04   -0.32182E-06   896   0.487E-03    0.374E-03
DAV:  10    -0.472885593551E+03   -0.36642E-04   -0.24843E-06   904   0.353E-03    0.178E-03
DAV:  11    -0.472885633001E+03   -0.39450E-04   -0.33132E-06   968   0.293E-03    0.139E-03
DAV:  12    -0.472885651789E+03   -0.18788E-04   -0.12341E-06   888   0.197E-03    0.968E-04
DAV:  13    -0.472885665536E+03   -0.13747E-04   -0.11977E-06   912   0.168E-03    0.569E-04
DAV:  14    -0.472885672493E+03   -0.69572E-05   -0.63076E-07   848   0.120E-03
  33 F= -.47288567E+03 E0= -.47285089E+03  d E =-.106860E-01
 curvature: ****** expect dE=-0.136E+01 dE for cont linesearch -0.213E-02
 ZBRENT: bracketing found
 ZBRENT: interpolating
 opt :   4.2337  next Energy=  -472.886983 (dE=-0.120E-01)
 bond charge predicted
       N       E                     dE             d eps       ncg     rms          rms(c)
DAV:   1    -0.472873818548E+03    0.11847E-01   -0.15930E+01  1312   0.896E+00    0.526E-01
DAV:   2    -0.472887309800E+03   -0.13491E-01   -0.17051E-01  1536   0.104E+00    0.339E-01
DAV:   3    -0.472886716029E+03    0.59377E-03   -0.53160E-03  1632   0.205E-01    0.198E-01
DAV:   4    -0.472886760404E+03   -0.44375E-04   -0.14488E-03  1512   0.117E-01    0.618E-02
DAV:   5    -0.472886809663E+03   -0.49259E-04   -0.24354E-04  1560   0.511E-02    0.279E-02
DAV:   6    -0.472886823306E+03   -0.13643E-04   -0.36281E-05  1176   0.175E-02    0.152E-02
DAV:   7    -0.472886832843E+03   -0.95367E-05   -0.68452E-06   904   0.890E-03
  34 F= -.47288683E+03 E0= -.47285187E+03  d E =-.118463E-01
 curvature: -63.89 expect dE=-0.524E+00 dE for cont linesearch -0.126E-04
 trial: gam= 1.29782 g(F)=  0.758E-02 g(S)=  0.612E-03 ort = 0.194E-03 (trialstep = 0.606E+00)
 search vector abs. value=  0.328E+00
 bond charge predicted
       N       E                     dE             d eps       ncg     rms          rms(c)
DAV:   1    -0.472887019745E+03   -0.19644E-03   -0.58710E+00  1312   0.536E+00    0.311E-01
DAV:   2    -0.472891695820E+03   -0.46761E-02   -0.60653E-02  1512   0.623E-01    0.201E-01
DAV:   3    -0.472891502280E+03    0.19354E-03   -0.20106E-03  1600   0.122E-01    0.113E-01
DAV:   4    -0.472891552571E+03   -0.50291E-04   -0.52086E-04  1540   0.674E-02    0.399E-02
DAV:   5    -0.472891573237E+03   -0.20666E-04   -0.13797E-04  1520   0.329E-02    0.188E-02
DAV:   6    -0.472891576443E+03   -0.32056E-05   -0.23556E-05   896   0.152E-02
  35 F= -.47289158E+03 E0= -.47285667E+03  d E =-.474360E-02
 ZBRENT: can't locate minimum, use default step
 trial-energy change:   -0.004744  1 .order   -0.004706   -0.005121   -0.004292
 step:   2.4252(harm=  3.7447)  dis= 0.08789  next Energy=  -472.902646 (dE=-0.158E-01)
 bond charge predicted
       N       E                     dE             d eps       ncg     rms          rms(c)
DAV:   1    -0.472858432540E+03    0.33141E-01   -0.53225E+01  1328   0.161E+01    0.961E-01
DAV:   2    -0.472902663435E+03   -0.44231E-01   -0.56463E-01  1536   0.189E+00    0.638E-01
DAV:   3    -0.472900348223E+03    0.23152E-02   -0.17569E-02  1632   0.379E-01    0.372E-01
DAV:   4    -0.472900335307E+03    0.12916E-04   -0.45264E-03  1544   0.196E-01    0.153E-01
DAV:   5    -0.472900582903E+03   -0.24760E-03   -0.12173E-03  1600   0.108E-01    0.549E-02
DAV:   6    -0.472900631770E+03   -0.48867E-04   -0.26093E-04  1520   0.476E-02    0.328E-02
DAV:   7    -0.472900661799E+03   -0.30030E-04   -0.35295E-05  1108   0.198E-02    0.170E-02
DAV:   8    -0.472900700685E+03   -0.38885E-04   -0.16048E-05   936   0.118E-02    0.628E-03
DAV:   9    -0.472900721982E+03   -0.21298E-04   -0.53847E-06   928   0.602E-03    0.328E-03
DAV:  10    -0.472900744526E+03   -0.22543E-04   -0.18573E-06   904   0.326E-03    0.175E-03
DAV:  11    -0.472900776847E+03   -0.32321E-04   -0.24198E-06   912   0.262E-03    0.113E-03
DAV:  12    -0.472900793266E+03   -0.16419E-04   -0.11307E-06   904   0.177E-03    0.893E-04
DAV:  13    -0.472900806187E+03   -0.12921E-04   -0.10577E-06   924   0.154E-03    0.518E-04
DAV:  14    -0.472900811700E+03   -0.55130E-05   -0.53532E-07   912   0.108E-03
  36 F= -.47290081E+03 E0= -.47286610E+03  d E =-.139789E-01
 curvature: -59.90 expect dE=-0.492E+00 dE for cont linesearch -0.137E-02
 ZBRENT: increasing intervall
 opt :   6.0631  next Energy=  -472.895012 (dE=-0.818E-02)
 bond charge predicted
       N       E                     dE             d eps       ncg     rms          rms(c)
DAV:   1    -0.472695901583E+03    0.20490E+00   -0.21804E+02  1344   0.326E+01    0.213E+00
DAV:   2    -0.472899208226E+03   -0.20331E+00   -0.25236E+00  1552   0.396E+00    0.150E+00
DAV:   3    -0.472889199618E+03    0.10009E-01   -0.79241E-02  1600   0.865E-01    0.925E-01
DAV:   4    -0.472885779764E+03    0.34199E-02   -0.18090E-02  1520   0.391E-01    0.478E-01
DAV:   5    -0.472886772296E+03   -0.99253E-03   -0.62360E-03  1584   0.270E-01    0.126E-01
DAV:   6    -0.472887033705E+03   -0.26141E-03   -0.12303E-03  1552   0.101E-01    0.773E-02
DAV:   7    -0.472887113811E+03   -0.80106E-04   -0.17672E-04  1480   0.441E-02    0.400E-02
DAV:   8    -0.472887233876E+03   -0.12006E-03   -0.71674E-05  1440   0.257E-02    0.125E-02
DAV:   9    -0.472887301607E+03   -0.67731E-04   -0.15469E-05   976   0.110E-02    0.646E-03
DAV:  10    -0.472887361710E+03   -0.60103E-04   -0.61775E-06   936   0.618E-03    0.374E-03
DAV:  11    -0.472887430845E+03   -0.69135E-04   -0.44216E-06   972   0.429E-03    0.218E-03
DAV:  12    -0.472887494488E+03   -0.63643E-04   -0.46756E-06   968   0.339E-03    0.153E-03
DAV:  13    -0.472887540055E+03   -0.45567E-04   -0.37089E-06   968   0.283E-03    0.110E-03
DAV:  14    -0.472887558148E+03   -0.18094E-04   -0.15407E-06   928   0.190E-03    0.648E-04
DAV:  15    -0.472887566368E+03   -0.82195E-05   -0.73850E-07   920   0.124E-03
  37 F= -.47288757E+03 E0= -.47285331E+03  d E =-.733525E-03
 curvature: 253.14 expect dE= 0.781E+01 dE for cont linesearch  0.914E-01
 ZBRENT: bracketing found
 ZBRENT: interpolating
 opt :   3.1573  next Energy=  -472.901815 (dE=-0.150E-01)
 bond charge predicted
       N       E                     dE             d eps       ncg     rms          rms(c)
DAV:   1    -0.472787467894E+03    0.10009E+00   -0.13792E+02  1312   0.260E+01    0.165E+00
DAV:   2    -0.472908269345E+03   -0.12080E+00   -0.15080E+00  1552   0.312E+00    0.101E+00
DAV:   3    -0.472902176872E+03    0.60925E-02   -0.53042E-02  1584   0.682E-01    0.620E-01
DAV:   4    -0.472900902321E+03    0.12746E-02   -0.16301E-02  1500   0.400E-01    0.197E-01
DAV:   5    -0.472901472493E+03   -0.57017E-03   -0.32026E-03  1568   0.165E-01    0.905E-02
DAV:   6    -0.472901607985E+03   -0.13549E-03   -0.47229E-04  1568   0.630E-02    0.544E-02
DAV:   7    -0.472901671880E+03   -0.63894E-04   -0.86338E-05  1492   0.299E-02    0.290E-02
DAV:   8    -0.472901759829E+03   -0.87949E-04   -0.46084E-05  1256   0.200E-02    0.125E-02
DAV:   9    -0.472901810698E+03   -0.50869E-04   -0.11449E-05  1000   0.100E-02    0.598E-03
DAV:  10    -0.472901862663E+03   -0.51965E-04   -0.47550E-06   992   0.503E-03    0.327E-03
DAV:  11    -0.472901920020E+03   -0.57357E-04   -0.41136E-06  1004   0.372E-03    0.175E-03
DAV:  12    -0.472901962687E+03   -0.42667E-04   -0.38336E-06   992   0.306E-03    0.217E-03
DAV:  13    -0.472901986068E+03   -0.23381E-04   -0.12938E-06   956   0.198E-03    0.118E-03
DAV:  14    -0.472902002051E+03   -0.15983E-04   -0.15501E-06   968   0.172E-03    0.476E-04
DAV:  15    -0.472902007218E+03   -0.51675E-05   -0.32251E-07   944   0.965E-04
  38 F= -.47290201E+03 E0= -.47286738E+03  d E =-.151744E-01
 curvature:  -2.78 expect dE=-0.295E-01 dE for cont linesearch -0.230E-05
 trial: gam= 0.76509 g(F)=  0.102E-01 g(S)=  0.366E-03 ort = 0.521E-03 (trialstep = 0.112E+01)
 search vector abs. value=  0.204E+00
 bond charge predicted
       N       E                     dE             d eps       ncg     rms          rms(c)
DAV:   1    -0.472904238616E+03   -0.22366E-02   -0.12526E+01  1344   0.779E+00    0.467E-01
DAV:   2    -0.472913410717E+03   -0.91721E-02   -0.12489E-01  1496   0.899E-01    0.290E-01
DAV:   3    -0.472912897794E+03    0.51292E-03   -0.40401E-03  1624   0.173E-01    0.154E-01
DAV:   4    -0.472912993278E+03   -0.95484E-04   -0.91138E-04  1552   0.884E-02    0.457E-02
DAV:   5    -0.472913042384E+03   -0.49106E-04   -0.14737E-04  1576   0.356E-02    0.215E-02
DAV:   6    -0.472913053945E+03   -0.11561E-04   -0.18024E-05   856   0.132E-02    0.110E-02
DAV:   7    -0.472913063202E+03   -0.92573E-05   -0.44242E-06   876   0.699E-03
  39 F= -.47291306E+03 E0= -.47287863E+03  d E =-.110560E-01
 trial-energy change:   -0.011056  1 .order   -0.010983   -0.012277   -0.009688
 step:   3.7706(harm=  5.2945)  dis= 0.10774  next Energy=  -472.925564 (dE=-0.236E-01)
 bond charge predicted
       N       E                     dE             d eps       ncg     rms          rms(c)
DAV:   1    -0.472874687106E+03    0.38367E-01   -0.71357E+01  1328   0.186E+01    0.117E+00
DAV:   2    -0.472931952930E+03   -0.57266E-01   -0.74991E-01  1520   0.218E+00    0.735E-01
DAV:   3    -0.472928309447E+03    0.36435E-02   -0.23836E-02  1680   0.436E-01    0.419E-01
DAV:   4    -0.472928071527E+03    0.23792E-03   -0.48588E-03  1512   0.204E-01    0.169E-01
DAV:   5    -0.472928507982E+03   -0.43645E-03   -0.11102E-03  1576   0.107E-01    0.496E-02
DAV:   6    -0.472928591322E+03   -0.83341E-04   -0.14507E-04  1488   0.342E-02    0.280E-02
DAV:   7    -0.472928655952E+03   -0.64630E-04   -0.21476E-05   988   0.144E-02    0.105E-02
DAV:   8    -0.472928706620E+03   -0.50668E-04   -0.94105E-06   936   0.810E-03    0.461E-03
DAV:   9    -0.472928739028E+03   -0.32408E-04   -0.33386E-06   912   0.438E-03    0.277E-03
DAV:  10    -0.472928790184E+03   -0.51156E-04   -0.39523E-06   932   0.359E-03    0.161E-03
DAV:  11    -0.472928818582E+03   -0.28397E-04   -0.20555E-06   952   0.248E-03    0.140E-03
DAV:  12    -0.472928837455E+03   -0.18873E-04   -0.14044E-06   904   0.200E-03    0.879E-04
DAV:  13    -0.472928851647E+03   -0.14192E-04   -0.12817E-06   928   0.156E-03    0.524E-04
DAV:  14    -0.472928858475E+03   -0.68273E-05   -0.60412E-07   904   0.111E-03
  40 F= -.47292886E+03 E0= -.47289493E+03  d E =-.268513E-01
 curvature: -42.48 expect dE=-0.563E+00 dE for cont linesearch -0.179E-02
 ZBRENT: increasing intervall
 opt :   9.0789  next Energy=  -472.913901 (dE=-0.119E-01)
 bond charge predicted
       N       E                     dE             d eps       ncg     rms          rms(c)
DAV:   1    -0.472648245955E+03    0.28061E+00   -0.29436E+02  1360   0.377E+01    0.269E+00
DAV:   2    -0.472923526584E+03   -0.27528E+00   -0.34819E+00  1520   0.464E+00    0.179E+00
DAV:   3    -0.472907869397E+03    0.15657E-01   -0.11143E-01  1632   0.104E+00    0.109E+00
DAV:   4    -0.472902813362E+03    0.50560E-02   -0.21573E-02  1560   0.421E-01    0.600E-01
DAV:   5    -0.472903883671E+03   -0.10703E-02   -0.82510E-03  1552   0.310E-01    0.136E-01
DAV:   6    -0.472904330255E+03   -0.44658E-03   -0.12902E-03  1600   0.964E-02    0.711E-02
DAV:   7    -0.472904514040E+03   -0.18379E-03   -0.12929E-04  1472   0.363E-02    0.299E-02
DAV:   8    -0.472904642791E+03   -0.12875E-03   -0.50765E-05  1200   0.222E-02    0.140E-02
DAV:   9    -0.472904729066E+03   -0.86275E-04   -0.13984E-05   984   0.113E-02    0.649E-03
DAV:  10    -0.472904840703E+03   -0.11164E-03   -0.99929E-06  1012   0.637E-03    0.347E-03
DAV:  11    -0.472904947516E+03   -0.10681E-03   -0.64592E-06  1000   0.465E-03    0.210E-03
DAV:  12    -0.472905026294E+03   -0.78778E-04   -0.65497E-06  1016   0.384E-03    0.158E-03
DAV:  13    -0.472905065902E+03   -0.39608E-04   -0.28033E-06   968   0.242E-03    0.752E-04
DAV:  14    -0.472905081208E+03   -0.15306E-04   -0.11408E-06   904   0.161E-03    0.420E-04
DAV:  15    -0.472905089165E+03   -0.79565E-05   -0.67037E-07   920   0.115E-03
  41 F= -.47290509E+03 E0= -.47287218E+03  d E =-.308195E-02
 curvature: 354.63 expect dE= 0.207E+02 dE for cont linesearch  0.293E+00
 ZBRENT: bracketing found
 ZBRENT: interpolating
 opt :   4.7495  next Energy=  -472.930292 (dE=-0.283E-01)
 bond charge predicted
       N       E                     dE             d eps       ncg     rms          rms(c)
DAV:   1    -0.472778032208E+03    0.12705E+00   -0.19415E+02  1344   0.307E+01    0.202E+00
DAV:   2    -0.472941249754E+03   -0.16322E+00   -0.20709E+00  1528   0.370E+00    0.120E+00
DAV:   3    -0.472931663014E+03    0.95867E-02   -0.75951E-02  1600   0.828E-01    0.725E-01
DAV:   4    -0.472928971482E+03    0.26915E-02   -0.23946E-02  1472   0.469E-01    0.199E-01
DAV:   5    -0.472929781856E+03   -0.81037E-03   -0.43773E-03  1544   0.189E-01    0.103E-01
DAV:   6    -0.472930060051E+03   -0.27820E-03   -0.48258E-04  1576   0.576E-02    0.547E-02
DAV:   7    -0.472930184413E+03   -0.12436E-03   -0.97773E-05  1428   0.296E-02    0.219E-02
DAV:   8    -0.472930297632E+03   -0.11322E-03   -0.30333E-05  1184   0.155E-02    0.776E-03
DAV:   9    -0.472930360248E+03   -0.62616E-04   -0.69016E-06  1000   0.696E-03    0.568E-03
DAV:  10    -0.472930436628E+03   -0.76380E-04   -0.50548E-06   984   0.460E-03    0.322E-03
DAV:  11    -0.472930544043E+03   -0.10741E-03   -0.12308E-05  1032   0.498E-03    0.248E-03
DAV:  12    -0.472930568930E+03   -0.24887E-04   -0.15516E-06  1000   0.244E-03    0.193E-03
DAV:  13    -0.472930600376E+03   -0.31446E-04   -0.25054E-06   952   0.208E-03    0.871E-04
DAV:  14    -0.472930615987E+03   -0.15611E-04   -0.11050E-06   936   0.157E-03    0.531E-04
DAV:  15    -0.472930621563E+03   -0.55761E-05   -0.41343E-07   948   0.101E-03
  42 F= -.47293062E+03 E0= -.47289688E+03  d E =-.286143E-01
 curvature:  -1.74 expect dE=-0.313E-01 dE for cont linesearch -0.227E-05
 trial: gam= 1.32113 g(F)=  0.176E-01 g(S)=  0.470E-03 ort = 0.515E-03 (trialstep = 0.100E+01)
 search vector abs. value=  0.375E+00
 bond charge predicted
       N       E                     dE             d eps       ncg     rms          rms(c)
DAV:   1    -0.472932676817E+03   -0.20608E-02   -0.18460E+01  1360   0.967E+00    0.580E-01
DAV:   2    -0.472946883697E+03   -0.14207E-01   -0.19136E-01  1488   0.112E+00    0.382E-01
DAV:   3    -0.472945804045E+03    0.10797E-02   -0.66426E-03  1584   0.229E-01    0.216E-01
DAV:   4    -0.472945928198E+03   -0.12415E-03   -0.20142E-03  1524   0.129E-01    0.904E-02
DAV:   5    -0.472946038688E+03   -0.11049E-03   -0.56085E-04  1548   0.694E-02    0.373E-02
DAV:   6    -0.472946081688E+03   -0.43000E-04   -0.98765E-05  1464   0.299E-02    0.202E-02
DAV:   7    -0.472946098272E+03   -0.16584E-04   -0.22787E-05   904   0.131E-02    0.970E-03
DAV:   8    -0.472946113619E+03   -0.15347E-04   -0.62995E-06   896   0.716E-03    0.398E-03
DAV:   9    -0.472946126501E+03   -0.12882E-04   -0.20702E-06   920   0.378E-03    0.172E-03
DAV:  10    -0.472946137353E+03   -0.10852E-04   -0.85205E-07   880   0.212E-03    0.982E-04
DAV:  11    -0.472946150279E+03   -0.12926E-04   -0.91769E-07   916   0.171E-03    0.733E-04
DAV:  12    -0.472946157197E+03   -0.69177E-05   -0.48736E-07   896   0.113E-03
  43 F= -.47294616E+03 E0= -.47291259E+03  d E =-.155356E-01
 trial-energy change:   -0.015536  1 .order   -0.015469   -0.018735   -0.012203
 step:   2.6131(harm=  2.8719)  dis= 0.09760  next Energy=  -472.956257 (dE=-0.256E-01)
 bond charge predicted
       N       E                     dE             d eps       ncg     rms          rms(c)
DAV:   1    -0.472919778009E+03    0.26372E-01   -0.48006E+01  1360   0.156E+01    0.964E-01
DAV:   2    -0.472958443465E+03   -0.38665E-01   -0.51110E-01  1480   0.183E+00    0.640E-01
DAV:   3    -0.472955599853E+03    0.28436E-02   -0.17153E-02  1608   0.376E-01    0.373E-01
DAV:   4    -0.472955462585E+03    0.13727E-03   -0.48731E-03  1492   0.202E-01    0.171E-01
DAV:   5    -0.472955758397E+03   -0.29581E-03   -0.15160E-03  1576   0.118E-01    0.611E-02
DAV:   6    -0.472955870632E+03   -0.11223E-03   -0.28656E-04  1496   0.518E-02    0.334E-02
DAV:   7    -0.472955911971E+03   -0.41340E-04   -0.63598E-05  1344   0.219E-02    0.170E-02
DAV:   8    -0.472955948158E+03   -0.36187E-04   -0.16020E-05   912   0.111E-02    0.730E-03
DAV:   9    -0.472955982737E+03   -0.34579E-04   -0.63316E-06   968   0.656E-03    0.293E-03
DAV:  10    -0.472956003071E+03   -0.20334E-04   -0.16151E-06   912   0.334E-03    0.183E-03
DAV:  11    -0.472956035504E+03   -0.32433E-04   -0.22447E-06   900   0.282E-03    0.124E-03
DAV:  12    -0.472956054547E+03   -0.19043E-04   -0.13702E-06   944   0.180E-03    0.929E-04
DAV:  13    -0.472956070939E+03   -0.16392E-04   -0.14717E-06   908   0.193E-03    0.831E-04
DAV:  14    -0.472956077024E+03   -0.60843E-05   -0.65639E-07   920   0.122E-03
  44 F= -.47295608E+03 E0= -.47292280E+03  d E =-.254555E-01
 curvature: -28.20 expect dE=-0.494E+00 dE for cont linesearch -0.194E-05
 trial: gam= 0.76691 g(F)=  0.175E-01 g(S)=  0.101E-04 ort =-0.161E-03 (trialstep = 0.132E+01)
 search vector abs. value=  0.238E+00
 bond charge predicted
       N       E                     dE             d eps       ncg     rms          rms(c)
DAV:   1    -0.472960398276E+03   -0.43273E-02   -0.19551E+01  1376   0.104E+01    0.620E-01
DAV:   2    -0.472976245307E+03   -0.15847E-01   -0.21456E-01  1520   0.120E+00    0.413E-01
DAV:   3    -0.472974989803E+03    0.12555E-02   -0.70658E-03  1624   0.239E-01    0.227E-01
DAV:   4    -0.472975178138E+03   -0.18834E-03   -0.18315E-03  1528   0.130E-01    0.858E-02
DAV:   5    -0.472975273283E+03   -0.95145E-04   -0.52610E-04  1540   0.692E-02    0.389E-02
DAV:   6    -0.472975311461E+03   -0.38177E-04   -0.97112E-05  1448   0.302E-02    0.195E-02
DAV:   7    -0.472975331580E+03   -0.20119E-04   -0.14706E-05   956   0.118E-02    0.958E-03
DAV:   8    -0.472975350793E+03   -0.19213E-04   -0.43658E-06   928   0.682E-03    0.336E-03
DAV:   9    -0.472975360673E+03   -0.98803E-05   -0.16315E-06   912   0.352E-03
  45 F= -.47297536E+03 E0= -.47294215E+03  d E =-.192836E-01
 trial-energy change:   -0.019284  1 .order   -0.019301   -0.023019   -0.015583
 step:   4.0973(harm=  4.0973)  dis= 0.11005  next Energy=  -472.991704 (dE=-0.356E-01)
 bond charge predicted
       N       E                     dE             d eps       ncg     rms          rms(c)
DAV:   1    -0.472918211348E+03    0.57139E-01   -0.86312E+01  1360   0.219E+01    0.138E+00
DAV:   2    -0.472995170262E+03   -0.76959E-01   -0.10057E+00  1528   0.259E+00    0.913E-01
DAV:   3    -0.472989440649E+03    0.57296E-02   -0.32924E-02  1688   0.526E-01    0.548E-01
DAV:   4    -0.472988754729E+03    0.68592E-03   -0.74652E-03  1480   0.265E-01    0.251E-01
DAV:   5    -0.472989413013E+03   -0.65828E-03   -0.25603E-03  1608   0.163E-01    0.817E-02
DAV:   6    -0.472989566331E+03   -0.15332E-03   -0.57749E-04  1540   0.717E-02    0.448E-02
DAV:   7    -0.472989637031E+03   -0.70700E-04   -0.95247E-05  1456   0.292E-02    0.233E-02
DAV:   8    -0.472989716856E+03   -0.79825E-04   -0.19130E-05  1036   0.147E-02    0.803E-03
DAV:   9    -0.472989766055E+03   -0.49199E-04   -0.72042E-06   952   0.728E-03    0.403E-03
DAV:  10    -0.472989813949E+03   -0.47894E-04   -0.39667E-06   952   0.426E-03    0.224E-03
DAV:  11    -0.472989866937E+03   -0.52988E-04   -0.38476E-06   952   0.322E-03    0.159E-03
DAV:  12    -0.472989904092E+03   -0.37155E-04   -0.31160E-06   968   0.273E-03    0.118E-03
DAV:  13    -0.472989922369E+03   -0.18276E-04   -0.16856E-06   936   0.195E-03    0.942E-04
DAV:  14    -0.472989929918E+03   -0.75497E-05   -0.89852E-07   896   0.142E-03
  46 F= -.47298993E+03 E0= -.47295685E+03  d E =-.338529E-01
 curvature: -27.99 expect dE=-0.543E+00 dE for cont linesearch -0.319E-03
 trial: gam= 0.88807 g(F)=  0.191E-01 g(S)=  0.321E-03 ort =-0.165E-02 (trialstep = 0.188E+01)
 search vector abs. value=  0.204E+00
 bond charge predicted
       N       E                     dE             d eps       ncg     rms          rms(c)
DAV:   1    -0.472985166898E+03    0.47555E-02   -0.30796E+01  1360   0.140E+01    0.920E-01
DAV:   2    -0.473014689869E+03   -0.29523E-01   -0.41043E-01  1520   0.167E+00    0.570E-01
DAV:   3    -0.473012145507E+03    0.25444E-02   -0.14892E-02  1632   0.348E-01    0.335E-01
DAV:   4    -0.473012198317E+03   -0.52810E-04   -0.40753E-03  1496   0.194E-01    0.133E-01
DAV:   5    -0.473012388884E+03   -0.19057E-03   -0.11869E-03  1528   0.103E-01    0.581E-02
DAV:   6    -0.473012468344E+03   -0.79460E-04   -0.22742E-04  1528   0.453E-02    0.287E-02
DAV:   7    -0.473012495547E+03   -0.27203E-04   -0.49377E-05  1192   0.190E-02    0.158E-02
DAV:   8    -0.473012520109E+03   -0.24562E-04   -0.13711E-05   928   0.104E-02    0.687E-03
DAV:   9    -0.473012540693E+03   -0.20584E-04   -0.51734E-06   928   0.577E-03    0.238E-03
DAV:  10    -0.473012559599E+03   -0.18906E-04   -0.17457E-06   904   0.311E-03    0.136E-03
DAV:  11    -0.473012577445E+03   -0.17846E-04   -0.12731E-06   944   0.208E-03    0.851E-04
DAV:  12    -0.473012593591E+03   -0.16146E-04   -0.12168E-06   880   0.168E-03    0.604E-04
DAV:  13    -0.473012603325E+03   -0.97338E-05   -0.85619E-07   904   0.137E-03
  47 F= -.47301260E+03 E0= -.47297985E+03  d E =-.226734E-01
 trial-energy change:   -0.022673  1 .order   -0.022580   -0.033670   -0.011490
 step:   2.8160(harm=  2.8515)  dis= 0.05713  next Energy=  -473.015483 (dE=-0.256E-01)
 bond charge predicted
       N       E                     dE             d eps       ncg     rms          rms(c)
DAV:   1    -0.473008687963E+03    0.39056E-02   -0.76685E+00  1360   0.697E+00    0.447E-01
DAV:   2    -0.473015803792E+03   -0.71158E-02   -0.10083E-01  1488   0.830E-01    0.282E-01
DAV:   3    -0.473015262166E+03    0.54163E-03   -0.37127E-03  1648   0.173E-01    0.163E-01
DAV:   4    -0.473015327118E+03   -0.64951E-04   -0.10428E-03  1484   0.997E-02    0.600E-02
DAV:   5    -0.473015374244E+03   -0.47126E-04   -0.27990E-04  1520   0.496E-02    0.281E-02
DAV:   6    -0.473015393262E+03   -0.19019E-04   -0.46525E-05  1216   0.209E-02    0.140E-02
DAV:   7    -0.473015401431E+03   -0.81683E-05   -0.11228E-05   888   0.941E-03
  48 F= -.47301540E+03 E0= -.47298283E+03  d E =-.254715E-01
 curvature: -16.19 expect dE=-0.307E+00 dE for cont linesearch -0.116E-05
 trial: gam= 0.75132 g(F)=  0.189E-01 g(S)=  0.544E-04 ort =-0.121E-03 (trialstep = 0.207E+01)
 search vector abs. value=  0.134E+00
 bond charge predicted
       N       E                     dE             d eps       ncg     rms          rms(c)
DAV:   1    -0.473021189468E+03   -0.57962E-02   -0.21379E+01  1336   0.125E+01    0.883E-01
DAV:   2    -0.473045533215E+03   -0.24344E-01   -0.34885E-01  1520   0.154E+00    0.539E-01
DAV:   3    -0.473043185889E+03    0.23473E-02   -0.12787E-02  1656   0.343E-01    0.322E-01
DAV:   4    -0.473043184048E+03    0.18415E-05   -0.36205E-03  1508   0.187E-01    0.139E-01
DAV:   5    -0.473043339164E+03   -0.15512E-03   -0.10536E-03  1580   0.998E-02    0.600E-02
DAV:   6    -0.473043408601E+03   -0.69437E-04   -0.24050E-04  1512   0.470E-02    0.290E-02
DAV:   7    -0.473043439976E+03   -0.31375E-04   -0.38680E-05  1164   0.177E-02    0.147E-02
DAV:   8    -0.473043466587E+03   -0.26611E-04   -0.10554E-05   944   0.937E-03    0.574E-03
DAV:   9    -0.473043482776E+03   -0.16189E-04   -0.38677E-06   912   0.523E-03    0.234E-03
DAV:  10    -0.473043496485E+03   -0.13709E-04   -0.14355E-06   904   0.276E-03    0.136E-03
DAV:  11    -0.473043512264E+03   -0.15779E-04   -0.11198E-06   928   0.196E-03    0.811E-04
DAV:  12    -0.473043523998E+03   -0.11734E-04   -0.81479E-07   912   0.141E-03    0.659E-04
DAV:  13    -0.473043531758E+03   -0.77598E-05   -0.60742E-07   912   0.117E-03
  49 F= -.47304353E+03 E0= -.47301086E+03  d E =-.281303E-01
 trial-energy change:   -0.028130  1 .order   -0.027976   -0.038973   -0.016979
 step:   3.5531(harm=  3.6608)  dis= 0.03783  next Energy=  -473.049701 (dE=-0.343E-01)
 bond charge predicted
       N       E                     dE             d eps       ncg     rms          rms(c)
DAV:   1    -0.473038386821E+03    0.51372E-02   -0.11077E+01  1336   0.902E+00    0.628E-01
DAV:   2    -0.473050859778E+03   -0.12473E-01   -0.17975E-01  1528   0.110E+00    0.387E-01
DAV:   3    -0.473049698759E+03    0.11610E-02   -0.65885E-03  1636   0.246E-01    0.229E-01
DAV:   4    -0.473049749698E+03   -0.50939E-04   -0.18652E-03  1484   0.135E-01    0.961E-02
DAV:   5    -0.473049836880E+03   -0.87181E-04   -0.51673E-04  1580   0.700E-02    0.420E-02
DAV:   6    -0.473049868378E+03   -0.31498E-04   -0.11301E-04  1464   0.325E-02    0.206E-02
DAV:   7    -0.473049881899E+03   -0.13521E-04   -0.17769E-05   924   0.125E-02    0.101E-02
DAV:   8    -0.473049894391E+03   -0.12492E-04   -0.57071E-06   916   0.690E-03    0.389E-03
DAV:   9    -0.473049901383E+03   -0.69915E-05   -0.18757E-06   940   0.366E-03
  50 F= -.47304990E+03 E0= -.47301715E+03  d E =-.345000E-01
 curvature: -12.93 expect dE=-0.287E+00 dE for cont linesearch -0.107E-04
 trial: gam= 1.15390 g(F)=  0.222E-01 g(S)=  0.123E-04 ort = 0.334E-03 (trialstep = 0.157E+01)
 search vector abs. value=  0.201E+00
 bond charge predicted
       N       E                     dE             d eps       ncg     rms          rms(c)
DAV:   1    -0.473055717551E+03   -0.58232E-02   -0.17163E+01  1312   0.116E+01    0.820E-01
DAV:   2    -0.473078783094E+03   -0.23066E-01   -0.31702E-01  1576   0.144E+00    0.518E-01
DAV:   3    -0.473076712222E+03    0.20709E-02   -0.10704E-02  1592   0.311E-01    0.316E-01
DAV:   4    -0.473076642367E+03    0.69855E-04   -0.31758E-03  1504   0.173E-01    0.120E-01
DAV:   5    -0.473076815124E+03   -0.17276E-03   -0.74360E-04  1556   0.839E-02    0.513E-02
DAV:   6    -0.473076852512E+03   -0.37388E-04   -0.16314E-04  1504   0.384E-02    0.255E-02
DAV:   7    -0.473076871874E+03   -0.19363E-04   -0.25847E-05   932   0.158E-02    0.125E-02
DAV:   8    -0.473076894979E+03   -0.23104E-04   -0.93396E-06   928   0.862E-03    0.427E-03
DAV:   9    -0.473076905839E+03   -0.10860E-04   -0.25956E-06   936   0.449E-03    0.237E-03
DAV:  10    -0.473076921394E+03   -0.15555E-04   -0.15051E-06   868   0.274E-03    0.119E-03
DAV:  11    -0.473076934820E+03   -0.13426E-04   -0.10331E-06   896   0.195E-03    0.736E-04
DAV:  12    -0.473076944306E+03   -0.94866E-05   -0.96757E-07   956   0.161E-03
  51 F= -.47307694E+03 E0= -.47304426E+03  d E =-.270429E-01
 trial-energy change:   -0.027043  1 .order   -0.027001   -0.035518   -0.018485
 step:   3.2787(harm=  3.2787)  dis= 0.03151  next Energy=  -473.086934 (dE=-0.370E-01)
 bond charge predicted
       N       E                     dE             d eps       ncg     rms          rms(c)
DAV:   1    -0.473061722351E+03    0.15212E-01   -0.20217E+01  1312   0.126E+01    0.895E-01
DAV:   2    -0.473089076275E+03   -0.27354E-01   -0.37462E-01  1572   0.157E+00    0.562E-01
DAV:   3    -0.473086598654E+03    0.24776E-02   -0.12542E-02  1608   0.336E-01    0.345E-01
DAV:   4    -0.473086479914E+03    0.11874E-03   -0.36713E-03  1500   0.185E-01    0.130E-01
DAV:   5    -0.473086675697E+03   -0.19578E-03   -0.80496E-04  1592   0.872E-02    0.534E-02
DAV:   6    -0.473086717268E+03   -0.41571E-04   -0.16965E-04  1512   0.391E-02    0.266E-02
DAV:   7    -0.473086736834E+03   -0.19567E-04   -0.27630E-05   912   0.165E-02    0.131E-02
DAV:   8    -0.473086761411E+03   -0.24577E-04   -0.10299E-05   928   0.907E-03    0.442E-03
DAV:   9    -0.473086773619E+03   -0.12208E-04   -0.28885E-06   912   0.475E-03    0.252E-03
DAV:  10    -0.473086790665E+03   -0.17046E-04   -0.16418E-06   888   0.288E-03    0.130E-03
DAV:  11    -0.473086806180E+03   -0.15515E-04   -0.12107E-06   896   0.204E-03    0.793E-04
DAV:  12    -0.473086817638E+03   -0.11458E-04   -0.11846E-06   960   0.177E-03    0.689E-04
DAV:  13    -0.473086823219E+03   -0.55809E-05   -0.56037E-07   928   0.123E-03
  52 F= -.47308682E+03 E0= -.47305424E+03  d E =-.369218E-01
 curvature: -14.60 expect dE=-0.325E+00 dE for cont linesearch -0.405E-05
 trial: gam= 0.98808 g(F)=  0.222E-01 g(S)=  0.811E-04 ort =-0.236E-03 (trialstep = 0.176E+01)
 search vector abs. value=  0.218E+00
 bond charge predicted
       N       E                     dE             d eps       ncg     rms          rms(c)
DAV:   1    -0.473083261989E+03    0.35556E-02   -0.22703E+01  1312   0.135E+01    0.962E-01
DAV:   2    -0.473116866027E+03   -0.33604E-01   -0.44707E-01  1596   0.170E+00    0.614E-01
DAV:   3    -0.473114141926E+03    0.27241E-02   -0.15598E-02  1600   0.374E-01    0.384E-01
DAV:   4    -0.473113878707E+03    0.26322E-03   -0.38402E-03  1480   0.187E-01    0.158E-01
DAV:   5    -0.473114141254E+03   -0.26255E-03   -0.81933E-04  1712   0.872E-02    0.486E-02
DAV:   6    -0.473114175067E+03   -0.33813E-04   -0.12174E-04  1480   0.336E-02    0.262E-02
DAV:   7    -0.473114191330E+03   -0.16263E-04   -0.16403E-05   884   0.142E-02    0.117E-02
DAV:   8    -0.473114205081E+03   -0.13751E-04   -0.78034E-06   908   0.920E-03    0.412E-03
DAV:   9    -0.473114212885E+03   -0.78046E-05   -0.23982E-06   912   0.429E-03
  53 F= -.47311421E+03 E0= -.47308169E+03  d E =-.273897E-01
 trial-energy change:   -0.027390  1 .order   -0.027371   -0.038846   -0.015897
 step:   2.9864(harm=  2.9864)  dis= 0.02890  next Energy=  -473.119700 (dE=-0.329E-01)
 bond charge predicted
       N       E                     dE             d eps       ncg     rms          rms(c)
DAV:   1    -0.473104886355E+03    0.93187E-02   -0.10895E+01  1312   0.934E+00    0.655E-01
DAV:   2    -0.473120886601E+03   -0.16000E-01   -0.21368E-01  1632   0.118E+00    0.425E-01
DAV:   3    -0.473119551826E+03    0.13348E-02   -0.72699E-03  1600   0.257E-01    0.264E-01
DAV:   4    -0.473119497939E+03    0.53887E-04   -0.18860E-03  1480   0.130E-01    0.106E-01
DAV:   5    -0.473119631626E+03   -0.13369E-03   -0.39670E-04  1696   0.606E-02    0.335E-02
DAV:   6    -0.473119651919E+03   -0.20294E-04   -0.61684E-05  1328   0.240E-02    0.188E-02
DAV:   7    -0.473119664074E+03   -0.12155E-04   -0.88829E-06   880   0.103E-02    0.884E-03
DAV:   8    -0.473119676718E+03   -0.12644E-04   -0.45399E-06   892   0.668E-03    0.303E-03
DAV:   9    -0.473119683200E+03   -0.64818E-05   -0.13500E-06   912   0.323E-03
  54 F= -.47311968E+03 E0= -.47308722E+03  d E =-.328600E-01
 curvature: -14.80 expect dE=-0.296E+00 dE for cont linesearch -0.125E-05
 trial: gam= 0.82248 g(F)=  0.200E-01 g(S)=  0.473E-04 ort =-0.136E-03 (trialstep = 0.201E+01)
 search vector abs. value=  0.167E+00
 bond charge predicted
       N       E                     dE             d eps       ncg     rms          rms(c)
DAV:   1    -0.473118480184E+03    0.11965E-02   -0.22707E+01  1312   0.134E+01    0.949E-01
DAV:   2    -0.473152549955E+03   -0.34070E-01   -0.44449E-01  1564   0.168E+00    0.608E-01
DAV:   3    -0.473149844114E+03    0.27058E-02   -0.14486E-02  1600   0.361E-01    0.388E-01
DAV:   4    -0.473149510189E+03    0.33393E-03   -0.40540E-03  1504   0.190E-01    0.156E-01
DAV:   5    -0.473149737152E+03   -0.22696E-03   -0.10421E-03  1584   0.908E-02    0.509E-02
DAV:   6    -0.473149772429E+03   -0.35277E-04   -0.25367E-04  1520   0.410E-02    0.280E-02
DAV:   7    -0.473149785880E+03   -0.13451E-04   -0.39437E-05   944   0.171E-02    0.137E-02
DAV:   8    -0.473149808827E+03   -0.22947E-04   -0.11645E-05   912   0.967E-03    0.448E-03
DAV:   9    -0.473149820791E+03   -0.11964E-04   -0.25388E-06   888   0.478E-03    0.251E-03
DAV:  10    -0.473149834406E+03   -0.13615E-04   -0.14205E-06   880   0.271E-03    0.131E-03
DAV:  11    -0.473149846112E+03   -0.11705E-04   -0.10295E-06   904   0.207E-03    0.949E-04
DAV:  12    -0.473149854022E+03   -0.79101E-05   -0.78650E-07   900   0.164E-03
  55 F= -.47314985E+03 E0= -.47311722E+03  d E =-.301708E-01
 trial-energy change:   -0.030171  1 .order   -0.030174   -0.040022   -0.020326
 step:   4.0818(harm=  4.0818)  dis= 0.03300  next Energy=  -473.160345 (dE=-0.407E-01)
 bond charge predicted
       N       E                     dE             d eps       ncg     rms          rms(c)
DAV:   1    -0.473126821453E+03    0.23025E-01   -0.24175E+01  1312   0.138E+01    0.982E-01
DAV:   2    -0.473163125281E+03   -0.36304E-01   -0.47355E-01  1572   0.173E+00    0.627E-01
DAV:   3    -0.473160267787E+03    0.28575E-02   -0.15363E-02  1616   0.372E-01    0.402E-01
DAV:   4    -0.473159892507E+03    0.37528E-03   -0.42584E-03  1496   0.195E-01    0.162E-01
DAV:   5    -0.473160117081E+03   -0.22457E-03   -0.10674E-03  1616   0.927E-02    0.520E-02
DAV:   6    -0.473160154381E+03   -0.37300E-04   -0.25756E-04  1536   0.415E-02    0.288E-02
DAV:   7    -0.473160167888E+03   -0.13507E-04   -0.42782E-05   936   0.175E-02    0.141E-02
DAV:   8    -0.473160191288E+03   -0.23400E-04   -0.12430E-05   920   0.998E-03    0.461E-03
DAV:   9    -0.473160203838E+03   -0.12550E-04   -0.26870E-06   912   0.496E-03    0.268E-03
DAV:  10    -0.473160218036E+03   -0.14198E-04   -0.15002E-06   876   0.280E-03    0.142E-03
DAV:  11    -0.473160230884E+03   -0.12848E-04   -0.11332E-06   908   0.216E-03    0.991E-04
DAV:  12    -0.473160239357E+03   -0.84730E-05   -0.89253E-07   936   0.169E-03
  56 F= -.47316024E+03 E0= -.47312744E+03  d E =-.405562E-01
 curvature: -17.15 expect dE=-0.561E+00 dE for cont linesearch -0.835E-06
 trial: gam= 1.59869 g(F)=  0.326E-01 g(S)=  0.156E-03 ort =-0.903E-04 (trialstep = 0.881E+00)
 search vector abs. value=  0.460E+00
 bond charge predicted
       N       E                     dE             d eps       ncg     rms          rms(c)
DAV:   1    -0.473168825696E+03   -0.85948E-02   -0.12312E+01  1312   0.971E+00    0.661E-01
DAV:   2    -0.473186567157E+03   -0.17741E-01   -0.23091E-01  1572   0.122E+00    0.432E-01
DAV:   3    -0.473185375655E+03    0.11915E-02   -0.76111E-03  1608   0.257E-01    0.273E-01
DAV:   4    -0.473185285828E+03    0.89827E-04   -0.19806E-03  1504   0.134E-01    0.113E-01
DAV:   5    -0.473185413747E+03   -0.12792E-03   -0.42159E-04  1572   0.655E-02    0.352E-02
DAV:   6    -0.473185434526E+03   -0.20779E-04   -0.75705E-05  1360   0.262E-02    0.192E-02
DAV:   7    -0.473185441154E+03   -0.66283E-05   -0.11262E-05   884   0.107E-02
  57 F= -.47318544E+03 E0= -.47315274E+03  d E =-.252018E-01
 trial-energy change:   -0.025202  1 .order   -0.025129   -0.028723   -0.021536
 step:   3.0641(harm=  3.5225)  dis= 0.03811  next Energy=  -473.213208 (dE=-0.530E-01)
 bond charge predicted
       N       E                     dE             d eps       ncg     rms          rms(c)
DAV:   1    -0.473112940080E+03    0.72494E-01   -0.75428E+01  1312   0.240E+01    0.176E+00
DAV:   2    -0.473225597804E+03   -0.11266E+00   -0.14536E+00  1568   0.307E+00    0.108E+00
DAV:   3    -0.473218235128E+03    0.73627E-02   -0.48597E-02  1624   0.643E-01    0.712E-01
DAV:   4    -0.473216611101E+03    0.16240E-02   -0.11048E-02  1504   0.317E-01    0.315E-01
DAV:   5    -0.473217299295E+03   -0.68819E-03   -0.26038E-03  1592   0.158E-01    0.889E-02
DAV:   6    -0.473217425673E+03   -0.12638E-03   -0.47353E-04  1464   0.634E-02    0.476E-02
DAV:   7    -0.473217472112E+03   -0.46439E-04   -0.72658E-05  1408   0.249E-02    0.220E-02
DAV:   8    -0.473217525851E+03   -0.53739E-04   -0.23595E-05   944   0.144E-02    0.707E-03
DAV:   9    -0.473217551780E+03   -0.25929E-04   -0.67521E-06   928   0.715E-03    0.461E-03
DAV:  10    -0.473217576603E+03   -0.24823E-04   -0.26902E-06   880   0.394E-03    0.233E-03
DAV:  11    -0.473217602840E+03   -0.26236E-04   -0.24859E-06   888   0.310E-03    0.144E-03
DAV:  12    -0.473217619950E+03   -0.17110E-04   -0.15484E-06   928   0.217E-03    0.117E-03
DAV:  13    -0.473217635348E+03   -0.15398E-04   -0.17916E-06   920   0.204E-03    0.788E-04
DAV:  14    -0.473217639569E+03   -0.42217E-05   -0.65714E-07   928   0.133E-03
  58 F= -.47321764E+03 E0= -.47318526E+03  d E =-.574002E-01
 curvature: -24.13 expect dE=-0.574E+00 dE for cont linesearch -0.115E-02
 trial: gam= 0.53437 g(F)=  0.237E-01 g(S)=  0.807E-04 ort = 0.469E-02 (trialstep = 0.132E+01)
 search vector abs. value=  0.160E+00
 bond charge predicted
       N       E                     dE             d eps       ncg     rms          rms(c)
DAV:   1    -0.473235959231E+03   -0.18324E-01   -0.10183E+01  1344   0.862E+00    0.547E-01
DAV:   2    -0.473249439075E+03   -0.13480E-01   -0.17153E-01  1512   0.107E+00    0.365E-01
DAV:   3    -0.473248654636E+03    0.78444E-03   -0.58806E-03  1656   0.222E-01    0.227E-01
DAV:   4    -0.473248662293E+03   -0.76577E-05   -0.16015E-03  1516   0.123E-01    0.920E-02
DAV:   5    -0.473248762101E+03   -0.99808E-04   -0.45096E-04  1516   0.616E-02    0.306E-02
DAV:   6    -0.473248776937E+03   -0.14836E-04   -0.94533E-05  1424   0.252E-02    0.180E-02
DAV:   7    -0.473248780057E+03   -0.31194E-05   -0.14163E-05   884   0.105E-02
  59 F= -.47324878E+03 E0= -.47321625E+03  d E =-.311405E-01
 ZBRENT: can't locate minimum, use default step
 trial-energy change:   -0.031140  1 .order   -0.031066   -0.034675   -0.027457
 step:   5.2716(harm=  6.3309)  dis= 0.03928  next Energy=  -473.292649 (dE=-0.750E-01)
 bond charge predicted
       N       E                     dE             d eps       ncg     rms          rms(c)
DAV:   1    -0.473181529102E+03    0.67248E-01   -0.91644E+01  1344   0.259E+01    0.178E+00
DAV:   2    -0.473308406530E+03   -0.12688E+00   -0.15876E+00  1500   0.325E+00    0.110E+00
DAV:   3    -0.473300821353E+03    0.75852E-02   -0.53708E-02  1672   0.666E-01    0.716E-01
DAV:   4    -0.473299313444E+03    0.15079E-02   -0.13049E-02  1536   0.345E-01    0.302E-01
DAV:   5    -0.473300125294E+03   -0.81185E-03   -0.39320E-03  1564   0.176E-01    0.914E-02
DAV:   6    -0.473300259438E+03   -0.13414E-03   -0.91496E-04  1480   0.780E-02    0.538E-02
DAV:   7    -0.473300296294E+03   -0.36855E-04   -0.12427E-04  1448   0.299E-02    0.262E-02
DAV:   8    -0.473300350549E+03   -0.54256E-04   -0.32180E-05  1176   0.159E-02    0.776E-03
DAV:   9    -0.473300376673E+03   -0.26123E-04   -0.60130E-06   920   0.720E-03    0.417E-03
DAV:  10    -0.473300400791E+03   -0.24118E-04   -0.23880E-06   904   0.371E-03    0.203E-03
DAV:  11    -0.473300424098E+03   -0.23308E-04   -0.17364E-06   900   0.276E-03    0.123E-03
DAV:  12    -0.473300440169E+03   -0.16071E-04   -0.16262E-06   952   0.212E-03    0.118E-03
DAV:  13    -0.473300449766E+03   -0.95969E-05   -0.84555E-07   904   0.154E-03
  60 F= -.47330045E+03 E0= -.47326748E+03  d E =-.828102E-01
 curvature: -18.42 expect dE=-0.113E+01 dE for cont linesearch -0.304E-02
 ZBRENT: extrapolating
 opt :   6.5682  next Energy=  -473.303786 (dE=-0.861E-01)
 bond charge predicted
       N       E                     dE             d eps       ncg     rms          rms(c)
DAV:   1    -0.473291412041E+03    0.90281E-02   -0.98582E+00  1344   0.848E+00    0.540E-01
DAV:   2    -0.473304379396E+03   -0.12967E-01   -0.16561E-01  1500   0.105E+00    0.361E-01
DAV:   3    -0.473303666092E+03    0.71330E-03   -0.56499E-03  1668   0.219E-01    0.225E-01
DAV:   4    -0.473303652411E+03    0.13682E-04   -0.15002E-03  1508   0.122E-01    0.918E-02
DAV:   5    -0.473303743870E+03   -0.91459E-04   -0.37955E-04  1524   0.602E-02    0.296E-02
DAV:   6    -0.473303758763E+03   -0.14893E-04   -0.72270E-05  1372   0.232E-02    0.173E-02
DAV:   7    -0.473303762669E+03   -0.39066E-05   -0.11685E-05   884   0.999E-03
  61 F= -.47330376E+03 E0= -.47327065E+03  d E =-.861231E-01
 curvature: -20.19 expect dE=-0.194E+01 dE for cont linesearch -0.179E-05
 trial: gam= 4.24911 g(F)=  0.939E-01 g(S)=  0.222E-02 ort =-0.119E-03 (trialstep = 0.127E+00)
 search vector abs. value=  0.299E+01
 bond charge predicted
       N       E                     dE             d eps       ncg     rms          rms(c)
DAV:   1    -0.473313629078E+03   -0.98703E-02   -0.18051E+00  1376   0.360E+00    0.217E-01
DAV:   2    -0.473315883427E+03   -0.22543E-02   -0.28682E-02  1528   0.438E-01    0.148E-01
DAV:   3    -0.473315752313E+03    0.13111E-03   -0.90495E-04  1620   0.876E-02    0.920E-02
DAV:   4    -0.473315763369E+03   -0.11056E-04   -0.27710E-04  1496   0.511E-02    0.336E-02
DAV:   5    -0.473315782638E+03   -0.19270E-04   -0.58360E-05  1292   0.238E-02    0.117E-02
DAV:   6    -0.473315787605E+03   -0.49663E-05   -0.92088E-06   904   0.922E-03
  62 F= -.47331579E+03 E0= -.47328268E+03  d E =-.120249E-01
 ZBRENT: can't locate minimum, use default step
 trial-energy change:   -0.012025  1 .order   -0.011961   -0.012146   -0.011777
 step:   0.5079(harm=  4.1780)  dis= 0.01679  next Energy=  -473.503581 (dE=-0.200E+00)
 bond charge predicted
       N       E                     dE             d eps       ncg     rms          rms(c)
DAV:   1    -0.473329984319E+03   -0.14202E-01   -0.16226E+01  1376   0.108E+01    0.665E-01
DAV:   2    -0.473350385273E+03   -0.20401E-01   -0.25880E-01  1500   0.132E+00    0.444E-01
DAV:   3    -0.473349225804E+03    0.11595E-02   -0.81548E-03  1608   0.262E-01    0.278E-01
DAV:   4    -0.473349240563E+03   -0.14759E-04   -0.23885E-03  1556   0.149E-01    0.103E-01
DAV:   5    -0.473349396289E+03   -0.15573E-03   -0.52142E-04  1560   0.682E-02    0.351E-02
DAV:   6    -0.473349423625E+03   -0.27336E-04   -0.83303E-05  1432   0.253E-02    0.195E-02
DAV:   7    -0.473349435030E+03   -0.11404E-04   -0.12344E-05   880   0.107E-02    0.945E-03
DAV:   8    -0.473349450706E+03   -0.15676E-04   -0.68064E-06   912   0.708E-03    0.345E-03
DAV:   9    -0.473349458675E+03   -0.79685E-05   -0.14278E-06   912   0.329E-03
  63 F= -.47334946E+03 E0= -.47331636E+03  d E =-.456960E-01
 curvature: -11.70 expect dE=-0.944E+00 dE for cont linesearch -0.273E-01
 ZBRENT: increasing intervall
 opt :   1.2698  next Energy=  -473.406130 (dE=-0.102E+00)
 bond charge predicted
       N       E                     dE             d eps       ncg     rms          rms(c)
DAV:   1    -0.473325500834E+03    0.23950E-01   -0.64853E+01  1360   0.216E+01    0.140E+00
DAV:   2    -0.473410713883E+03   -0.85213E-01   -0.10645E+00  1476   0.266E+00    0.892E-01
DAV:   3    -0.473405748485E+03    0.49654E-02   -0.34146E-02  1608   0.531E-01    0.581E-01
DAV:   4    -0.473405037272E+03    0.71121E-03   -0.88695E-03  1556   0.286E-01    0.227E-01
DAV:   5    -0.473405651789E+03   -0.61452E-03   -0.20322E-03  1584   0.133E-01    0.735E-02
DAV:   6    -0.473405757993E+03   -0.10620E-03   -0.31628E-04  1464   0.503E-02    0.385E-02
DAV:   7    -0.473405795087E+03   -0.37094E-04   -0.48658E-05  1216   0.205E-02    0.184E-02
DAV:   8    -0.473405840327E+03   -0.45240E-04   -0.18912E-05   928   0.126E-02    0.591E-03
DAV:   9    -0.473405863687E+03   -0.23360E-04   -0.48836E-06   928   0.587E-03    0.384E-03
DAV:  10    -0.473405889458E+03   -0.25771E-04   -0.25284E-06   864   0.369E-03    0.183E-03
DAV:  11    -0.473405911906E+03   -0.22448E-04   -0.22637E-06   896   0.280E-03    0.148E-03
DAV:  12    -0.473405927241E+03   -0.15335E-04   -0.16731E-06   968   0.217E-03    0.141E-03
DAV:  13    -0.473405936677E+03   -0.94360E-05   -0.10192E-06   920   0.166E-03
  64 F= -.47340594E+03 E0= -.47337288E+03  d E =-.102174E+00
 curvature: -24.25 expect dE=-0.161E+01 dE for cont linesearch -0.338E-01
 ZBRENT: increasing intervall
 opt :   2.7935  next Energy=  -473.475184 (dE=-0.171E+00)
 bond charge predicted
       N       E                     dE             d eps       ncg     rms          rms(c)
DAV:   1    -0.473121643631E+03    0.28428E+00   -0.25920E+02  1344   0.432E+01    0.326E+00
DAV:   2    -0.473495716374E+03   -0.37407E+00   -0.45793E+00  1484   0.552E+00    0.184E+00
DAV:   3    -0.473475071818E+03    0.20645E-01   -0.14866E-01  1624   0.111E+00    0.131E+00
DAV:   4    -0.473468913102E+03    0.61587E-02   -0.31951E-02  1552   0.560E-01    0.592E-01
DAV:   5    -0.473470520697E+03   -0.16076E-02   -0.92906E-03  1536   0.321E-01    0.172E-01
DAV:   6    -0.473471080975E+03   -0.56028E-03   -0.17633E-03  1480   0.125E-01    0.877E-02
DAV:   7    -0.473471197907E+03   -0.11693E-03   -0.21148E-04  1464   0.442E-02    0.391E-02
DAV:   8    -0.473471326183E+03   -0.12828E-03   -0.75908E-05  1424   0.249E-02    0.111E-02
DAV:   9    -0.473471388143E+03   -0.61961E-04   -0.11571E-05   944   0.983E-03    0.660E-03
DAV:  10    -0.473471466672E+03   -0.78529E-04   -0.82520E-06   920   0.610E-03    0.288E-03
DAV:  11    -0.473471532418E+03   -0.65746E-04   -0.59014E-06   952   0.447E-03    0.218E-03
DAV:  12    -0.473471567974E+03   -0.35556E-04   -0.36988E-06   944   0.326E-03    0.178E-03
DAV:  13    -0.473471593868E+03   -0.25894E-04   -0.36671E-06   924   0.270E-03    0.113E-03
DAV:  14    -0.473471604546E+03   -0.10678E-04   -0.17996E-06   936   0.203E-03    0.728E-04
DAV:  15    -0.473471609009E+03   -0.44631E-05   -0.85696E-07   952   0.136E-03
  65 F= -.47347161E+03 E0= -.47343871E+03  d E =-.167846E+00
 curvature: -49.74 expect dE=-0.360E+01 dE for cont linesearch -0.719E-02
 ZBRENT: extrapolating
 opt :   3.5181  next Energy=  -473.479141 (dE=-0.175E+00)
 bond charge predicted
       N       E                     dE             d eps       ncg     rms          rms(c)
DAV:   1    -0.473406213328E+03    0.65391E-01   -0.58587E+01  1360   0.205E+01    0.134E+00
DAV:   2    -0.473482448271E+03   -0.76235E-01   -0.95607E-01  1448   0.252E+00    0.850E-01
DAV:   3    -0.473478132142E+03    0.43161E-02   -0.30709E-02  1632   0.504E-01    0.555E-01
DAV:   4    -0.473477524697E+03    0.60744E-03   -0.77965E-03  1544   0.270E-01    0.224E-01
DAV:   5    -0.473478153584E+03   -0.62889E-03   -0.19073E-03  1632   0.128E-01    0.694E-02
DAV:   6    -0.473478239996E+03   -0.86412E-04   -0.33900E-04  1472   0.495E-02    0.380E-02
DAV:   7    -0.473478271271E+03   -0.31275E-04   -0.50728E-05  1080   0.207E-02    0.173E-02
DAV:   8    -0.473478308552E+03   -0.37280E-04   -0.20937E-05   960   0.125E-02    0.595E-03
DAV:   9    -0.473478331086E+03   -0.22534E-04   -0.44045E-06   888   0.574E-03    0.341E-03
DAV:  10    -0.473478357491E+03   -0.26405E-04   -0.28201E-06   908   0.362E-03    0.152E-03
DAV:  11    -0.473478375169E+03   -0.17677E-04   -0.17299E-06   900   0.262E-03    0.147E-03
DAV:  12    -0.473478385068E+03   -0.98990E-05   -0.11123E-06   920   0.180E-03
  66 F= -.47347839E+03 E0= -.47344560E+03  d E =-.174622E+00
 curvature: -52.08 expect dE=-0.485E+01 dE for cont linesearch -0.983E-04
 trial: gam= 0.62802 g(F)=  0.922E-01 g(S)=  0.890E-03 ort =-0.238E-02 (trialstep = 0.805E+00)
 search vector abs. value=  0.127E+01
 bond charge predicted
       N       E                     dE             d eps       ncg     rms          rms(c)
DAV:   1    -0.473507871729E+03   -0.29497E-01   -0.31150E+01  1360   0.150E+01    0.948E-01
DAV:   2    -0.473547013071E+03   -0.39141E-01   -0.49913E-01  1464   0.184E+00    0.609E-01
DAV:   3    -0.473544603008E+03    0.24101E-02   -0.16616E-02  1596   0.376E-01    0.385E-01
DAV:   4    -0.473544497232E+03    0.10578E-03   -0.42942E-03  1524   0.208E-01    0.168E-01
DAV:   5    -0.473544870018E+03   -0.37279E-03   -0.10805E-03  1524   0.108E-01    0.507E-02
DAV:   6    -0.473544936989E+03   -0.66972E-04   -0.22526E-04  1492   0.432E-02    0.289E-02
DAV:   7    -0.473544952739E+03   -0.15750E-04   -0.28024E-05   988   0.168E-02    0.142E-02
DAV:   8    -0.473544974394E+03   -0.21654E-04   -0.12238E-05   924   0.993E-03    0.485E-03
DAV:   9    -0.473544984728E+03   -0.10334E-04   -0.25567E-06   912   0.439E-03    0.264E-03
DAV:  10    -0.473544996789E+03   -0.12061E-04   -0.12478E-06   872   0.263E-03    0.112E-03
DAV:  11    -0.473545006336E+03   -0.95468E-05   -0.92717E-07   908   0.189E-03
  67 F= -.47354501E+03 E0= -.47351241E+03  d E =-.666213E-01
 ZBRENT: can't locate minimum, use default step
 trial-energy change:   -0.066621  1 .order   -0.066732   -0.073716   -0.059748
 step:   3.2208(harm=  4.2496)  dis= 0.07478  next Energy=  -473.672910 (dE=-0.195E+00)
 bond charge predicted
       N       E                     dE             d eps       ncg     rms          rms(c)
DAV:   1    -0.473294790784E+03    0.25021E+00   -0.28000E+02  1360   0.449E+01    0.348E+00
DAV:   2    -0.473689429169E+03   -0.39464E+00   -0.49009E+00  1492   0.576E+00    0.189E+00
DAV:   3    -0.473665596522E+03    0.23833E-01   -0.15826E-01  1592   0.115E+00    0.135E+00
DAV:   4    -0.473659404935E+03    0.61916E-02   -0.34578E-02  1568   0.565E-01    0.631E-01
DAV:   5    -0.473661265340E+03   -0.18604E-02   -0.95478E-03  1616   0.308E-01    0.171E-01
DAV:   6    -0.473661824097E+03   -0.55876E-03   -0.24327E-03  1528   0.139E-01    0.924E-02
DAV:   7    -0.473661954902E+03   -0.13080E-03   -0.30269E-04  1468   0.480E-02    0.458E-02
DAV:   8    -0.473662093413E+03   -0.13851E-03   -0.84962E-05  1368   0.257E-02    0.120E-02
DAV:   9    -0.473662162454E+03   -0.69041E-04   -0.13969E-05   984   0.106E-02    0.686E-03
DAV:  10    -0.473662229777E+03   -0.67324E-04   -0.61730E-06   948   0.565E-03    0.304E-03
DAV:  11    -0.473662291513E+03   -0.61736E-04   -0.52717E-06   968   0.435E-03    0.209E-03
DAV:  12    -0.473662328472E+03   -0.36959E-04   -0.39496E-06   976   0.314E-03    0.170E-03
DAV:  13    -0.473662360580E+03   -0.32108E-04   -0.48612E-06   948   0.315E-03    0.968E-04
DAV:  14    -0.473662368563E+03   -0.79826E-05   -0.16123E-06   960   0.206E-03
  68 F= -.47366237E+03 E0= -.47363026E+03  d E =-.183983E+00
 curvature: -26.82 expect dE=-0.242E+01 dE for cont linesearch -0.109E-01
 ZBRENT: extrapolating
 opt :   4.2870  next Energy=  -473.674482 (dE=-0.196E+00)
 bond charge predicted
       N       E                     dE             d eps       ncg     rms          rms(c)
DAV:   1    -0.473609123472E+03    0.53237E-01   -0.54540E+01  1360   0.198E+01    0.130E+00
DAV:   2    -0.473678003161E+03   -0.68880E-01   -0.88018E-01  1488   0.244E+00    0.805E-01
DAV:   3    -0.473673872472E+03    0.41307E-02   -0.29249E-02  1592   0.498E-01    0.523E-01
DAV:   4    -0.473673534084E+03    0.33839E-03   -0.73408E-03  1556   0.270E-01    0.236E-01
DAV:   5    -0.473674147849E+03   -0.61376E-03   -0.19675E-03  1560   0.144E-01    0.700E-02
DAV:   6    -0.473674263956E+03   -0.11611E-03   -0.44376E-04  1512   0.615E-02    0.396E-02
[...]
 trial-energy change:   -0.001129  1 .order   -0.001054   -0.001182   -0.000926
 step:   5.0594(harm=  5.8330)  dis= 0.01663  next Energy=  -478.256616 (dE=-0.273E-02)
 bond charge predicted
       N       E                     dE             d eps       ncg     rms          rms(c)
DAV:   1    -0.478248031177E+03    0.69852E-02   -0.69028E+00  1376   0.721E+00    0.472E-01
DAV:   2    -0.478256722522E+03   -0.86913E-02   -0.11626E-01  1492   0.889E-01    0.303E-01
DAV:   3    -0.478256208309E+03    0.51421E-03   -0.37029E-03  1548   0.186E-01    0.183E-01
DAV:   4    -0.478256336794E+03   -0.12849E-03   -0.10902E-03  1512   0.106E-01    0.674E-02
DAV:   5    -0.478256425960E+03   -0.89165E-04   -0.20623E-04  1584   0.472E-02    0.233E-02
DAV:   6    -0.478256438005E+03   -0.12045E-04   -0.27167E-05  1056   0.167E-02    0.122E-02
DAV:   7    -0.478256442278E+03   -0.42735E-05   -0.55873E-06   832   0.762E-03
 359 F= -.47825644E+03 E0= -.47823691E+03  d E =-.255304E-02
 curvature: -41.11 expect dE=-0.882E-01 dE for cont linesearch -0.382E-05
 trial: gam= 2.02548 g(F)=  0.200E-02 g(S)=  0.140E-03 ort =-0.355E-04 (trialstep = 0.476E+00)
 search vector abs. value=  0.577E-01
 bond charge predicted
       N       E                     dE             d eps       ncg     rms          rms(c)
DAV:   1    -0.478256811638E+03   -0.37363E-03   -0.46335E-01  1376   0.186E+00    0.118E-01
DAV:   2    -0.478257402186E+03   -0.59055E-03   -0.77469E-03  1452   0.229E-01    0.778E-02
DAV:   3    -0.478257366328E+03    0.35858E-04   -0.23803E-04  1568   0.470E-02    0.468E-02
DAV:   4    -0.478257380534E+03   -0.14206E-04   -0.75782E-05  1452   0.280E-02    0.158E-02
DAV:   5    -0.478257387411E+03   -0.68770E-05   -0.14684E-05   908   0.127E-02
 360 F= -.47825739E+03 E0= -.47823784E+03  d E =-.945133E-03
 ZBRENT: can't locate minimum, use default step
 trial-energy change:   -0.000945  1 .order   -0.000914   -0.000987   -0.000841
 step:   1.9047(harm=  3.2148)  dis= 0.01309  next Energy=  -478.259773 (dE=-0.333E-02)
 bond charge predicted
       N       E                     dE             d eps       ncg     rms          rms(c)
DAV:   1    -0.478254193132E+03    0.31874E-02   -0.41651E+00  1376   0.559E+00    0.358E-01
DAV:   2    -0.478259557841E+03   -0.53647E-02   -0.69698E-02  1456   0.688E-01    0.233E-01
DAV:   3    -0.478259235340E+03    0.32250E-03   -0.21417E-03  1556   0.141E-01    0.141E-01
DAV:   4    -0.478259323199E+03   -0.87859E-04   -0.66408E-04  1484   0.829E-02    0.497E-02
DAV:   5    -0.478259376772E+03   -0.53573E-04   -0.14100E-04  1556   0.379E-02    0.185E-02
DAV:   6    -0.478259385210E+03   -0.84378E-05   -0.17836E-05   888   0.130E-02
 361 F= -.47825939E+03 E0= -.47823980E+03  d E =-.294293E-02
 curvature: -34.49 expect dE=-0.424E-01 dE for cont linesearch -0.451E-03
 ZBRENT: increasing intervall
 opt :   4.7618  next Energy=  -478.259303 (dE=-0.286E-02)
 bond charge predicted
       N       E                     dE             d eps       ncg     rms          rms(c)
DAV:   1    -0.478238615131E+03    0.20762E-01   -0.16656E+01  1376   0.112E+01    0.732E-01
DAV:   2    -0.478260498952E+03   -0.21884E-01   -0.28160E-01  1456   0.138E+00    0.469E-01
DAV:   3    -0.478259179082E+03    0.13199E-02   -0.86629E-03  1556   0.285E-01    0.290E-01
DAV:   4    -0.478259322043E+03   -0.14296E-03   -0.26086E-03  1480   0.165E-01    0.108E-01
DAV:   5    -0.478259538907E+03   -0.21686E-03   -0.57292E-04  1564   0.777E-02    0.380E-02
DAV:   6    -0.478259576188E+03   -0.37281E-04   -0.84554E-05  1400   0.266E-02    0.199E-02
DAV:   7    -0.478259584136E+03   -0.79479E-05   -0.11910E-05   844   0.116E-02
 362 F= -.47825958E+03 E0= -.47823991E+03  d E =-.314186E-02
 curvature:   6.27 expect dE= 0.273E-01 dE for cont linesearch  0.862E-04
 ZBRENT: bracketing found
 ZBRENT: interpolating
 opt :   3.3153  next Energy=  -478.259998 (dE=-0.356E-02)
 bond charge predicted
       N       E                     dE             d eps       ncg     rms          rms(c)
DAV:   1    -0.478254825238E+03    0.47509E-02   -0.42661E+00  1376   0.566E+00    0.357E-01
DAV:   2    -0.478260274470E+03   -0.54492E-02   -0.70789E-02  1456   0.694E-01    0.236E-01
DAV:   3    -0.478259953078E+03    0.32139E-03   -0.21839E-03  1568   0.142E-01    0.141E-01
DAV:   4    -0.478260057367E+03   -0.10429E-03   -0.69015E-04  1464   0.840E-02    0.462E-02
DAV:   5    -0.478260113035E+03   -0.55669E-04   -0.14726E-04  1528   0.371E-02    0.185E-02
DAV:   6    -0.478260119994E+03   -0.69589E-05   -0.17809E-05   928   0.126E-02
 363 F= -.47826012E+03 E0= -.47824050E+03  d E =-.367772E-02
 curvature: -44.54 expect dE=-0.931E-01 dE for cont linesearch -0.232E-04
 trial: gam= 0.82566 g(F)=  0.208E-02 g(S)=  0.772E-05 ort = 0.173E-03 (trialstep = 0.104E+01)
 search vector abs. value=  0.417E-01
 bond charge predicted
       N       E                     dE             d eps       ncg     rms          rms(c)
DAV:   1    -0.478260033643E+03    0.79393E-04   -0.15797E+00  1376   0.345E+00    0.222E-01
DAV:   2    -0.478262049424E+03   -0.20158E-02   -0.26598E-02  1444   0.427E-01    0.146E-01
DAV:   3    -0.478261917719E+03    0.13171E-03   -0.88654E-04  1560   0.904E-02    0.870E-02
DAV:   4    -0.478261949573E+03   -0.31854E-04   -0.27031E-04  1468   0.527E-02    0.319E-02
DAV:   5    -0.478261969258E+03   -0.19684E-04   -0.61366E-05  1308   0.245E-02    0.119E-02
DAV:   6    -0.478261972452E+03   -0.31938E-05   -0.90360E-06   864   0.905E-03
 364 F= -.47826197E+03 E0= -.47824233E+03  d E =-.185246E-02
 trial-energy change:   -0.001852  1 .order   -0.001868   -0.002332   -0.001403
 step:   2.6217(harm=  2.6217)  dis= 0.01422  next Energy=  -478.263048 (dE=-0.293E-02)
 bond charge predicted
       N       E                     dE             d eps       ncg     rms          rms(c)
DAV:   1    -0.478258677040E+03    0.32922E-02   -0.36143E+00  1376   0.522E+00    0.339E-01
DAV:   2    -0.478263381613E+03   -0.47046E-02   -0.61321E-02  1428   0.647E-01    0.221E-01
DAV:   3    -0.478263090555E+03    0.29106E-03   -0.20292E-03  1560   0.137E-01    0.133E-01
DAV:   4    -0.478263152579E+03   -0.62024E-04   -0.62166E-04  1480   0.802E-02    0.495E-02
DAV:   5    -0.478263199785E+03   -0.47206E-04   -0.14512E-04  1564   0.377E-02    0.184E-02
DAV:   6    -0.478263208276E+03   -0.84905E-05   -0.19988E-05   912   0.133E-02
 365 F= -.47826321E+03 E0= -.47824353E+03  d E =-.308828E-02
 curvature: -24.46 expect dE=-0.306E-01 dE for cont linesearch -0.640E-05
 trial: gam= 0.57642 g(F)=  0.124E-02 g(S)=  0.149E-04 ort = 0.104E-03 (trialstep = 0.136E+01)
 search vector abs. value=  0.152E-01
 bond charge predicted
       N       E                     dE             d eps       ncg     rms          rms(c)
DAV:   1    -0.478263377551E+03   -0.17777E-03   -0.98311E-01  1376   0.273E+00    0.176E-01
DAV:   2    -0.478264674489E+03   -0.12969E-02   -0.16886E-02  1476   0.339E-01    0.114E-01
DAV:   3    -0.478264603269E+03    0.71220E-04   -0.53916E-04  1540   0.713E-02    0.685E-02
DAV:   4    -0.478264630277E+03   -0.27008E-04   -0.16061E-04  1484   0.407E-02    0.247E-02
DAV:   5    -0.478264644500E+03   -0.14224E-04   -0.27640E-05  1008   0.178E-02    0.884E-03
DAV:   6    -0.478264648131E+03   -0.36309E-05   -0.57534E-06   836   0.679E-03
 366 F= -.47826465E+03 E0= -.47824496E+03  d E =-.143986E-02
 trial-energy change:   -0.001440  1 .order   -0.001382   -0.001782   -0.000983
 step:   2.3226(harm=  3.0320)  dis= 0.00733  next Energy=  -478.265017 (dE=-0.181E-02)
 bond charge predicted
       N       E                     dE             d eps       ncg     rms          rms(c)
DAV:   1    -0.478264537274E+03    0.10723E-03   -0.49314E-01  1376   0.193E+00    0.124E-01
DAV:   2    -0.478265185199E+03   -0.64792E-03   -0.84627E-03  1472   0.240E-01    0.806E-02
DAV:   3    -0.478265147794E+03    0.37404E-04   -0.26684E-04  1544   0.503E-02    0.483E-02
DAV:   4    -0.478265161718E+03   -0.13924E-04   -0.81253E-05  1476   0.288E-02    0.173E-02
DAV:   5    -0.478265168778E+03   -0.70599E-05   -0.13717E-05   916   0.125E-02
 367 F= -.47826517E+03 E0= -.47824547E+03  d E =-.196050E-02
 curvature: -14.44 expect dE=-0.102E-01 dE for cont linesearch -0.778E-04
 ZBRENT: increasing intervall
 opt :   4.2487  next Energy=  -478.264879 (dE=-0.167E-02)
 bond charge predicted
       N       E                     dE             d eps       ncg     rms          rms(c)
DAV:   1    -0.478262479854E+03    0.26819E-02   -0.19704E+00  1376   0.386E+00    0.249E-01
DAV:   2    -0.478265069463E+03   -0.25896E-02   -0.33738E-02  1492   0.479E-01    0.161E-01
DAV:   3    -0.478264913663E+03    0.15580E-03   -0.10638E-03  1516   0.101E-01    0.964E-02
DAV:   4    -0.478264957476E+03   -0.43814E-04   -0.32242E-04  1488   0.573E-02    0.347E-02
DAV:   5    -0.478264982706E+03   -0.25230E-04   -0.59164E-05  1380   0.249E-02    0.127E-02
DAV:   6    -0.478264986389E+03   -0.36835E-05   -0.84624E-06   852   0.892E-03
 368 F= -.47826499E+03 E0= -.47824526E+03  d E =-.177811E-02
 curvature:  53.73 expect dE= 0.141E+00 dE for cont linesearch  0.104E-02
 ZBRENT: bracketing found
 ZBRENT: interpolating
 opt :   2.9885  next Energy=  -478.265264 (dE=-0.206E-02)
 bond charge predicted
       N       E                     dE             d eps       ncg     rms          rms(c)
DAV:   1    -0.478264240282E+03    0.74242E-03   -0.84223E-01  1376   0.253E+00    0.161E-01
DAV:   2    -0.478265327619E+03   -0.10873E-02   -0.14344E-02  1464   0.313E-01    0.106E-01
DAV:   3    -0.478265260632E+03    0.66988E-04   -0.45839E-04  1544   0.656E-02    0.628E-02
DAV:   4    -0.478265282862E+03   -0.22230E-04   -0.13735E-04  1468   0.375E-02    0.224E-02
DAV:   5    -0.478265293858E+03   -0.10996E-04   -0.23358E-05  1000   0.161E-02    0.810E-03
DAV:   6    -0.478265295456E+03   -0.15973E-05   -0.47437E-06   856   0.619E-03
 369 F= -.47826530E+03 E0= -.47824559E+03  d E =-.208718E-02
 curvature:  -4.94 expect dE=-0.557E-02 dE for cont linesearch -0.124E-05
 trial: gam= 0.97834 g(F)=  0.112E-02 g(S)=  0.311E-05 ort = 0.619E-04 (trialstep = 0.162E+01)
 search vector abs. value=  0.158E-01
 bond charge predicted
       N       E                     dE             d eps       ncg     rms          rms(c)
DAV:   1    -0.478264934642E+03    0.35922E-03   -0.14499E+00  1376   0.331E+00    0.217E-01
DAV:   2    -0.478266766007E+03   -0.18314E-02   -0.24845E-02  1512   0.413E-01    0.139E-01
DAV:   3    -0.478266657598E+03    0.10841E-03   -0.88246E-04  1560   0.904E-02    0.840E-02
DAV:   4    -0.478266683451E+03   -0.25853E-04   -0.22733E-04  1484   0.482E-02    0.351E-02
DAV:   5    -0.478266703944E+03   -0.20493E-04   -0.51297E-05  1300   0.232E-02    0.111E-02
DAV:   6    -0.478266707087E+03   -0.31431E-05   -0.89850E-06   840   0.916E-03
 370 F= -.47826671E+03 E0= -.47824689E+03  d E =-.141163E-02
 trial-energy change:   -0.001412  1 .order   -0.001414   -0.001927   -0.000900
 step:   3.0443(harm=  3.0443)  dis= 0.00988  next Energy=  -478.267104 (dE=-0.181E-02)
 bond charge predicted
       N       E                     dE             d eps       ncg     rms          rms(c)
DAV:   1    -0.478265761809E+03    0.94213E-03   -0.11173E+00  1376   0.290E+00    0.191E-01
DAV:   2    -0.478267186630E+03   -0.14248E-02   -0.19221E-02  1516   0.363E-01    0.122E-01
DAV:   3    -0.478267108514E+03    0.78116E-04   -0.67726E-04  1552   0.792E-02    0.740E-02
DAV:   4    -0.478267131318E+03   -0.22804E-04   -0.17548E-04  1488   0.424E-02    0.309E-02
DAV:   5    -0.478267147441E+03   -0.16123E-04   -0.38075E-05  1096   0.204E-02    0.974E-03
DAV:   6    -0.478267150659E+03   -0.32177E-05   -0.79019E-06   856   0.831E-03
 371 F= -.47826715E+03 E0= -.47824723E+03  d E =-.185520E-02
 curvature: -20.27 expect dE=-0.185E-01 dE for cont linesearch -0.621E-06
 trial: gam= 0.73658 g(F)=  0.907E-03 g(S)=  0.498E-05 ort = 0.220E-04 (trialstep = 0.191E+01)
 search vector abs. value=  0.953E-02
 bond charge predicted
       N       E                     dE             d eps       ncg     rms          rms(c)
DAV:   1    -0.478266909144E+03    0.23830E-03   -0.12296E+00  1376   0.304E+00    0.197E-01
DAV:   2    -0.478268498970E+03   -0.15898E-02   -0.20734E-02  1400   0.378E-01    0.127E-01
DAV:   3    -0.478268407232E+03    0.91738E-04   -0.74104E-04  1576   0.818E-02    0.754E-02
DAV:   4    -0.478268427566E+03   -0.20335E-04   -0.18820E-04  1472   0.446E-02    0.288E-02
DAV:   5    -0.478268442984E+03   -0.15418E-04   -0.37890E-05  1180   0.195E-02    0.100E-02
DAV:   6    -0.478268445604E+03   -0.26197E-05   -0.64369E-06   868   0.749E-03
 372 F= -.47826845E+03 E0= -.47824850E+03  d E =-.129495E-02
 trial-energy change:   -0.001295  1 .order   -0.001256   -0.001769   -0.000744
 step:   3.2895(harm=  3.2895)  dis= 0.00791  next Energy=  -478.268677 (dE=-0.153E-02)
 bond charge predicted
       N       E                     dE             d eps       ncg     rms          rms(c)
DAV:   1    -0.478267940595E+03    0.50239E-03   -0.64778E-01  1376   0.221E+00    0.143E-01
DAV:   2    -0.478268779460E+03   -0.83886E-03   -0.10936E-02  1404   0.275E-01    0.923E-02
DAV:   3    -0.478268730129E+03    0.49331E-04   -0.38912E-04  1576   0.593E-02    0.548E-02
DAV:   4    -0.478268741008E+03   -0.10879E-04   -0.10032E-04  1460   0.326E-02    0.208E-02
DAV:   5    -0.478268749403E+03   -0.83949E-05   -0.19470E-05  1000   0.142E-02
 373 F= -.47826875E+03 E0= -.47824878E+03  d E =-.159874E-02
 curvature: -16.88 expect dE=-0.156E-01 dE for cont linesearch -0.177E-08
 trial: gam= 1.03590 g(F)=  0.920E-03 g(S)=  0.456E-05 ort =-0.999E-06 (trialstep = 0.187E+01)
 search vector abs. value=  0.111E-01
 bond charge predicted
       N       E                     dE             d eps       ncg     rms          rms(c)
DAV:   1    -0.478268434373E+03    0.30664E-03   -0.13869E+00  1376   0.321E+00    0.204E-01
DAV:   2    -0.478270205648E+03   -0.17713E-02   -0.22813E-02  1428   0.396E-01    0.132E-01
DAV:   3    -0.478270101507E+03    0.10414E-03   -0.72517E-04  1568   0.820E-02    0.791E-02
DAV:   4    -0.478270129979E+03   -0.28471E-04   -0.22869E-04  1472   0.489E-02    0.273E-02
DAV:   5    -0.478270145926E+03   -0.15947E-04   -0.43269E-05  1200   0.216E-02    0.109E-02
DAV:   6    -0.478270148748E+03   -0.28226E-05   -0.62936E-06   880   0.804E-03
 374 F= -.47827015E+03 E0= -.47825002E+03  d E =-.139935E-02
 trial-energy change:   -0.001399  1 .order   -0.001340   -0.001723   -0.000958
 step:   3.1738(harm=  4.2020)  dis= 0.00869  next Energy=  -478.270505 (dE=-0.176E-02)
 bond charge predicted
       N       E                     dE             d eps       ncg     rms          rms(c)
DAV:   1    -0.478269817666E+03    0.32826E-03   -0.68224E-01  1376   0.225E+00    0.143E-01
DAV:   2    -0.478270687066E+03   -0.86940E-03   -0.11239E-02  1420   0.278E-01    0.932E-02
DAV:   3    -0.478270636716E+03    0.50350E-04   -0.36613E-04  1568   0.578E-02    0.558E-02
DAV:   4    -0.478270651587E+03   -0.14871E-04   -0.11360E-04  1484   0.348E-02    0.192E-02
DAV:   5    -0.478270659435E+03   -0.78485E-05   -0.21153E-05   992   0.155E-02
 375 F= -.47827066E+03 E0= -.47825042E+03  d E =-.191003E-02
 curvature: -20.44 expect dE=-0.143E-01 dE for cont linesearch -0.790E-04
 ZBRENT: increasing intervall
 opt :   5.7897  next Energy=  -478.270403 (dE=-0.165E-02)
 bond charge predicted
       N       E                     dE             d eps       ncg     rms          rms(c)
DAV:   1    -0.478267160458E+03    0.34911E-02   -0.27256E+00  1376   0.450E+00    0.287E-01
DAV:   2    -0.478270649873E+03   -0.34894E-02   -0.44876E-02  1432   0.555E-01    0.186E-01
DAV:   3    -0.478270436007E+03    0.21387E-03   -0.14255E-03  1564   0.115E-01    0.111E-01
DAV:   4    -0.478270482155E+03   -0.46148E-04   -0.44870E-04  1484   0.683E-02    0.385E-02
DAV:   5    -0.478270513280E+03   -0.31125E-04   -0.86440E-05  1468   0.300E-02    0.154E-02
DAV:   6    -0.478270518349E+03   -0.50690E-05   -0.10794E-05   872   0.108E-02
 376 F= -.47827052E+03 E0= -.47825004E+03  d E =-.176895E-02
 curvature:  66.46 expect dE= 0.155E+00 dE for cont linesearch  0.867E-03
 ZBRENT: bracketing found
 ZBRENT: interpolating
 opt :   4.0960  next Energy=  -478.270755 (dE=-0.201E-02)
 bond charge predicted
       N       E                     dE             d eps       ncg     rms          rms(c)
DAV:   1    -0.478269416535E+03    0.10967E-02   -0.11409E+00  1376   0.291E+00    0.183E-01
DAV:   2    -0.478270851615E+03   -0.14351E-02   -0.18650E-02  1420   0.359E-01    0.121E-01
DAV:   3    -0.478270759351E+03    0.92264E-04   -0.59891E-04  1568   0.742E-02    0.718E-02
DAV:   4    -0.478270779217E+03   -0.19867E-04   -0.19068E-04  1456   0.449E-02    0.244E-02
DAV:   5    -0.478270791603E+03   -0.12386E-04   -0.36305E-05  1084   0.201E-02    0.986E-03
DAV:   6    -0.478270793998E+03   -0.23947E-05   -0.57531E-06   876   0.738E-03
 377 F= -.47827079E+03 E0= -.47825047E+03  d E =-.204460E-02
 curvature:  -7.34 expect dE=-0.802E-02 dE for cont linesearch -0.259E-05
 trial: gam= 1.17858 g(F)=  0.107E-02 g(S)=  0.204E-04 ort = 0.627E-04 (trialstep = 0.154E+01)
 search vector abs. value=  0.167E-01
 bond charge predicted
       N       E                     dE             d eps       ncg     rms          rms(c)
DAV:   1    -0.478270436267E+03    0.35534E-03   -0.14160E+00  1376   0.324E+00    0.208E-01
DAV:   2    -0.478272199823E+03   -0.17636E-02   -0.23343E-02  1432   0.403E-01    0.135E-01
DAV:   3    -0.478272093066E+03    0.10676E-03   -0.81624E-04  1560   0.862E-02    0.817E-02
DAV:   4    -0.478272112795E+03   -0.19729E-04   -0.23845E-04  1480   0.501E-02    0.321E-02
DAV:   5    -0.478272130790E+03   -0.17995E-04   -0.59663E-05  1276   0.239E-02    0.116E-02
DAV:   6    -0.478272133900E+03   -0.31098E-05   -0.92200E-06   856   0.909E-03
 378 F= -.47827213E+03 E0= -.47825172E+03  d E =-.133990E-02
 trial-energy change:   -0.001340  1 .order   -0.001343   -0.001799   -0.000888
 step:   3.0425(harm=  3.0425)  dis= 0.01018  next Energy=  -478.272570 (dE=-0.178E-02)
 bond charge predicted
       N       E                     dE             d eps       ncg     rms          rms(c)
DAV:   1    -0.478271022442E+03    0.11083E-02   -0.13471E+00  1376   0.316E+00    0.204E-01
DAV:   2    -0.478272722486E+03   -0.17000E-02   -0.22322E-02  1408   0.393E-01    0.132E-01
DAV:   3    -0.478272627443E+03    0.95043E-04   -0.77485E-04  1560   0.840E-02    0.801E-02
DAV:   4    -0.478272650355E+03   -0.22912E-04   -0.22725E-04  1488   0.489E-02    0.315E-02
DAV:   5    -0.478272667657E+03   -0.17302E-04   -0.56809E-05  1276   0.234E-02    0.114E-02
DAV:   6    -0.478272671098E+03   -0.34418E-05   -0.88669E-06   864   0.889E-03
 379 F= -.47827267E+03 E0= -.47825217E+03  d E =-.187710E-02
 curvature: -21.79 expect dE=-0.186E-01 dE for cont linesearch -0.960E-05
 trial: gam= 0.71721 g(F)=  0.852E-03 g(S)=  0.315E-05 ort = 0.858E-04 (trialstep = 0.184E+01)
 search vector abs. value=  0.958E-02
 bond charge predicted
       N       E                     dE             d eps       ncg     rms          rms(c)
DAV:   1    -0.478272520671E+03    0.14699E-03   -0.11633E+00  1376   0.294E+00    0.184E-01
DAV:   2    -0.478273993987E+03   -0.14733E-02   -0.18933E-02  1428   0.361E-01    0.120E-01
DAV:   3    -0.478273912714E+03    0.81273E-04   -0.61395E-04  1580   0.746E-02    0.715E-02
DAV:   4    -0.478273934918E+03   -0.22204E-04   -0.17492E-04  1492   0.435E-02    0.238E-02
DAV:   5    -0.478273947458E+03   -0.12540E-04   -0.34401E-05  1060   0.188E-02    0.938E-03
DAV:   6    -0.478273949414E+03   -0.19564E-05   -0.56455E-06   856   0.684E-03
 380 F= -.47827395E+03 E0= -.47825351E+03  d E =-.127832E-02
 trial-energy change:   -0.001278  1 .order   -0.001233   -0.001688   -0.000777
 step:   2.9086(harm=  3.4125)  dis= 0.00707  next Energy=  -478.274184 (dE=-0.151E-02)
 reached required accuracy - stopping structural energy minimisation
