       N       E                     dE             d eps       ncg     rms          rms(c)
DAV:   1     0.258467514845E+04    0.25847E+04   -0.94747E+04  1544   0.102E+03
DAV:   2     0.589932059575E+02   -0.25257E+04   -0.23971E+04  1928   0.293E+02
DAV:   3    -0.489306882903E+03   -0.54830E+03   -0.53737E+03  1664   0.151E+02
DAV:   4    -0.515856566029E+03   -0.26550E+02   -0.25434E+02  1840   0.436E+01
DAV:   5    -0.516921975906E+03   -0.10654E+01   -0.10375E+01  1976   0.710E+00    0.584E+01
DAV:   6    -0.572718296234E+03   -0.55796E+02   -0.38329E+02  1992   0.100E+02    0.146E+02
DAV:   7    -0.542221223892E+03    0.30497E+02   -0.85080E+01  1888   0.592E+01    0.940E+01
DAV:   8    -0.484577310047E+03    0.57644E+02   -0.11793E+02  1976   0.175E+02    0.359E+01
DAV:   9    -0.493503598229E+03   -0.89263E+01   -0.83724E+01  1720   0.473E+01    0.440E+01
DAV:  10    -0.483165741288E+03    0.10338E+02   -0.31213E+01  2000   0.430E+01    0.205E+01
DAV:  11    -0.478460527501E+03    0.47052E+01   -0.12985E+01  2136   0.276E+01    0.138E+01
DAV:  12    -0.477748875911E+03    0.71165E+00   -0.69745E+00  2040   0.190E+01    0.117E+01
DAV:  13    -0.476531576028E+03    0.12173E+01   -0.32969E+00  1984   0.112E+01    0.564E+00
DAV:  14    -0.476441264928E+03    0.90311E-01   -0.78153E-01  2016   0.354E+00    0.356E+00
DAV:  15    -0.476452599827E+03   -0.11335E-01   -0.66181E-01  2112   0.248E+00    0.448E+00
DAV:  16    -0.476384549150E+03    0.68051E-01   -0.51771E-01  1960   0.193E+00    0.181E+00
DAV:  17    -0.476381491566E+03    0.30576E-02   -0.27393E-02  1776   0.625E-01    0.125E+00
DAV:  18    -0.476376597659E+03    0.48939E-02   -0.11182E-02  1896   0.438E-01    0.677E-01
DAV:  19    -0.476377740606E+03   -0.11429E-02   -0.31887E-03  1728   0.187E-01    0.456E-01
DAV:  20    -0.476381030823E+03   -0.32902E-02   -0.23020E-03  1520   0.149E-01    0.311E-01
DAV:  21    -0.476385013216E+03   -0.39824E-02   -0.25490E-03  1616   0.150E-01    0.156E-01
DAV:  22    -0.476387136702E+03   -0.21235E-02   -0.93105E-04  1728   0.934E-02    0.115E-01
DAV:  23    -0.476388618718E+03   -0.14820E-02   -0.90499E-04  1688   0.982E-02    0.112E-01
DAV:  24    -0.476389266075E+03   -0.64736E-03   -0.23834E-04  1768   0.538E-02    0.128E-01
DAV:  25    -0.476390304950E+03   -0.10389E-02   -0.73466E-05  1448   0.344E-02    0.766E-02
DAV:  26    -0.476392152597E+03   -0.18476E-02   -0.15945E-04  1368   0.276E-02    0.539E-02
DAV:  27    -0.476392772965E+03   -0.62037E-03   -0.32991E-05  1280   0.212E-02    0.365E-02
DAV:  28    -0.476393506121E+03   -0.73316E-03   -0.46410E-05  1304   0.154E-02    0.187E-02
DAV:  29    -0.476393902296E+03   -0.39618E-03   -0.23535E-05  1136   0.120E-02    0.535E-03
DAV:  30    -0.476394032255E+03   -0.12996E-03   -0.78910E-06   896   0.782E-03    0.713E-03
DAV:  31    -0.476394067484E+03   -0.35229E-04   -0.30538E-06   888   0.575E-03    0.418E-03
DAV:  32    -0.476394081587E+03   -0.14103E-04   -0.21313E-06   880   0.405E-03    0.387E-03
DAV:  33    -0.476394088635E+03   -0.70480E-05   -0.12890E-06   896   0.359E-03
   1 F= -.47639409E+03 E0= -.47635434E+03  d E =-.476394E+03
       N       E                     dE             d eps       ncg     rms          rms(c)
DAV:   1    -0.478505430877E+03   -0.21113E+01   -0.19590E+02  1368   0.349E+01    0.949E+00
DAV:   2    -0.479783427972E+03   -0.12780E+01   -0.94424E+00  1952   0.134E+01    0.112E+01
DAV:   3    -0.481069382979E+03   -0.12860E+01   -0.93003E+00  2032   0.169E+01    0.238E+01
DAV:   4    -0.479836668875E+03    0.12327E+01   -0.92256E+00  2040   0.891E+00    0.125E+01
DAV:   5    -0.479159682283E+03    0.67699E+00   -0.21766E+00  2008   0.115E+01    0.550E+00
DAV:   6    -0.478947546276E+03    0.21214E+00   -0.48711E-01  1960   0.492E+00    0.153E+00
DAV:   7    -0.478913103594E+03    0.34443E-01   -0.57398E-02  1760   0.891E-01    0.920E-01
DAV:   8    -0.478907548156E+03    0.55554E-02   -0.28426E-02  2016   0.716E-01    0.553E-01
DAV:   9    -0.478906667875E+03    0.88028E-03   -0.83458E-03  1768   0.336E-01    0.310E-01
DAV:  10    -0.478906731283E+03   -0.63408E-04   -0.20263E-03  1872   0.167E-01    0.226E-01
DAV:  11    -0.478906713861E+03    0.17422E-04   -0.10343E-03  1936   0.122E-01    0.128E-01
DAV:  12    -0.478906724438E+03   -0.10577E-04   -0.34466E-04  1760   0.575E-02    0.590E-02
DAV:  13    -0.478906745316E+03   -0.20878E-04   -0.58029E-05  1136   0.251E-02    0.260E-02
DAV:  14    -0.478906791956E+03   -0.46639E-04   -0.14446E-05   976   0.179E-02    0.140E-02
DAV:  15    -0.478906837357E+03   -0.45402E-04   -0.68422E-06   904   0.101E-02    0.938E-03
DAV:  16    -0.478906893521E+03   -0.56163E-04   -0.65747E-06   928   0.990E-03    0.428E-03
DAV:  17    -0.478906927690E+03   -0.34169E-04   -0.32019E-06   896   0.641E-03    0.432E-03
DAV:  18    -0.478906942485E+03   -0.14795E-04   -0.18243E-06   904   0.530E-03    0.187E-03
DAV:  19    -0.478906957139E+03   -0.14654E-04   -0.15266E-06   848   0.355E-03    0.162E-03
DAV:  20    -0.478906963123E+03   -0.59833E-05   -0.84136E-07   888   0.276E-03
   2 F= -.47890696E+03 E0= -.47885901E+03  d E =-.251287E+01
       N       E                     dE             d eps       ncg     rms          rms(c)
DAV:   1    -0.478923081160E+03   -0.16124E-01   -0.30149E+00  1368   0.429E+00    0.860E-01
DAV:   2    -0.478939823075E+03   -0.16742E-01   -0.11898E-01  1856   0.126E+00    0.178E+00
DAV:   3    -0.478944825672E+03   -0.50026E-02   -0.78727E-02  1960   0.132E+00    0.200E+00
DAV:   4    -0.478932665535E+03    0.12160E-01   -0.41377E-02  1944   0.100E+00    0.114E+00
DAV:   5    -0.478928633689E+03    0.40318E-02   -0.15348E-02  1880   0.672E-01    0.422E-01
DAV:   6    -0.478928728556E+03   -0.94867E-04   -0.54533E-03  1888   0.332E-01    0.427E-01
DAV:   7    -0.478928196371E+03    0.53218E-03   -0.12181E-03  1832   0.993E-02    0.225E-01
DAV:   8    -0.478927866448E+03    0.32992E-03   -0.46062E-04  1984   0.133E-01    0.102E-01
DAV:   9    -0.478927870257E+03   -0.38087E-05   -0.88796E-05  1472   0.333E-02
   3 F= -.47892787E+03 E0= -.47887926E+03  d E =-.253378E+01
       N       E                     dE             d eps       ncg     rms          rms(c)
DAV:   1    -0.479290678453E+03   -0.36281E+00   -0.21408E+01  1368   0.127E+01    0.222E+00
DAV:   2    -0.479858093039E+03   -0.56741E+00   -0.18139E+00  1880   0.692E+00    0.869E+00
DAV:   3    -0.479349592907E+03    0.50850E+00   -0.88427E-01  2024   0.601E+00    0.269E+00
DAV:   4    -0.479397602964E+03   -0.48010E-01   -0.19209E-01  1992   0.289E+00    0.335E+00
DAV:   5    -0.479332788550E+03    0.64814E-01   -0.96843E-02  2024   0.236E+00    0.900E-01
DAV:   6    -0.479342514607E+03   -0.97261E-02   -0.70212E-02  2008   0.100E+00    0.204E+00
DAV:   7    -0.479329435723E+03    0.13079E-01   -0.46161E-02  1856   0.620E-01    0.321E-01
DAV:   8    -0.479329739858E+03   -0.30414E-03   -0.26780E-03  1816   0.230E-01    0.240E-01
DAV:   9    -0.479329601350E+03    0.13851E-03   -0.56245E-04  1848   0.889E-02    0.791E-02
DAV:  10    -0.479329587263E+03    0.14087E-04   -0.62289E-05  1432   0.400E-02    0.740E-02
DAV:  11    -0.479329574138E+03    0.13126E-04   -0.41117E-05  1328   0.294E-02    0.284E-02
DAV:  12    -0.479329610630E+03   -0.36492E-04   -0.19753E-05   976   0.178E-02    0.117E-02
DAV:  13    -0.479329624539E+03   -0.13909E-04   -0.66395E-06   912   0.120E-02    0.725E-03
DAV:  14    -0.479329641870E+03   -0.17331E-04   -0.32688E-06   864   0.767E-03    0.718E-03
DAV:  15    -0.479329656885E+03   -0.15015E-04   -0.29636E-06   872   0.628E-03    0.280E-03
DAV:  16    -0.479329667527E+03   -0.10642E-04   -0.16133E-06   888   0.436E-03    0.229E-03
DAV:  17    -0.479329673198E+03   -0.56710E-05   -0.93472E-07   904   0.326E-03
   4 F= -.47932967E+03 E0= -.47928049E+03  d E =-.401803E+00
       N       E                     dE             d eps       ncg     rms          rms(c)
DAV:   1    -0.479373483903E+03   -0.43816E-01   -0.71055E+00  1360   0.729E+00    0.130E+00
DAV:   2    -0.479635474275E+03   -0.26199E+00   -0.73070E-01  1888   0.424E+00    0.652E+00
DAV:   3    -0.479389351643E+03    0.24612E+00   -0.35687E-01  2024   0.366E+00    0.156E+00
DAV:   4    -0.479407422452E+03   -0.18071E-01   -0.61654E-02  1952   0.171E+00    0.186E+00
DAV:   5    -0.479386505734E+03    0.20917E-01   -0.33663E-02  1984   0.140E+00    0.447E-01
DAV:   6    -0.479387850392E+03   -0.13447E-02   -0.14767E-02  1920   0.468E-01    0.797E-01
DAV:   7    -0.479385798017E+03    0.20524E-02   -0.60049E-03  1760   0.230E-01    0.245E-01
DAV:   8    -0.479385714983E+03    0.83034E-04   -0.74003E-04  1896   0.148E-01    0.133E-01
DAV:   9    -0.479385735268E+03   -0.20285E-04   -0.21895E-04  1688   0.575E-02    0.430E-02
DAV:  10    -0.479385746673E+03   -0.11405E-04   -0.29133E-05  1016   0.192E-02    0.306E-02
DAV:  11    -0.479385744474E+03    0.21985E-05   -0.11174E-05   936   0.157E-02
   5 F= -.47938574E+03 E0= -.47933614E+03  d E =-.457874E+00
       N       E                     dE             d eps       ncg     rms          rms(c)
DAV:   1    -0.479649608902E+03   -0.26386E+00   -0.15609E+01  1344   0.105E+01    0.306E+00
DAV:   2    -0.481807784964E+03   -0.21582E+01   -0.79244E+00  1984   0.122E+01    0.159E+01
DAV:   3    -0.479645578861E+03    0.21622E+01   -0.17709E+00  1976   0.124E+01    0.248E+00
DAV:   4    -0.479674514467E+03   -0.28936E-01   -0.39572E-01  1896   0.324E+00    0.282E+00
DAV:   5    -0.479641838599E+03    0.32676E-01   -0.12598E-01  1960   0.224E+00    0.140E+00
DAV:   6    -0.479641247864E+03    0.59073E-03   -0.32915E-02  1944   0.822E-01    0.124E+00
DAV:   7    -0.479636120900E+03    0.51270E-02   -0.34800E-02  2016   0.523E-01    0.637E-01
DAV:   8    -0.479636362506E+03   -0.24161E-03   -0.16162E-02  1880   0.264E-01    0.387E-01
DAV:   9    -0.479635649948E+03    0.71256E-03   -0.15079E-03  1848   0.158E-01    0.236E-01
DAV:  10    -0.479635437562E+03    0.21239E-03   -0.21195E-04  1872   0.705E-02    0.940E-02
DAV:  11    -0.479635491076E+03   -0.53514E-04   -0.53962E-05  1200   0.222E-02    0.513E-02
DAV:  12    -0.479635512283E+03   -0.21207E-04   -0.11548E-05   920   0.137E-02    0.278E-02
DAV:  13    -0.479635526700E+03   -0.14417E-04   -0.70948E-06   920   0.894E-03    0.133E-02
DAV:  14    -0.479635537060E+03   -0.10360E-04   -0.30078E-06   888   0.652E-03    0.581E-03
DAV:  15    -0.479635545352E+03   -0.82919E-05   -0.14036E-06   888   0.454E-03
   6 F= -.47963555E+03 E0= -.47958660E+03  d E =-.249801E+00
       N       E                     dE             d eps       ncg     rms          rms(c)
DAV:   1    -0.479840037533E+03   -0.20450E+00   -0.52762E+01  1344   0.193E+01    0.411E+00
DAV:   2    -0.483357806794E+03   -0.35178E+01   -0.14046E+01  1944   0.168E+01    0.194E+01
DAV:   3    -0.479852007268E+03    0.35058E+01   -0.32278E+00  1992   0.179E+01    0.332E+00
DAV:   4    -0.479887755313E+03   -0.35748E-01   -0.10558E+00  1944   0.387E+00    0.370E+00
DAV:   5    -0.479861527987E+03    0.26227E-01   -0.21167E-01  1944   0.284E+00    0.311E+00
DAV:   6    -0.479860518600E+03    0.10094E-02   -0.24841E-01  2040   0.190E+00    0.279E+00
DAV:   7    -0.479829897640E+03    0.30621E-01   -0.14814E-01  1880   0.827E-01    0.691E-01
DAV:   8    -0.479829361553E+03    0.53609E-03   -0.74629E-03  1848   0.291E-01    0.297E-01
DAV:   9    -0.479830280048E+03   -0.91849E-03   -0.39897E-03  1904   0.278E-01    0.575E-01
DAV:  10    -0.479829061616E+03    0.12184E-02   -0.12084E-03  1904   0.110E-01    0.251E-01
DAV:  11    -0.479829193479E+03   -0.13186E-03   -0.96662E-05  1744   0.361E-02    0.198E-01
DAV:  12    -0.479829170341E+03    0.23138E-04   -0.12578E-04  1016   0.382E-02    0.735E-02
DAV:  13    -0.479829228106E+03   -0.57765E-04   -0.30548E-05  1152   0.189E-02    0.302E-02
DAV:  14    -0.479829260565E+03   -0.32459E-04   -0.92322E-06   960   0.105E-02    0.135E-02
DAV:  15    -0.479829291466E+03   -0.30901E-04   -0.44327E-06   944   0.602E-03    0.619E-03
DAV:  16    -0.479829305194E+03   -0.13728E-04   -0.13193E-06   920   0.420E-03    0.436E-03
DAV:  17    -0.479829319855E+03   -0.14661E-04   -0.18468E-06   928   0.430E-03    0.598E-03
DAV:  18    -0.479829327650E+03   -0.77953E-05   -0.10070E-06   920   0.329E-03
   7 F= -.47982933E+03 E0= -.47978413E+03  d E =-.443583E+00
       N       E                     dE             d eps       ncg     rms          rms(c)
DAV:   1    -0.480047724655E+03   -0.21840E+00   -0.14097E+01  1344   0.943E+00    0.227E+00
DAV:   2    -0.481356978112E+03   -0.13093E+01   -0.54320E+00  1944   0.899E+00    0.133E+01
DAV:   3    -0.480033117006E+03    0.13239E+01   -0.19095E+00  2016   0.874E+00    0.118E+00
DAV:   4    -0.480054494420E+03   -0.21377E-01   -0.10419E-01  1912   0.167E+00    0.162E+00
DAV:   5    -0.480047621843E+03    0.68726E-02   -0.47334E-02  1960   0.147E+00    0.119E+00
DAV:   6    -0.480044050382E+03    0.35715E-02   -0.11683E-02  1944   0.709E-01    0.578E-01
DAV:   7    -0.480044464362E+03   -0.41398E-03   -0.75624E-03  1944   0.346E-01    0.629E-01
DAV:   8    -0.480042969498E+03    0.14949E-02   -0.63543E-03  1904   0.289E-01    0.196E-01
DAV:   9    -0.480043029589E+03   -0.60092E-04   -0.51100E-04  1792   0.684E-02    0.830E-02
DAV:  10    -0.480043017356E+03    0.12233E-04   -0.44530E-05  1176   0.243E-02    0.582E-02
DAV:  11    -0.480043026240E+03   -0.88835E-05   -0.20647E-05   976   0.167E-02
   8 F= -.48004303E+03 E0= -.48000200E+03  d E =-.213699E+00
       N       E                     dE             d eps       ncg     rms          rms(c)
DAV:   1    -0.480163404411E+03   -0.12039E+00   -0.10048E+02  1344   0.253E+01    0.403E+00
DAV:   2    -0.482919397028E+03   -0.27560E+01   -0.90808E+00  1968   0.154E+01    0.188E+01
DAV:   3    -0.480336295548E+03    0.25831E+01   -0.65953E+00  2008   0.151E+01    0.272E+00
DAV:   4    -0.480339086786E+03   -0.27912E-02   -0.30006E-01  1944   0.228E+00    0.252E+00
DAV:   5    -0.480370202185E+03   -0.31115E-01   -0.18060E-01  1904   0.295E+00    0.278E+00
DAV:   6    -0.480348403219E+03    0.21799E-01   -0.11908E-01  1992   0.270E+00    0.240E+00
DAV:   7    -0.480321559167E+03    0.26844E-01   -0.27005E-02  1864   0.850E-01    0.867E-01
DAV:   8    -0.480320189983E+03    0.13692E-02   -0.41039E-03  1880   0.252E-01    0.441E-01
DAV:   9    -0.480320536097E+03   -0.34611E-03   -0.96804E-04  1752   0.954E-02    0.320E-01
DAV:  10    -0.480320517282E+03    0.18815E-04   -0.15761E-04  1832   0.510E-02    0.209E-01
DAV:  11    -0.480320507837E+03    0.94455E-05   -0.79014E-05  1392   0.403E-02
   9 F= -.48032051E+03 E0= -.48028820E+03  d E =-.491180E+00
       N       E                     dE             d eps       ncg     rms          rms(c)
DAV:   1    -0.480544040618E+03   -0.22352E+00   -0.28243E+01  1352   0.135E+01    0.159E+00
DAV:   2    -0.480665205554E+03   -0.12116E+00   -0.83792E-01  1880   0.378E+00    0.381E+00
DAV:   3    -0.480620054658E+03    0.45151E-01   -0.22034E-01  1968   0.294E+00    0.299E+00
DAV:   4    -0.480591194262E+03    0.28860E-01   -0.50965E-02  1920   0.127E+00    0.905E-01
DAV:   5    -0.480604664378E+03   -0.13470E-01   -0.40141E-02  1944   0.145E+00    0.154E+00
DAV:   6    -0.480589908470E+03    0.14756E-01   -0.31663E-02  2040   0.132E+00    0.623E-01
DAV:   7    -0.480588722861E+03    0.11856E-02   -0.35119E-03  1848   0.310E-01    0.145E-01
DAV:   8    -0.480588903046E+03   -0.18018E-03   -0.65953E-04  1768   0.765E-02    0.674E-02
DAV:   9    -0.480588961871E+03   -0.58825E-04   -0.11154E-04  1640   0.330E-02    0.369E-02
DAV:  10    -0.480589006245E+03   -0.44374E-04   -0.26397E-05  1000   0.230E-02    0.130E-02
DAV:  11    -0.480589034278E+03   -0.28032E-04   -0.95730E-06   904   0.133E-02    0.542E-03
DAV:  12    -0.480589045643E+03   -0.11365E-04   -0.33009E-06   920   0.806E-03    0.342E-03
DAV:  13    -0.480589063152E+03   -0.17509E-04   -0.17952E-06   864   0.495E-03    0.198E-03
DAV:  14    -0.480589081087E+03   -0.17935E-04   -0.16708E-06   888   0.389E-03    0.110E-03
DAV:  15    -0.480589089061E+03   -0.79740E-05   -0.91445E-07   912   0.281E-03
  10 F= -.48058909E+03 E0= -.48055434E+03  d E =-.268581E+00
       N       E                     dE             d eps       ncg     rms          rms(c)
DAV:   1    -0.480646203739E+03   -0.57123E-01   -0.34192E+01  1344   0.148E+01    0.188E+00
DAV:   2    -0.480817635875E+03   -0.17143E+00   -0.10729E+00  1904   0.444E+00    0.477E+00
DAV:   3    -0.480744949985E+03    0.72686E-01   -0.33707E-01  2000   0.366E+00    0.394E+00
DAV:   4    -0.480719714182E+03    0.25236E-01   -0.11957E-01  1952   0.193E+00    0.192E+00
DAV:   5    -0.480702482573E+03    0.17232E-01   -0.65299E-02  1952   0.194E+00    0.117E+00
DAV:   6    -0.480696346929E+03    0.61356E-02   -0.18247E-02  1992   0.904E-01    0.532E-01
DAV:   7    -0.480695972715E+03    0.37421E-03   -0.53973E-03  1792   0.260E-01    0.324E-01
DAV:   8    -0.480695620779E+03    0.35194E-03   -0.13484E-03  1864   0.140E-01    0.738E-02
DAV:   9    -0.480695700413E+03   -0.79635E-04   -0.22771E-04  1696   0.465E-02    0.393E-02
DAV:  10    -0.480695731791E+03   -0.31378E-04   -0.38331E-05  1152   0.241E-02    0.155E-02
DAV:  11    -0.480695763762E+03   -0.31971E-04   -0.12933E-05   896   0.133E-02    0.599E-03
DAV:  12    -0.480695778511E+03   -0.14749E-04   -0.38341E-06   920   0.808E-03    0.316E-03
DAV:  13    -0.480695794099E+03   -0.15588E-04   -0.17682E-06   872   0.491E-03    0.186E-03
DAV:  14    -0.480695810263E+03   -0.16164E-04   -0.14690E-06   896   0.363E-03    0.133E-03
DAV:  15    -0.480695819845E+03   -0.95822E-05   -0.88510E-07   904   0.286E-03
  11 F= -.48069582E+03 E0= -.48065526E+03  d E =-.375312E+00
       N       E                     dE             d eps       ncg     rms          rms(c)
DAV:   1    -0.480932869825E+03   -0.23706E+00   -0.36873E+01  1344   0.153E+01    0.205E+00
DAV:   2    -0.481030338036E+03   -0.97468E-01   -0.94571E-01  1888   0.362E+00    0.337E+00
DAV:   3    -0.481127184739E+03   -0.96847E-01   -0.31583E-01  1992   0.351E+00    0.731E+00
DAV:   4    -0.480985398172E+03    0.14179E+00   -0.24804E-01  1968   0.233E+00    0.148E+00
DAV:   5    -0.480992939620E+03   -0.75414E-02   -0.62757E-02  1896   0.186E+00    0.173E+00
DAV:   6    -0.480973834417E+03    0.19105E-01   -0.37624E-02  1968   0.139E+00    0.370E-01
DAV:   7    -0.480973545500E+03    0.28892E-03   -0.43650E-03  1856   0.317E-01    0.224E-01
DAV:   8    -0.480973450155E+03    0.95345E-04   -0.11928E-03  1784   0.122E-01    0.116E-01
DAV:   9    -0.480973413193E+03    0.36963E-04   -0.22623E-04  1720   0.542E-02    0.532E-02
DAV:  10    -0.480973441560E+03   -0.28367E-04   -0.43640E-05  1136   0.264E-02    0.153E-02
DAV:  11    -0.480973469746E+03   -0.28186E-04   -0.14401E-05   944   0.134E-02    0.695E-03
DAV:  12    -0.480973481721E+03   -0.11975E-04   -0.28440E-06   920   0.858E-03    0.313E-03
DAV:  13    -0.480973495999E+03   -0.14278E-04   -0.18226E-06   872   0.442E-03    0.207E-03
DAV:  14    -0.480973507794E+03   -0.11795E-04   -0.88714E-07   880   0.350E-03    0.952E-04
DAV:  15    -0.480973515462E+03   -0.76687E-05   -0.58914E-07   896   0.244E-03
  12 F= -.48097352E+03 E0= -.48092922E+03  d E =-.277696E+00
       N       E                     dE             d eps       ncg     rms          rms(c)
DAV:   1    -0.481018725945E+03   -0.45218E-01   -0.10998E+02  1344   0.265E+01    0.382E+00
DAV:   2    -0.481686328716E+03   -0.66760E+00   -0.39157E+00  1904   0.833E+00    0.877E+00
DAV:   3    -0.481312645723E+03    0.37368E+00   -0.18740E+00  1992   0.792E+00    0.728E+00
DAV:   4    -0.481220460970E+03    0.92185E-01   -0.44864E-01  1912   0.332E+00    0.323E+00
DAV:   5    -0.481200764884E+03    0.19696E-01   -0.14982E-01  1944   0.270E+00    0.232E+00
DAV:   6    -0.481160486477E+03    0.40278E-01   -0.10509E-01  1952   0.246E+00    0.952E-01
DAV:   7    -0.481158211593E+03    0.22749E-02   -0.16691E-02  1920   0.736E-01    0.246E-01
DAV:   8    -0.481158448458E+03   -0.23687E-03   -0.36046E-03  1856   0.228E-01    0.237E-01
DAV:   9    -0.481158286912E+03    0.16155E-03   -0.88442E-04  1864   0.125E-01    0.626E-02
DAV:  10    -0.481158331329E+03   -0.44417E-04   -0.29618E-04  1800   0.546E-02    0.653E-02
DAV:  11    -0.481158379637E+03   -0.48308E-04   -0.61767E-05  1368   0.286E-02    0.196E-02
DAV:  12    -0.481158418300E+03   -0.38663E-04   -0.84333E-06   912   0.136E-02    0.106E-02
DAV:  13    -0.481158459645E+03   -0.41344E-04   -0.49310E-06   864   0.851E-03    0.434E-03
DAV:  14    -0.481158489840E+03   -0.30195E-04   -0.28038E-06   896   0.631E-03    0.249E-03
DAV:  15    -0.481158516495E+03   -0.26655E-04   -0.22867E-06   896   0.485E-03    0.157E-03
DAV:  16    -0.481158538073E+03   -0.21577E-04   -0.20027E-06   888   0.365E-03    0.140E-03
DAV:  17    -0.481158548213E+03   -0.10141E-04   -0.12718E-06   888   0.313E-03    0.613E-04
DAV:  18    -0.481158552941E+03   -0.47283E-05   -0.78472E-07   896   0.225E-03
  13 F= -.48115855E+03 E0= -.48111190E+03  d E =-.462733E+00
       N       E                     dE             d eps       ncg     rms          rms(c)
DAV:   1    -0.481333350191E+03   -0.17480E+00   -0.27512E+01  1344   0.126E+01    0.171E+00
DAV:   2    -0.481468225199E+03   -0.13488E+00   -0.76137E-01  1904   0.369E+00    0.437E+00
DAV:   3    -0.481386180718E+03    0.82044E-01   -0.27279E-01  1984   0.328E+00    0.279E+00
DAV:   4    -0.481364286841E+03    0.21894E-01   -0.66257E-02  1920   0.127E+00    0.105E+00
DAV:   5    -0.481374564343E+03   -0.10278E-01   -0.38477E-02  1880   0.132E+00    0.149E+00
DAV:   6    -0.481360870936E+03    0.13693E-01   -0.36961E-02  1960   0.128E+00    0.466E-01
DAV:   7    -0.481359991317E+03    0.87962E-03   -0.50117E-03  1864   0.307E-01    0.188E-01
DAV:   8    -0.481359962710E+03    0.28607E-04   -0.75270E-04  1784   0.125E-01    0.542E-02
DAV:   9    -0.481360003741E+03   -0.41031E-04   -0.17312E-04  1656   0.417E-02    0.244E-02
DAV:  10    -0.481360013796E+03   -0.10055E-04   -0.17937E-05  1016   0.173E-02    0.122E-02
DAV:  11    -0.481360026118E+03   -0.12322E-04   -0.80307E-06   880   0.118E-02    0.484E-03
DAV:  12    -0.481360031477E+03   -0.53587E-05   -0.27997E-06   896   0.821E-03
  14 F= -.48136003E+03 E0= -.48131650E+03  d E =-.201479E+00
       N       E                     dE             d eps       ncg     rms          rms(c)
DAV:   1    -0.481363413800E+03   -0.33877E-02   -0.11836E+02  1344   0.264E+01    0.373E+00
DAV:   2    -0.482602383675E+03   -0.12390E+01   -0.54634E+00  1928   0.109E+01    0.126E+01
DAV:   3    -0.481541541552E+03    0.10608E+01   -0.45840E+00  1984   0.101E+01    0.181E+00
DAV:   4    -0.481600664354E+03   -0.59123E-01   -0.24017E-01  1960   0.266E+00    0.322E+00
DAV:   5    -0.481551971953E+03    0.48692E-01   -0.24527E-01  1952   0.301E+00    0.152E+00
DAV:   6    -0.481543231415E+03    0.87405E-02   -0.36212E-02  1880   0.979E-01    0.338E-01
DAV:   7    -0.481543303373E+03   -0.71958E-04   -0.14817E-02  1800   0.332E-01    0.233E-01
DAV:   8    -0.481543128443E+03    0.17493E-03   -0.25017E-03  1736   0.162E-01    0.946E-02
DAV:   9    -0.481543236090E+03   -0.10765E-03   -0.39898E-04  1800   0.677E-02    0.428E-02
DAV:  10    -0.481543281965E+03   -0.45876E-04   -0.60283E-05  1464   0.286E-02    0.291E-02
DAV:  11    -0.481543316724E+03   -0.34758E-04   -0.19283E-05  1064   0.248E-02    0.170E-02
DAV:  12    -0.481543340928E+03   -0.24205E-04   -0.69837E-06   912   0.145E-02    0.540E-03
DAV:  13    -0.481543361393E+03   -0.20465E-04   -0.36547E-06   920   0.845E-03    0.423E-03
DAV:  14    -0.481543382842E+03   -0.21449E-04   -0.24234E-06   912   0.504E-03    0.233E-03
DAV:  15    -0.481543408684E+03   -0.25842E-04   -0.24292E-06   944   0.375E-03    0.164E-03
DAV:  16    -0.481543424683E+03   -0.15999E-04   -0.14689E-06   928   0.321E-03    0.114E-03
DAV:  17    -0.481543435671E+03   -0.10988E-04   -0.11879E-06   896   0.265E-03    0.940E-04
DAV:  18    -0.481543443699E+03   -0.80285E-05   -0.94574E-07   888   0.234E-03
  15 F= -.48154344E+03 E0= -.48150305E+03  d E =-.384891E+00
       N       E                     dE             d eps       ncg     rms          rms(c)
DAV:   1    -0.481714780959E+03   -0.17135E+00   -0.16468E+01  1368   0.100E+01    0.118E+00
DAV:   2    -0.481788274142E+03   -0.73493E-01   -0.49239E-01  1896   0.317E+00    0.308E+00
DAV:   3    -0.481746777414E+03    0.41497E-01   -0.16014E-01  1936   0.251E+00    0.153E+00
DAV:   4    -0.481737909281E+03    0.88681E-02   -0.45197E-02  1992   0.899E-01    0.740E-01
DAV:   5    -0.481743067769E+03   -0.51585E-02   -0.25784E-02  1888   0.109E+00    0.107E+00
DAV:   6    -0.481735616359E+03    0.74514E-02   -0.18788E-02  2000   0.921E-01    0.281E-01
DAV:   7    -0.481735530059E+03    0.86300E-04   -0.30075E-03  1768   0.230E-01    0.997E-02
DAV:   8    -0.481735585515E+03   -0.55455E-04   -0.41942E-04  1824   0.698E-02    0.334E-02
DAV:   9    -0.481735596698E+03   -0.11184E-04   -0.48318E-05  1320   0.220E-02    0.174E-02
DAV:  10    -0.481735608135E+03   -0.11437E-04   -0.13861E-05   920   0.131E-02    0.630E-03
DAV:  11    -0.481735616406E+03   -0.82706E-05   -0.42777E-06   888   0.906E-03
  16 F= -.48173562E+03 E0= -.48169567E+03  d E =-.192173E+00
       N       E                     dE             d eps       ncg     rms          rms(c)
DAV:   1    -0.481786878384E+03   -0.51270E-01   -0.26781E+01  1368   0.128E+01    0.149E+00
DAV:   2    -0.481922729335E+03   -0.13585E+00   -0.83348E-01  1920   0.427E+00    0.421E+00
DAV:   3    -0.481836751339E+03    0.85978E-01   -0.28226E-01  1944   0.337E+00    0.171E+00
DAV:   4    -0.481825606339E+03    0.11145E-01   -0.57871E-02  1944   0.105E+00    0.873E-01
DAV:   5    -0.481835812827E+03   -0.10206E-01   -0.36810E-02  1904   0.129E+00    0.143E+00
DAV:   6    -0.481822810757E+03    0.13002E-01   -0.31922E-02  2000   0.117E+00    0.381E-01
DAV:   7    -0.481822566587E+03    0.24417E-03   -0.45836E-03  1816   0.309E-01    0.133E-01
DAV:   8    -0.481822649545E+03   -0.82958E-04   -0.67922E-04  1824   0.920E-02    0.426E-02
DAV:   9    -0.481822669527E+03   -0.19982E-04   -0.87429E-05  1600   0.285E-02    0.224E-02
DAV:  10    -0.481822689895E+03   -0.20368E-04   -0.18662E-05   944   0.147E-02    0.822E-03
DAV:  11    -0.481822705661E+03   -0.15767E-04   -0.56430E-06   904   0.985E-03    0.367E-03
DAV:  12    -0.481822711656E+03   -0.59946E-05   -0.19630E-06   928   0.644E-03
  17 F= -.48182271E+03 E0= -.48178388E+03  d E =-.279268E+00
       N       E                     dE             d eps       ncg     rms          rms(c)
DAV:   1    -0.481929423792E+03   -0.10672E+00   -0.11094E+01  1368   0.903E+00    0.939E-01
DAV:   2    -0.481957380987E+03   -0.27957E-01   -0.27084E-01  1968   0.199E+00    0.132E+00
DAV:   3    -0.481957339222E+03    0.41765E-04   -0.80174E-02  1968   0.175E+00    0.122E+00
DAV:   4    -0.481947551174E+03    0.97880E-02   -0.21835E-02  1944   0.100E+00    0.578E-01
DAV:   5    -0.481955681414E+03   -0.81302E-02   -0.17364E-02  1936   0.832E-01    0.140E+00
DAV:   6    -0.481946387923E+03    0.92935E-02   -0.14228E-02  1984   0.675E-01    0.222E-01
DAV:   7    -0.481946562710E+03   -0.17479E-03   -0.20355E-03  1784   0.171E-01    0.840E-02
DAV:   8    -0.481946588064E+03   -0.25354E-04   -0.31466E-04  1640   0.711E-02    0.371E-02
DAV:   9    -0.481946594894E+03   -0.68293E-05   -0.61198E-05  1544   0.239E-02
  18 F= -.48194659E+03 E0= -.48190761E+03  d E =-.123883E+00
       N       E                     dE             d eps       ncg     rms          rms(c)
DAV:   1    -0.481967860597E+03   -0.21273E-01   -0.81505E+00  1368   0.774E+00    0.803E-01
DAV:   2    -0.481989357700E+03   -0.21497E-01   -0.20034E-01  1984   0.174E+00    0.119E+00
DAV:   3    -0.481988075545E+03    0.12822E-02   -0.59548E-02  1944   0.153E+00    0.105E+00
DAV:   4    -0.481981565789E+03    0.65098E-02   -0.16133E-02  1936   0.857E-01    0.574E-01
DAV:   5    -0.481984950550E+03   -0.33848E-02   -0.11079E-02  1928   0.663E-01    0.100E+00
DAV:   6    -0.481980379045E+03    0.45715E-02   -0.75224E-03  1944   0.491E-01    0.180E-01
DAV:   7    -0.481980384317E+03   -0.52721E-05   -0.15484E-03  1704   0.142E-01    0.703E-02
DAV:   8    -0.481980424527E+03   -0.40211E-04   -0.24470E-04  1616   0.596E-02    0.310E-02
DAV:   9    -0.481980432531E+03   -0.80039E-05   -0.37211E-05  1296   0.198E-02
  19 F= -.48198043E+03 E0= -.48194136E+03  d E =-.157721E+00
       N       E                     dE             d eps       ncg     rms          rms(c)
DAV:   1    -0.482059592802E+03   -0.79168E-01   -0.13023E+01  1368   0.101E+01    0.904E-01
DAV:   2    -0.482098497547E+03   -0.38905E-01   -0.29753E-01  1992   0.229E+00    0.175E+00
DAV:   3    -0.482085377830E+03    0.13120E-01   -0.84399E-02  1960   0.174E+00    0.104E+00
DAV:   4    -0.482080919414E+03    0.44584E-02   -0.14445E-02  1936   0.745E-01    0.774E-01
DAV:   5    -0.482081417220E+03   -0.49781E-03   -0.13423E-02  1928   0.733E-01    0.828E-01
DAV:   6    -0.482078357261E+03    0.30600E-02   -0.82812E-03  1960   0.505E-01    0.210E-01
DAV:   7    -0.482078153932E+03    0.20333E-03   -0.21041E-03  1680   0.163E-01    0.619E-02
DAV:   8    -0.482078267562E+03   -0.11363E-03   -0.37859E-04  1720   0.712E-02    0.336E-02
DAV:   9    -0.482078271025E+03   -0.34630E-05   -0.29286E-05  1136   0.229E-02
  20 F= -.48207827E+03 E0= -.48203917E+03  d E =-.978385E-01
       N       E                     dE             d eps       ncg     rms          rms(c)
DAV:   1    -0.482091463771E+03   -0.13196E-01   -0.83693E+00  1360   0.806E+00    0.727E-01
DAV:   2    -0.482117441672E+03   -0.25978E-01   -0.19431E-01  2008   0.188E+00    0.145E+00
DAV:   3    -0.482107906630E+03    0.95350E-02   -0.57026E-02  1944   0.144E+00    0.837E-01
DAV:   4    -0.482105265694E+03    0.26409E-02   -0.98933E-03  1952   0.600E-01    0.636E-01
DAV:   5    -0.482105487494E+03   -0.22180E-03   -0.84905E-03  1936   0.589E-01    0.666E-01
DAV:   6    -0.482103508171E+03    0.19793E-02   -0.56505E-03  1960   0.403E-01    0.172E-01
DAV:   7    -0.482103393315E+03    0.11486E-03   -0.14182E-03  1648   0.131E-01    0.462E-02
DAV:   8    -0.482103472982E+03   -0.79667E-04   -0.24228E-04  1688   0.541E-02    0.267E-02
DAV:   9    -0.482103478714E+03   -0.57316E-05   -0.16599E-05   992   0.183E-02
  21 F= -.48210348E+03 E0= -.48206450E+03  d E =-.123046E+00
       N       E                     dE             d eps       ncg     rms          rms(c)
DAV:   1    -0.482161789026E+03   -0.58316E-01   -0.14647E+01  1344   0.108E+01    0.905E-01
DAV:   2    -0.482202003836E+03   -0.40215E-01   -0.33152E-01  1936   0.228E+00    0.184E+00
DAV:   3    -0.482193854206E+03    0.81496E-02   -0.63294E-02  1992   0.147E+00    0.136E+00
DAV:   4    -0.482189130521E+03    0.47237E-02   -0.20905E-02  1920   0.953E-01    0.939E-01
DAV:   5    -0.482185619075E+03    0.35114E-02   -0.14923E-02  1976   0.862E-01    0.557E-01
DAV:   6    -0.482184557871E+03    0.10612E-02   -0.45617E-03  1880   0.389E-01    0.202E-01
DAV:   7    -0.482184306793E+03    0.25108E-03   -0.23434E-03  1728   0.157E-01    0.895E-02
DAV:   8    -0.482184367199E+03   -0.60405E-04   -0.48199E-04  1648   0.736E-02    0.379E-02
DAV:   9    -0.482184377274E+03   -0.10076E-04   -0.54519E-05  1560   0.227E-02    0.238E-02
DAV:  10    -0.482184389021E+03   -0.11747E-04   -0.13617E-05   904   0.142E-02    0.810E-03
DAV:  11    -0.482184400335E+03   -0.11314E-04   -0.63295E-06   896   0.990E-03    0.252E-03
DAV:  12    -0.482184407036E+03   -0.67008E-05   -0.22365E-06   896   0.607E-03
  22 F= -.48218441E+03 E0= -.48214490E+03  d E =-.809283E-01
       N       E                     dE             d eps       ncg     rms          rms(c)
DAV:   1    -0.482189884096E+03   -0.54838E-02   -0.98114E+00  1344   0.881E+00    0.732E-01
DAV:   2    -0.482215202093E+03   -0.25318E-01   -0.22091E-01  1944   0.183E+00    0.138E+00
DAV:   3    -0.482211596568E+03    0.36055E-02   -0.40293E-02  1992   0.118E+00    0.112E+00
DAV:   4    -0.482207618352E+03    0.39782E-02   -0.12511E-02  1936   0.754E-01    0.715E-01
DAV:   5    -0.482205984640E+03    0.16337E-02   -0.90119E-03  1984   0.687E-01    0.475E-01
DAV:   6    -0.482205118868E+03    0.86577E-03   -0.34228E-03  1880   0.334E-01    0.156E-01
DAV:   7    -0.482204986367E+03    0.13250E-03   -0.18001E-03  1736   0.126E-01    0.676E-02
DAV:   8    -0.482205024487E+03   -0.38120E-04   -0.35428E-04  1632   0.575E-02    0.309E-02
DAV:   9    -0.482205032637E+03   -0.81503E-05   -0.35950E-05  1296   0.187E-02
  23 F= -.48220503E+03 E0= -.48216522E+03  d E =-.101554E+00
       N       E                     dE             d eps       ncg     rms          rms(c)
DAV:   1    -0.482229990632E+03   -0.24966E-01   -0.19110E+01  1344   0.123E+01    0.112E+00
DAV:   2    -0.482284412422E+03   -0.54422E-01   -0.49553E-01  1920   0.231E+00    0.182E+00
DAV:   3    -0.482286094421E+03   -0.16820E-02   -0.10989E-01  2000   0.211E+00    0.212E+00
DAV:   4    -0.482268654005E+03    0.17440E-01   -0.39530E-02  1952   0.118E+00    0.108E+00
DAV:   5    -0.482266611125E+03    0.20429E-02   -0.22336E-02  1960   0.103E+00    0.816E-01
DAV:   6    -0.482264262168E+03    0.23490E-02   -0.10689E-02  1976   0.595E-01    0.382E-01
DAV:   7    -0.482263303244E+03    0.95892E-03   -0.69383E-03  1736   0.229E-01    0.160E-01
DAV:   8    -0.482263486960E+03   -0.18372E-03   -0.11275E-03  1672   0.128E-01    0.614E-02
DAV:   9    -0.482263508447E+03   -0.21486E-04   -0.13133E-04  1584   0.361E-02    0.370E-02
DAV:  10    -0.482263516345E+03   -0.78985E-05   -0.26133E-05   952   0.201E-02
  24 F= -.48226352E+03 E0= -.48222393E+03  d E =-.584837E-01
       N       E                     dE             d eps       ncg     rms          rms(c)
DAV:   1    -0.482263953327E+03   -0.44488E-03   -0.85162E-01  1360   0.260E+00    0.228E-01
DAV:   2    -0.482266420271E+03   -0.24669E-02   -0.21931E-02  1920   0.488E-01    0.406E-01
DAV:   3    -0.482266261099E+03    0.15917E-03   -0.46495E-03  1968   0.422E-01    0.403E-01
DAV:   4    -0.482265626174E+03    0.63492E-03   -0.14327E-03  1960   0.234E-01    0.215E-01
DAV:   5    -0.482265567786E+03    0.58389E-04   -0.89867E-04  1840   0.211E-01    0.172E-01
DAV:   6    -0.482265473229E+03    0.94556E-04   -0.40538E-04  1832   0.121E-01    0.741E-02
DAV:   7    -0.482265441687E+03    0.31542E-04   -0.23795E-04  1720   0.479E-02    0.228E-02
DAV:   8    -0.482265457966E+03   -0.16278E-04   -0.43487E-05  1304   0.216E-02    0.131E-02
DAV:   9    -0.482265461185E+03   -0.32190E-05   -0.50386E-06   920   0.814E-03
  25 F= -.48226546E+03 E0= -.48222592E+03  d E =-.604285E-01
       N       E                     dE             d eps       ncg     rms          rms(c)
DAV:   1    -0.482282889582E+03   -0.17432E-01   -0.12781E+01  1344   0.101E+01    0.864E-01
DAV:   2    -0.482311017956E+03   -0.28128E-01   -0.30904E-01  1960   0.192E+00    0.102E+00
DAV:   3    -0.482317511639E+03   -0.64937E-02   -0.63624E-02  1944   0.177E+00    0.142E+00
DAV:   4    -0.482304989600E+03    0.12522E-01   -0.23156E-02  1992   0.109E+00    0.576E-01
DAV:   5    -0.482309177838E+03   -0.41882E-02   -0.11007E-02  1992   0.663E-01    0.975E-01
DAV:   6    -0.482303735922E+03    0.54419E-02   -0.65614E-03  2000   0.537E-01    0.177E-01
DAV:   7    -0.482304084246E+03   -0.34832E-03   -0.16422E-03  1752   0.142E-01    0.650E-02
DAV:   8    -0.482304058741E+03    0.25504E-04   -0.29119E-04  1656   0.515E-02    0.374E-02
DAV:   9    -0.482304069814E+03   -0.11072E-04   -0.46503E-05  1192   0.231E-02    0.179E-02
DAV:  10    -0.482304082959E+03   -0.13146E-04   -0.12795E-05   888   0.124E-02    0.492E-03
DAV:  11    -0.482304089656E+03   -0.66964E-05   -0.38144E-06   920   0.808E-03
  26 F= -.48230409E+03 E0= -.48226471E+03  d E =-.386285E-01
       N       E                     dE             d eps       ncg     rms          rms(c)
DAV:   1    -0.482304415443E+03   -0.33248E-03   -0.69379E-01  1360   0.235E+00    0.196E-01
DAV:   2    -0.482305949261E+03   -0.15338E-02   -0.16663E-02  1960   0.450E-01    0.245E-01
DAV:   3    -0.482306195040E+03   -0.24578E-03   -0.34359E-03  1944   0.404E-01    0.309E-01
DAV:   4    -0.482305605530E+03    0.58951E-03   -0.11058E-03  1928   0.239E-01    0.140E-01
DAV:   5    -0.482305773124E+03   -0.16759E-03   -0.53188E-04  1680   0.148E-01    0.210E-01
DAV:   6    -0.482305538738E+03    0.23439E-03   -0.31359E-04  1800   0.114E-01    0.361E-02
DAV:   7    -0.482305568707E+03   -0.29969E-04   -0.75430E-05  1472   0.301E-02    0.151E-02
DAV:   8    -0.482305569019E+03   -0.31188E-06   -0.11378E-05   920   0.119E-02
  27 F= -.48230557E+03 E0= -.48226623E+03  d E =-.401078E-01
       N       E                     dE             d eps       ncg     rms          rms(c)
DAV:   1    -0.482318701920E+03   -0.13133E-01   -0.12434E+01  1344   0.982E+00    0.855E-01
DAV:   2    -0.482342182723E+03   -0.23481E-01   -0.26165E-01  1944   0.171E+00    0.884E-01
DAV:   3    -0.482353491624E+03   -0.11309E-01   -0.64588E-02  1952   0.176E+00    0.159E+00
DAV:   4    -0.482338790472E+03    0.14701E-01   -0.26980E-02  1984   0.119E+00    0.648E-01
DAV:   5    -0.482339544758E+03   -0.75429E-03   -0.87889E-03  2000   0.596E-01    0.674E-01
DAV:   6    -0.482337283778E+03    0.22610E-02   -0.40476E-03  1960   0.391E-01    0.129E-01
DAV:   7    -0.482337508057E+03   -0.22428E-03   -0.93602E-04  1736   0.103E-01    0.428E-02
DAV:   8    -0.482337501249E+03    0.68077E-05   -0.17446E-04  1624   0.400E-02    0.250E-02
DAV:   9    -0.482337512461E+03   -0.11211E-04   -0.23323E-05   920   0.167E-02    0.129E-02
DAV:  10    -0.482337528236E+03   -0.15775E-04   -0.11363E-05   856   0.110E-02    0.357E-03
DAV:  11    -0.482337535190E+03   -0.69538E-05   -0.29096E-06   912   0.757E-03
  28 F= -.48233754E+03 E0= -.48229832E+03  d E =-.319662E-01
       N       E                     dE             d eps       ncg     rms          rms(c)
DAV:   1    -0.482337713644E+03   -0.18541E-03   -0.72819E-01  1360   0.238E+00    0.204E-01
DAV:   2    -0.482339125087E+03   -0.14114E-02   -0.15412E-02  1928   0.434E-01    0.245E-01
DAV:   3    -0.482339693272E+03   -0.56819E-03   -0.38511E-03  1968   0.417E-01    0.397E-01
DAV:   4    -0.482338936190E+03    0.75708E-03   -0.14012E-03  1944   0.260E-01    0.189E-01
DAV:   5    -0.482338833541E+03    0.10265E-03   -0.54214E-04  1648   0.157E-01    0.121E-01
DAV:   6    -0.482338793002E+03    0.40540E-04   -0.18476E-04  1600   0.805E-02    0.275E-02
DAV:   7    -0.482338809406E+03   -0.16404E-04   -0.43308E-05  1200   0.226E-02    0.966E-03
DAV:   8    -0.482338811715E+03   -0.23089E-05   -0.78880E-06   928   0.108E-02
  29 F= -.48233881E+03 E0= -.48229962E+03  d E =-.332427E-01
       N       E                     dE             d eps       ncg     rms          rms(c)
DAV:   1    -0.482350131419E+03   -0.11322E-01   -0.14086E+01  1368   0.102E+01    0.853E-01
DAV:   2    -0.482372059813E+03   -0.21928E-01   -0.26407E-01  1928   0.172E+00    0.802E-01
DAV:   3    -0.482387238577E+03   -0.15179E-01   -0.57556E-02  1960   0.159E+00    0.180E+00
DAV:   4    -0.482369624482E+03    0.17614E-01   -0.27456E-02  1960   0.118E+00    0.579E-01
DAV:   5    -0.482371871701E+03   -0.22472E-02   -0.99541E-03  1952   0.677E-01    0.726E-01
DAV:   6    -0.482368659613E+03    0.32121E-02   -0.59430E-03  1896   0.509E-01    0.124E-01
DAV:   7    -0.482368901077E+03   -0.24146E-03   -0.15052E-03  1656   0.123E-01    0.523E-02
DAV:   8    -0.482368906259E+03   -0.51819E-05   -0.23668E-04  1544   0.486E-02    0.261E-02
DAV:   9    -0.482368919908E+03   -0.13649E-04   -0.37344E-05  1224   0.190E-02    0.135E-02
DAV:  10    -0.482368929513E+03   -0.96056E-05   -0.66364E-06   896   0.112E-02
  30 F= -.48236893E+03 E0= -.48232999E+03  d E =-.301178E-01
       N       E                     dE             d eps       ncg     rms          rms(c)
DAV:   1    -0.482368704205E+03    0.21570E-03   -0.21178E+00  1368   0.397E+00    0.328E-01
DAV:   2    -0.482372241244E+03   -0.35370E-02   -0.40555E-02  1928   0.716E-01    0.394E-01
DAV:   3    -0.482373924550E+03   -0.16833E-02   -0.84286E-03  2000   0.580E-01    0.680E-01
DAV:   4    -0.482371545744E+03    0.23788E-02   -0.31502E-03  1960   0.382E-01    0.208E-01
DAV:   5    -0.482371970257E+03   -0.42451E-03   -0.16633E-03  1952   0.287E-01    0.275E-01
DAV:   6    -0.482371489627E+03    0.48063E-03   -0.98540E-04  1936   0.212E-01    0.463E-02
DAV:   7    -0.482371531985E+03   -0.42358E-04   -0.20666E-04  1624   0.472E-02    0.207E-02
DAV:   8    -0.482371535765E+03   -0.37799E-05   -0.30449E-05  1024   0.181E-02
  31 F= -.48237154E+03 E0= -.48233268E+03  d E =-.327240E-01
       N       E                     dE             d eps       ncg     rms          rms(c)
DAV:   1    -0.482382671829E+03   -0.11140E-01   -0.13435E+01  1392   0.995E+00    0.810E-01
DAV:   2    -0.482407618395E+03   -0.24947E-01   -0.25521E-01  1896   0.182E+00    0.122E+00
DAV:   3    -0.482411466201E+03   -0.38478E-02   -0.52160E-02  1992   0.138E+00    0.147E+00
DAV:   4    -0.482400463698E+03    0.11003E-01   -0.14013E-02  1936   0.787E-01    0.438E-01
DAV:   5    -0.482403843432E+03   -0.33797E-02   -0.10657E-02  1952   0.753E-01    0.736E-01
DAV:   6    -0.482400102461E+03    0.37410E-02   -0.67467E-03  1936   0.568E-01    0.918E-02
DAV:   7    -0.482400328813E+03   -0.22635E-03   -0.10509E-03  1608   0.100E-01    0.490E-02
DAV:   8    -0.482400333686E+03   -0.48732E-05   -0.14543E-04  1616   0.402E-02    0.283E-02
DAV:   9    -0.482400348490E+03   -0.14803E-04   -0.31627E-05  1152   0.181E-02    0.108E-02
DAV:  10    -0.482400357944E+03   -0.94549E-05   -0.59936E-06   880   0.973E-03
  32 F= -.48240036E+03 E0= -.48236161E+03  d E =-.288222E-01
       N       E                     dE             d eps       ncg     rms          rms(c)
DAV:   1    -0.482396288530E+03    0.40600E-02   -0.81070E+00  1392   0.773E+00    0.631E-01
DAV:   2    -0.482411767893E+03   -0.15479E-01   -0.15474E-01  1896   0.144E+00    0.101E+00
DAV:   3    -0.482413001625E+03   -0.12337E-02   -0.31810E-02  2000   0.107E+00    0.111E+00
DAV:   4    -0.482406850741E+03    0.61509E-02   -0.80117E-03  1944   0.585E-01    0.332E-01
DAV:   5    -0.482409123289E+03   -0.22725E-02   -0.65311E-03  1936   0.594E-01    0.589E-01
DAV:   6    -0.482406705218E+03    0.24181E-02   -0.42719E-03  1936   0.456E-01    0.702E-02
DAV:   7    -0.482406852503E+03   -0.14729E-03   -0.62558E-04  1616   0.788E-02    0.388E-02
DAV:   8    -0.482406858926E+03   -0.64229E-05   -0.85021E-05  1552   0.310E-02
  33 F= -.48240686E+03 E0= -.48236821E+03  d E =-.353232E-01
       N       E                     dE             d eps       ncg     rms          rms(c)
DAV:   1    -0.482422155416E+03   -0.15303E-01   -0.76919E+00  1400   0.753E+00    0.569E-01
DAV:   2    -0.482437451526E+03   -0.15296E-01   -0.14189E-01  1856   0.133E+00    0.107E+00
DAV:   3    -0.482435209529E+03    0.22420E-02   -0.24784E-02  1944   0.916E-01    0.871E-01
DAV:   4    -0.482431862156E+03    0.33474E-02   -0.64543E-03  1928   0.516E-01    0.322E-01
DAV:   5    -0.482433526875E+03   -0.16647E-02   -0.65714E-03  1952   0.588E-01    0.545E-01
DAV:   6    -0.482431749447E+03    0.17774E-02   -0.40832E-03  1952   0.452E-01    0.862E-02
DAV:   7    -0.482431755622E+03   -0.61751E-05   -0.59266E-04  1712   0.919E-02    0.311E-02
DAV:   8    -0.482431782387E+03   -0.26765E-04   -0.82146E-05  1568   0.301E-02    0.169E-02
DAV:   9    -0.482431792604E+03   -0.10217E-04   -0.11548E-05   904   0.116E-02    0.708E-03
DAV:  10    -0.482431800182E+03   -0.75789E-05   -0.37159E-06   896   0.812E-03
  34 F= -.48243180E+03 E0= -.48239319E+03  d E =-.249413E-01
       N       E                     dE             d eps       ncg     rms          rms(c)
DAV:   1    -0.482412381588E+03    0.19411E-01   -0.43200E+01  1392   0.179E+01    0.135E+00
DAV:   2    -0.482491970500E+03   -0.79589E-01   -0.80064E-01  1848   0.295E+00    0.218E+00
DAV:   3    -0.482496824835E+03   -0.48543E-02   -0.14313E-01  1968   0.213E+00    0.229E+00
DAV:   4    -0.482469537908E+03    0.27287E-01   -0.41409E-02  1960   0.134E+00    0.752E-01
DAV:   5    -0.482478642287E+03   -0.91044E-02   -0.35790E-02  1960   0.139E+00    0.133E+00
DAV:   6    -0.482467965830E+03    0.10676E-01   -0.23662E-02  1952   0.109E+00    0.234E-01
DAV:   7    -0.482467957529E+03    0.83013E-05   -0.35550E-03  1760   0.233E-01    0.932E-02
DAV:   8    -0.482468056238E+03   -0.98709E-04   -0.49407E-04  1720   0.859E-02    0.439E-02
DAV:   9    -0.482468094088E+03   -0.37851E-04   -0.92527E-05  1584   0.305E-02    0.180E-02
DAV:  10    -0.482468120387E+03   -0.26299E-04   -0.13672E-05   936   0.137E-02    0.946E-03
DAV:  11    -0.482468134900E+03   -0.14513E-04   -0.48084E-06   904   0.907E-03    0.295E-03
DAV:  12    -0.482468146130E+03   -0.11229E-04   -0.22358E-06   888   0.501E-03    0.154E-03
DAV:  13    -0.482468154212E+03   -0.80821E-05   -0.11013E-06   912   0.369E-03
  35 F= -.48246815E+03 E0= -.48242962E+03  d E =-.612953E-01
       N       E                     dE             d eps       ncg     rms          rms(c)
DAV:   1    -0.482196131585E+03    0.27201E+00   -0.17242E+02  1392   0.357E+01    0.285E+00
DAV:   2    -0.482513481063E+03   -0.31735E+00   -0.33717E+00  1824   0.567E+00    0.380E+00
DAV:   3    -0.482619204114E+03   -0.10572E+00   -0.75628E-01  1976   0.448E+00    0.526E+00
DAV:   4    -0.482450615880E+03    0.16859E+00   -0.22720E-01  1984   0.334E+00    0.167E+00
DAV:   5    -0.482472969800E+03   -0.22354E-01   -0.12647E-01  1976   0.265E+00    0.251E+00
DAV:   6    -0.482439288135E+03    0.33682E-01   -0.85622E-02  1976   0.201E+00    0.828E-01
DAV:   7    -0.482438000170E+03    0.12880E-02   -0.16741E-02  1824   0.562E-01    0.275E-01
DAV:   8    -0.482438058452E+03   -0.58282E-04   -0.26946E-03  1760   0.239E-01    0.112E-01
DAV:   9    -0.482438185533E+03   -0.12708E-03   -0.53811E-04  1728   0.823E-02    0.430E-02
DAV:  10    -0.482438272199E+03   -0.86665E-04   -0.88645E-05  1616   0.345E-02    0.258E-02
DAV:  11    -0.482438323108E+03   -0.50910E-04   -0.17958E-05  1048   0.167E-02    0.689E-03
DAV:  12    -0.482438361491E+03   -0.38382E-04   -0.59017E-06   896   0.875E-03    0.450E-03
DAV:  13    -0.482438385013E+03   -0.23522E-04   -0.31005E-06   920   0.662E-03    0.220E-03
DAV:  14    -0.482438414286E+03   -0.29273E-04   -0.36176E-06   936   0.435E-03    0.226E-03
DAV:  15    -0.482438441247E+03   -0.26961E-04   -0.39228E-06   928   0.441E-03    0.120E-03
DAV:  16    -0.482438451877E+03   -0.10630E-04   -0.16459E-06   936   0.338E-03    0.807E-04
DAV:  17    -0.482438457776E+03   -0.58995E-05   -0.10701E-06   896   0.262E-03
  36 F= -.48243846E+03 E0= -.48240018E+03  d E =-.315989E-01
       N       E                     dE             d eps       ncg     rms          rms(c)
DAV:   1    -0.482352327206E+03    0.86125E-01   -0.89268E+01  1400   0.257E+01    0.218E+00
DAV:   2    -0.482628971982E+03   -0.27664E+00   -0.20041E+00  1888   0.604E+00    0.492E+00
DAV:   3    -0.482511719465E+03    0.11725E+00   -0.41894E-01  1976   0.420E+00    0.277E+00
DAV:   4    -0.482493482203E+03    0.18237E-01   -0.11405E-01  1968   0.208E+00    0.188E+00
DAV:   5    -0.482482560965E+03    0.10921E-01   -0.76939E-02  1984   0.196E+00    0.125E+00
DAV:   6    -0.482474818744E+03    0.77422E-02   -0.27125E-02  1944   0.107E+00    0.569E-01
DAV:   7    -0.482473850540E+03    0.96820E-03   -0.70786E-03  1776   0.327E-01    0.217E-01
DAV:   8    -0.482473960969E+03   -0.11043E-03   -0.13938E-03  1856   0.167E-01    0.700E-02
DAV:   9    -0.482474050845E+03   -0.89877E-04   -0.22297E-04  1672   0.505E-02    0.296E-02
DAV:  10    -0.482474092376E+03   -0.41531E-04   -0.32266E-05  1200   0.194E-02    0.128E-02
DAV:  11    -0.482474116708E+03   -0.24332E-04   -0.80194E-06   896   0.103E-02    0.394E-03
DAV:  12    -0.482474133747E+03   -0.17039E-04   -0.25902E-06   880   0.633E-03    0.243E-03
DAV:  13    -0.482474150446E+03   -0.16699E-04   -0.15482E-06   896   0.398E-03    0.143E-03
DAV:  14    -0.482474166522E+03   -0.16076E-04   -0.15173E-06   920   0.360E-03    0.144E-03
DAV:  15    -0.482474177659E+03   -0.11137E-04   -0.13588E-06   912   0.291E-03    0.776E-04
DAV:  16    -0.482474183410E+03   -0.57511E-05   -0.92612E-07   896   0.254E-03
  37 F= -.48247418E+03 E0= -.48243570E+03  d E =-.673245E-01
       N       E                     dE             d eps       ncg     rms          rms(c)
DAV:   1    -0.482490893371E+03   -0.16716E-01   -0.56178E+00  1408   0.643E+00    0.452E-01
DAV:   2    -0.482498837656E+03   -0.79443E-02   -0.10092E-01  1800   0.101E+00    0.407E-01
DAV:   3    -0.482503499894E+03   -0.46622E-02   -0.13806E-02  2016   0.707E-01    0.103E+00
DAV:   4    -0.482497561284E+03    0.59386E-02   -0.75851E-03  1960   0.582E-01    0.200E-01
DAV:   5    -0.482497966838E+03   -0.40555E-03   -0.14099E-03  1712   0.147E-01    0.113E-01
DAV:   6    -0.482498201159E+03   -0.23432E-03   -0.10539E-03  1936   0.227E-01    0.200E-01
DAV:   7    -0.482497930190E+03    0.27097E-03   -0.42555E-04  1520   0.154E-01    0.213E-02
DAV:   8    -0.482497948061E+03   -0.17871E-04   -0.29921E-05  1072   0.196E-02    0.107E-02
DAV:   9    -0.482497951659E+03   -0.35977E-05   -0.70803E-06   904   0.115E-02
  38 F= -.48249795E+03 E0= -.48245947E+03  d E =-.237682E-01
       N       E                     dE             d eps       ncg     rms          rms(c)
DAV:   1    -0.482493892017E+03    0.40560E-02   -0.50521E+01  1408   0.193E+01    0.143E+00
DAV:   2    -0.482564326684E+03   -0.70435E-01   -0.91143E-01  1728   0.286E+00    0.930E-01
DAV:   3    -0.482578863329E+03   -0.14537E-01   -0.65878E-02  2000   0.149E+00    0.199E+00
DAV:   4    -0.482560726231E+03    0.18137E-01   -0.48100E-02  1960   0.152E+00    0.936E-01
DAV:   5    -0.482568860694E+03   -0.81345E-02   -0.22938E-02  1960   0.977E-01    0.120E+00
DAV:   6    -0.482557770399E+03    0.11090E-01   -0.19049E-02  1960   0.102E+00    0.227E-01
DAV:   7    -0.482558403279E+03   -0.63288E-03   -0.17426E-03  1808   0.186E-01    0.542E-02
DAV:   8    -0.482558433734E+03   -0.30455E-04   -0.24438E-04  1752   0.484E-02    0.319E-02
DAV:   9    -0.482558466756E+03   -0.33022E-04   -0.44049E-05  1072   0.255E-02    0.147E-02
DAV:  10    -0.482558484724E+03   -0.17968E-04   -0.12714E-05   888   0.137E-02    0.638E-03
DAV:  11    -0.482558496685E+03   -0.11961E-04   -0.44232E-06   920   0.784E-03    0.324E-03
DAV:  12    -0.482558506667E+03   -0.99820E-05   -0.19074E-06   888   0.483E-03
  39 F= -.48255851E+03 E0= -.48251997E+03  d E =-.843233E-01
       N       E                     dE             d eps       ncg     rms          rms(c)
DAV:   1    -0.482339496555E+03    0.21900E+00   -0.20110E+02  1392   0.385E+01    0.329E+00
DAV:   2    -0.482654049664E+03   -0.31455E+00   -0.39695E+00  1712   0.587E+00    0.190E+00
DAV:   3    -0.482701575034E+03   -0.47525E-01   -0.22901E-01  2024   0.262E+00    0.399E+00
DAV:   4    -0.482641194500E+03    0.60381E-01   -0.19338E-01  1984   0.239E+00    0.198E+00
DAV:   5    -0.482699842068E+03   -0.58648E-01   -0.16720E-01  2000   0.291E+00    0.316E+00
DAV:   6    -0.482624623688E+03    0.75218E-01   -0.12446E-01  1968   0.272E+00    0.500E-01
DAV:   7    -0.482626569440E+03   -0.19458E-02   -0.11881E-02  1808   0.398E-01    0.178E-01
DAV:   8    -0.482626617912E+03   -0.48472E-04   -0.15666E-03  1760   0.139E-01    0.796E-02
DAV:   9    -0.482626716184E+03   -0.98272E-04   -0.24806E-04  1728   0.588E-02    0.383E-02
DAV:  10    -0.482626792502E+03   -0.76318E-04   -0.60864E-05  1416   0.279E-02    0.212E-02
DAV:  11    -0.482626841527E+03   -0.49026E-04   -0.13445E-05   960   0.154E-02    0.755E-03
DAV:  12    -0.482626881182E+03   -0.39654E-04   -0.72750E-06   936   0.971E-03    0.424E-03
DAV:  13    -0.482626908601E+03   -0.27419E-04   -0.33884E-06   944   0.569E-03    0.216E-03
DAV:  14    -0.482626935668E+03   -0.27067E-04   -0.32235E-06   904   0.464E-03    0.217E-03
DAV:  15    -0.482626959422E+03   -0.23754E-04   -0.34352E-06   968   0.450E-03    0.143E-03
DAV:  16    -0.482626971588E+03   -0.12166E-04   -0.22385E-06   904   0.374E-03    0.914E-04
DAV:  17    -0.482626978191E+03   -0.66033E-05   -0.15092E-06   912   0.300E-03
  40 F= -.48262698E+03 E0= -.48258835E+03  d E =-.152795E+00
       N       E                     dE             d eps       ncg     rms          rms(c)
DAV:   1    -0.482666970993E+03   -0.39999E-01   -0.24190E+01  1408   0.134E+01    0.100E+00
DAV:   2    -0.482713713160E+03   -0.46742E-01   -0.45499E-01  1696   0.208E+00    0.156E+00
DAV:   3    -0.482713953278E+03   -0.24012E-03   -0.84383E-02  2032   0.186E+00    0.177E+00
DAV:   4    -0.482705909837E+03    0.80434E-02   -0.39893E-02  1968   0.117E+00    0.121E+00
DAV:   5    -0.482698506453E+03    0.74034E-02   -0.22189E-02  1976   0.106E+00    0.500E-01
DAV:   6    -0.482697913662E+03    0.59279E-03   -0.49393E-03  1808   0.371E-01    0.120E-01
DAV:   7    -0.482698001874E+03   -0.88212E-04   -0.10745E-03  1688   0.106E-01    0.502E-02
DAV:   8    -0.482698037861E+03   -0.35987E-04   -0.15673E-04  1672   0.455E-02    0.288E-02
DAV:   9    -0.482698059575E+03   -0.21715E-04   -0.31567E-05  1168   0.182E-02    0.131E-02
DAV:  10    -0.482698072933E+03   -0.13357E-04   -0.61530E-06   888   0.102E-02    0.410E-03
DAV:  11    -0.482698080697E+03   -0.77645E-05   -0.27475E-06   880   0.627E-03
  41 F= -.48269808E+03 E0= -.48265961E+03  d E =-.711025E-01
       N       E                     dE             d eps       ncg     rms          rms(c)
DAV:   1    -0.482554798858E+03    0.14327E+00   -0.21642E+02  1392   0.401E+01    0.376E+00
DAV:   2    -0.483042830354E+03   -0.48803E+00   -0.46279E+00  1736   0.678E+00    0.495E+00
DAV:   3    -0.483202577378E+03   -0.15975E+00   -0.11741E+00  2024   0.721E+00    0.859E+00
DAV:   4    -0.482947797213E+03    0.25478E+00   -0.92911E-01  1968   0.421E+00    0.378E+00
DAV:   5    -0.482879584649E+03    0.68213E-01   -0.19124E-01  2000   0.301E+00    0.168E+00
DAV:   6    -0.482866880830E+03    0.12704E-01   -0.48691E-02  1904   0.135E+00    0.107E+00
DAV:   7    -0.482864534663E+03    0.23462E-02   -0.19394E-02  1792   0.506E-01    0.389E-01
DAV:   8    -0.482864171259E+03    0.36340E-03   -0.28060E-03  1880   0.241E-01    0.146E-01
DAV:   9    -0.482864423983E+03   -0.25272E-03   -0.77403E-04  1792   0.982E-02    0.550E-02
DAV:  10    -0.482864595581E+03   -0.17160E-03   -0.13957E-04  1632   0.394E-02    0.257E-02
DAV:  11    -0.482864668618E+03   -0.73036E-04   -0.23078E-05  1112   0.180E-02    0.849E-03
DAV:  12    -0.482864717711E+03   -0.49093E-04   -0.82522E-06   952   0.112E-02    0.804E-03
DAV:  13    -0.482864747442E+03   -0.29731E-04   -0.38314E-06   912   0.676E-03    0.459E-03
DAV:  14    -0.482864786844E+03   -0.39402E-04   -0.60374E-06   976   0.493E-03    0.179E-03
DAV:  15    -0.482864813835E+03   -0.26991E-04   -0.29301E-06   952   0.422E-03    0.179E-03
DAV:  16    -0.482864824545E+03   -0.10709E-04   -0.17239E-06   920   0.338E-03    0.117E-03
DAV:  17    -0.482864839376E+03   -0.14831E-04   -0.25796E-06   936   0.303E-03    0.121E-03
DAV:  18    -0.482864844044E+03   -0.46688E-05   -0.11451E-06   920   0.302E-03
  42 F= -.48286484E+03 E0= -.48282712E+03  d E =-.237866E+00
       N       E                     dE             d eps       ncg     rms          rms(c)
DAV:   1    -0.481251991776E+03    0.16128E+01   -0.84666E+02  1392   0.796E+01    0.114E+01
DAV:   2    -0.483845754621E+03   -0.25938E+01   -0.24990E+01  1808   0.161E+01    0.112E+01
DAV:   3    -0.487108913392E+03   -0.32632E+01   -0.13372E+01  1976   0.225E+01    0.292E+01
DAV:   4    -0.483369528384E+03    0.37394E+01   -0.95487E+00  1968   0.951E+00    0.836E+00
DAV:   5    -0.483073013016E+03    0.29652E+00   -0.11828E+00  1992   0.660E+00    0.493E+00
DAV:   6    -0.482935027938E+03    0.13799E+00   -0.22504E-01  1952   0.313E+00    0.259E+00
DAV:   7    -0.482936554586E+03   -0.15266E-02   -0.10048E-01  1928   0.122E+00    0.181E+00
DAV:   8    -0.482930998759E+03    0.55558E-02   -0.43657E-02  1824   0.856E-01    0.629E-01
DAV:   9    -0.482929214105E+03    0.17847E-02   -0.77283E-03  1848   0.315E-01    0.463E-01
DAV:  10    -0.482928504186E+03    0.70992E-03   -0.23480E-03  1880   0.182E-01    0.274E-01
DAV:  11    -0.482928739096E+03   -0.23491E-03   -0.57797E-04  1832   0.895E-02    0.164E-01
DAV:  12    -0.482928903789E+03   -0.16469E-03   -0.15729E-04  1888   0.609E-02    0.684E-02
DAV:  13    -0.482929110729E+03   -0.20694E-03   -0.88470E-05  1704   0.334E-02    0.285E-02
DAV:  14    -0.482929211620E+03   -0.10089E-03   -0.14778E-05  1072   0.165E-02    0.106E-02
DAV:  15    -0.482929305876E+03   -0.94256E-04   -0.13348E-05  1080   0.118E-02    0.596E-03
DAV:  16    -0.482929348302E+03   -0.42426E-04   -0.41676E-06   976   0.734E-03    0.318E-03
DAV:  17    -0.482929387698E+03   -0.39396E-04   -0.46423E-06  1008   0.497E-03    0.281E-03
DAV:  18    -0.482929428324E+03   -0.40627E-04   -0.54526E-06   992   0.477E-03    0.185E-03
DAV:  19    -0.482929442128E+03   -0.13804E-04   -0.25110E-06   936   0.417E-03    0.138E-03
DAV:  20    -0.482929449634E+03   -0.75064E-05   -0.18843E-06   960   0.321E-03
  43 F= -.48292945E+03 E0= -.48289494E+03  d E =-.302471E+00
       N       E                     dE             d eps       ncg     rms          rms(c)
DAV:   1    -0.482766375732E+03    0.16307E+00   -0.13722E+02  1408   0.319E+01    0.246E+00
DAV:   2    -0.483046780660E+03   -0.28040E+00   -0.27066E+00  1792   0.518E+00    0.381E+00
DAV:   3    -0.483051653684E+03   -0.48730E-02   -0.53117E-01  2048   0.412E+00    0.364E+00
DAV:   4    -0.482989100492E+03    0.62553E-01   -0.15845E-01  1968   0.251E+00    0.244E+00
DAV:   5    -0.482969133756E+03    0.19967E-01   -0.12143E-01  1992   0.237E+00    0.173E+00
DAV:   6    -0.482955161453E+03    0.13972E-01   -0.41693E-02  1848   0.115E+00    0.449E-01
DAV:   7    -0.482955475801E+03   -0.31435E-03   -0.60001E-03  1840   0.290E-01    0.140E-01
DAV:   8    -0.482955555956E+03   -0.80156E-04   -0.91018E-04  1760   0.121E-01    0.656E-02
DAV:   9    -0.482955634983E+03   -0.79027E-04   -0.15205E-04  1624   0.396E-02    0.322E-02
DAV:  10    -0.482955704008E+03   -0.69025E-04   -0.37003E-05  1328   0.204E-02    0.175E-02
DAV:  11    -0.482955746833E+03   -0.42824E-04   -0.58381E-06   904   0.110E-02    0.569E-03
DAV:  12    -0.482955788931E+03   -0.42098E-04   -0.50037E-06   984   0.597E-03    0.286E-03
DAV:  13    -0.482955822760E+03   -0.33830E-04   -0.21864E-06   912   0.429E-03    0.218E-03
DAV:  14    -0.482955854537E+03   -0.31777E-04   -0.29917E-06   992   0.390E-03    0.143E-03
DAV:  15    -0.482955874113E+03   -0.19576E-04   -0.18997E-06   928   0.358E-03    0.146E-03
DAV:  16    -0.482955884045E+03   -0.99321E-05   -0.13660E-06   960   0.319E-03
  44 F= -.48295588E+03 E0= -.48291977E+03  d E =-.328906E+00
       N       E                     dE             d eps       ncg     rms          rms(c)
DAV:   1    -0.482993146461E+03   -0.37272E-01   -0.34799E+01  1408   0.161E+01    0.128E+00
DAV:   2    -0.483055868081E+03   -0.62722E-01   -0.67174E-01  1696   0.246E+00    0.161E+00
DAV:   3    -0.483071561952E+03   -0.15694E-01   -0.12703E-01  2024   0.229E+00    0.248E+00
DAV:   4    -0.483045184525E+03    0.26377E-01   -0.66615E-02  1968   0.141E+00    0.125E+00
DAV:   5    -0.483040391843E+03    0.47927E-02   -0.28441E-02  2016   0.117E+00    0.770E-01
DAV:   6    -0.483037981568E+03    0.24103E-02   -0.83538E-03  1904   0.544E-01    0.170E-01
DAV:   7    -0.483038220320E+03   -0.23875E-03   -0.16006E-03  1776   0.128E-01    0.615E-02
DAV:   8    -0.483038278359E+03   -0.58040E-04   -0.22285E-04  1792   0.532E-02    0.320E-02
DAV:   9    -0.483038323438E+03   -0.45078E-04   -0.43670E-05  1400   0.205E-02    0.154E-02
DAV:  10    -0.483038349998E+03   -0.26560E-04   -0.76480E-06   920   0.117E-02    0.599E-03
DAV:  11    -0.483038365068E+03   -0.15070E-04   -0.40558E-06   904   0.759E-03    0.272E-03
DAV:  12    -0.483038375122E+03   -0.10054E-04   -0.18974E-06   912   0.510E-03    0.219E-03
DAV:  13    -0.483038385224E+03   -0.10103E-04   -0.13192E-06   872   0.347E-03    0.993E-04
DAV:  14    -0.483038394611E+03   -0.93866E-05   -0.13336E-06   936   0.268E-03
  45 F= -.48303839E+03 E0= -.48300272E+03  d E =-.825106E-01
       N       E                     dE             d eps       ncg     rms          rms(c)
DAV:   1    -0.482715286704E+03    0.32310E+00   -0.30957E+02  1408   0.480E+01    0.515E+00
DAV:   2    -0.483388681157E+03   -0.67339E+00   -0.70844E+00  1768   0.805E+00    0.519E+00
DAV:   3    -0.484000703710E+03   -0.61202E+00   -0.19931E+00  2000   0.939E+00    0.130E+01
DAV:   4    -0.483265015212E+03    0.73569E+00   -0.21055E+00  1992   0.553E+00    0.370E+00
DAV:   5    -0.483226952657E+03    0.38063E-01   -0.26178E-01  1992   0.344E+00    0.268E+00
DAV:   6    -0.483186561696E+03    0.40391E-01   -0.87619E-02  1936   0.204E+00    0.114E+00
DAV:   7    -0.483187522749E+03   -0.96105E-03   -0.28949E-02  1656   0.502E-01    0.688E-01
DAV:   8    -0.483185652634E+03    0.18701E-02   -0.51704E-03  1904   0.367E-01    0.222E-01
DAV:   9    -0.483186029516E+03   -0.37688E-03   -0.14056E-03  1928   0.141E-01    0.735E-02
DAV:  10    -0.483186318194E+03   -0.28868E-03   -0.27446E-04  1752   0.526E-02    0.350E-02
DAV:  11    -0.483186453602E+03   -0.13541E-03   -0.42701E-05  1320   0.205E-02    0.147E-02
DAV:  12    -0.483186547575E+03   -0.93974E-04   -0.11045E-05   992   0.110E-02    0.995E-03
DAV:  13    -0.483186622869E+03   -0.75294E-04   -0.74612E-06   992   0.726E-03    0.598E-03
DAV:  14    -0.483186673103E+03   -0.50234E-04   -0.48061E-06   984   0.609E-03    0.232E-03
DAV:  15    -0.483186735488E+03   -0.62385E-04   -0.10139E-05  1016   0.568E-03    0.241E-03
DAV:  16    -0.483186762457E+03   -0.26970E-04   -0.46175E-06  1040   0.514E-03    0.172E-03
DAV:  17    -0.483186773233E+03   -0.10776E-04   -0.25375E-06   944   0.399E-03    0.112E-03
DAV:  18    -0.483186778642E+03   -0.54091E-05   -0.14533E-06   968   0.322E-03
  46 F= -.48318678E+03 E0= -.48315289E+03  d E =-.230895E+00
       N       E                     dE             d eps       ncg     rms          rms(c)
DAV:   1    -0.483136206551E+03    0.50567E-01   -0.45716E+01  1408   0.184E+01    0.154E+00
DAV:   2    -0.483219317875E+03   -0.83111E-01   -0.90212E-01  1752   0.287E+00    0.183E+00
DAV:   3    -0.483248306707E+03   -0.28989E-01   -0.17862E-01  1968   0.278E+00    0.306E+00
DAV:   4    -0.483200848518E+03    0.47458E-01   -0.89224E-02  1968   0.162E+00    0.119E+00
DAV:   5    -0.483201835175E+03   -0.98666E-03   -0.35224E-02  1984   0.129E+00    0.114E+00
DAV:   6    -0.483195527680E+03    0.63075E-02   -0.14723E-02  1928   0.788E-01    0.243E-01
DAV:   7    -0.483195833581E+03   -0.30590E-03   -0.23530E-03  1784   0.165E-01    0.841E-02
DAV:   8    -0.483195918556E+03   -0.84975E-04   -0.31496E-04  1888   0.642E-02    0.372E-02
DAV:   9    -0.483195989784E+03   -0.71228E-04   -0.56418E-05  1480   0.233E-02    0.181E-02
DAV:  10    -0.483196029126E+03   -0.39342E-04   -0.11127E-05   944   0.122E-02    0.746E-03
DAV:  11    -0.483196051838E+03   -0.22712E-04   -0.47624E-06   912   0.807E-03    0.324E-03
DAV:  12    -0.483196071080E+03   -0.19242E-04   -0.27811E-06   936   0.532E-03    0.252E-03
DAV:  13    -0.483196087132E+03   -0.16052E-04   -0.19231E-06   912   0.413E-03    0.119E-03
DAV:  14    -0.483196101976E+03   -0.14844E-04   -0.21950E-06   936   0.327E-03    0.953E-04
DAV:  15    -0.483196113431E+03   -0.11455E-04   -0.18453E-06   920   0.323E-03    0.937E-04
DAV:  16    -0.483196119265E+03   -0.58344E-05   -0.13240E-06   960   0.278E-03
  47 F= -.48319612E+03 E0= -.48316309E+03  d E =-.240235E+00
       N       E                     dE             d eps       ncg     rms          rms(c)
DAV:   1    -0.483289364753E+03   -0.93251E-01   -0.12808E+01  1376   0.985E+00    0.935E-01
DAV:   2    -0.483364312870E+03   -0.74948E-01   -0.33385E-01  1912   0.238E+00    0.289E+00
DAV:   3    -0.483307329114E+03    0.56984E-01   -0.11726E-01  1968   0.222E+00    0.941E-01
DAV:   4    -0.483317650752E+03   -0.10322E-01   -0.37118E-02  1936   0.117E+00    0.147E+00
DAV:   5    -0.483304590432E+03    0.13060E-01   -0.21422E-02  1984   0.102E+00    0.278E-01
DAV:   6    -0.483304852816E+03   -0.26238E-03   -0.27448E-03  1784   0.222E-01    0.114E-01
DAV:   7    -0.483304867086E+03   -0.14270E-04   -0.55866E-04  1816   0.917E-02    0.364E-02
DAV:   8    -0.483304893592E+03   -0.26506E-04   -0.68987E-05  1576   0.266E-02    0.228E-02
DAV:   9    -0.483304903646E+03   -0.10055E-04   -0.99839E-06   928   0.134E-02    0.808E-03
DAV:  10    -0.483304911720E+03   -0.80733E-05   -0.48168E-06   896   0.759E-03
  48 F= -.48330491E+03 E0= -.48327240E+03  d E =-.108792E+00
       N       E                     dE             d eps       ncg     rms          rms(c)
DAV:   1    -0.483344413260E+03   -0.39510E-01   -0.11501E+02  1384   0.295E+01    0.308E+00
DAV:   2    -0.484010041218E+03   -0.66563E+00   -0.33239E+00  1912   0.731E+00    0.835E+00
DAV:   3    -0.483526266389E+03    0.48377E+00   -0.23747E+00  1984   0.742E+00    0.288E+00
DAV:   4    -0.483568264552E+03   -0.41998E-01   -0.27690E-01  1952   0.288E+00    0.369E+00
DAV:   5    -0.483492667771E+03    0.75597E-01   -0.14564E-01  1992   0.265E+00    0.107E+00
DAV:   6    -0.483490782208E+03    0.18856E-02   -0.24989E-02  1944   0.858E-01    0.742E-01
DAV:   7    -0.483489049065E+03    0.17331E-02   -0.11163E-02  1800   0.451E-01    0.152E-01
DAV:   8    -0.483489385863E+03   -0.33680E-03   -0.16470E-03  1768   0.138E-01    0.805E-02
DAV:   9    -0.483489477014E+03   -0.91151E-04   -0.23424E-04  1640   0.492E-02    0.437E-02
DAV:  10    -0.483489544722E+03   -0.67708E-04   -0.47689E-05  1344   0.259E-02    0.135E-02
DAV:  11    -0.483489586474E+03   -0.41752E-04   -0.89027E-06   944   0.104E-02    0.536E-03
DAV:  12    -0.483489619271E+03   -0.32797E-04   -0.41228E-06   936   0.694E-03    0.295E-03
DAV:  13    -0.483489642823E+03   -0.23552E-04   -0.25828E-06   912   0.489E-03    0.152E-03
DAV:  14    -0.483489666214E+03   -0.23391E-04   -0.29599E-06   952   0.409E-03    0.121E-03
DAV:  15    -0.483489680268E+03   -0.14053E-04   -0.21348E-06   928   0.384E-03    0.826E-04
DAV:  16    -0.483489690138E+03   -0.98701E-05   -0.20435E-06   960   0.319E-03
  49 F= -.48348969E+03 E0= -.48345882E+03  d E =-.293571E+00
       N       E                     dE             d eps       ncg     rms          rms(c)
DAV:   1    -0.483485407079E+03    0.42732E-02   -0.15922E+01  1376   0.110E+01    0.106E+00
DAV:   2    -0.483582767014E+03   -0.97360E-01   -0.42835E-01  1936   0.273E+00    0.328E+00
DAV:   3    -0.483507153707E+03    0.75613E-01   -0.15768E-01  1960   0.254E+00    0.102E+00
DAV:   4    -0.483519858076E+03   -0.12704E-01   -0.44255E-02  1928   0.129E+00    0.163E+00
DAV:   5    -0.483503974304E+03    0.15884E-01   -0.25611E-02  1976   0.113E+00    0.322E-01
DAV:   6    -0.483504258786E+03   -0.28448E-03   -0.34167E-03  1832   0.256E-01    0.141E-01
DAV:   7    -0.483504256809E+03    0.19769E-05   -0.75184E-04  1856   0.109E-01    0.411E-02
DAV:   8    -0.483504291341E+03   -0.34532E-04   -0.91127E-05  1600   0.303E-02    0.256E-02
DAV:   9    -0.483504304746E+03   -0.13405E-04   -0.12121E-05   952   0.147E-02    0.932E-03
DAV:  10    -0.483504315508E+03   -0.10762E-04   -0.61213E-06   912   0.847E-03    0.373E-03
DAV:  11    -0.483504320707E+03   -0.51993E-05   -0.17553E-06   912   0.559E-03
  50 F= -.48350432E+03 E0= -.48347408E+03  d E =-.308201E+00
       N       E                     dE             d eps       ncg     rms          rms(c)
DAV:   1    -0.483614628830E+03   -0.11031E+00   -0.42324E+01  1408   0.178E+01    0.140E+00
DAV:   2    -0.483691545609E+03   -0.76917E-01   -0.83915E-01  1784   0.280E+00    0.167E+00
DAV:   3    -0.483717589367E+03   -0.26044E-01   -0.15528E-01  2032   0.236E+00    0.288E+00
DAV:   4    -0.483675848603E+03    0.41741E-01   -0.82752E-02  1968   0.151E+00    0.101E+00
DAV:   5    -0.483679776006E+03   -0.39274E-02   -0.32268E-02  1976   0.123E+00    0.115E+00
DAV:   6    -0.483672665061E+03    0.71109E-02   -0.14085E-02  1920   0.809E-01    0.224E-01
DAV:   7    -0.483672932778E+03   -0.26772E-03   -0.22074E-03  1816   0.155E-01    0.722E-02
DAV:   8    -0.483673013709E+03   -0.80931E-04   -0.28702E-04  1776   0.591E-02    0.340E-02
DAV:   9    -0.483673072907E+03   -0.59198E-04   -0.46380E-05  1392   0.234E-02    0.162E-02
DAV:  10    -0.483673113711E+03   -0.40804E-04   -0.10311E-05   936   0.117E-02    0.637E-03
DAV:  11    -0.483673140850E+03   -0.27139E-04   -0.41218E-06   944   0.737E-03    0.287E-03
DAV:  12    -0.483673165917E+03   -0.25067E-04   -0.30079E-06   944   0.514E-03    0.246E-03
DAV:  13    -0.483673187951E+03   -0.22034E-04   -0.26892E-06   920   0.473E-03    0.134E-03
DAV:  14    -0.483673205776E+03   -0.17825E-04   -0.32003E-06   960   0.393E-03    0.108E-03
DAV:  15    -0.483673216222E+03   -0.10446E-04   -0.22946E-06   960   0.379E-03    0.966E-04
DAV:  16    -0.483673220585E+03   -0.43626E-05   -0.14437E-06   960   0.307E-03
  51 F= -.48367322E+03 E0= -.48364326E+03  d E =-.168900E+00
       N       E                     dE             d eps       ncg     rms          rms(c)
DAV:   1    -0.483631984165E+03    0.41232E-01   -0.94678E+01  1408   0.267E+01    0.224E+00
DAV:   2    -0.483815233081E+03   -0.18325E+00   -0.19511E+00  1800   0.435E+00    0.265E+00
DAV:   3    -0.483887117140E+03   -0.71884E-01   -0.40697E-01  2008   0.388E+00    0.481E+00
DAV:   4    -0.483775737469E+03    0.11138E+00   -0.25410E-01  1984   0.242E+00    0.157E+00
DAV:   5    -0.483782212674E+03   -0.64752E-02   -0.72076E-02  1992   0.183E+00    0.170E+00
DAV:   6    -0.483766234948E+03    0.15978E-01   -0.32085E-02  1920   0.122E+00    0.447E-01
DAV:   7    -0.483766372673E+03   -0.13773E-03   -0.58313E-03  1824   0.255E-01    0.147E-01
DAV:   8    -0.483766516696E+03   -0.14402E-03   -0.79353E-04  1920   0.106E-01    0.571E-02
DAV:   9    -0.483766648664E+03   -0.13197E-03   -0.13164E-04  1696   0.390E-02    0.263E-02
DAV:  10    -0.483766728626E+03   -0.79962E-04   -0.22422E-05  1032   0.161E-02    0.990E-03
DAV:  11    -0.483766780430E+03   -0.51803E-04   -0.81605E-06   944   0.103E-02    0.511E-03
DAV:  12    -0.483766821670E+03   -0.41240E-04   -0.50742E-06   976   0.703E-03    0.314E-03
DAV:  13    -0.483766862571E+03   -0.40901E-04   -0.51965E-06   920   0.590E-03    0.173E-03
DAV:  14    -0.483766895669E+03   -0.33098E-04   -0.59049E-06  1000   0.571E-03    0.169E-03
DAV:  15    -0.483766911771E+03   -0.16102E-04   -0.39466E-06   952   0.518E-03    0.101E-03
DAV:  16    -0.483766919686E+03   -0.79147E-05   -0.28257E-06   976   0.411E-03
  52 F= -.48376692E+03 E0= -.48373732E+03  d E =-.262599E+00
       N       E                     dE             d eps       ncg     rms          rms(c)
DAV:   1    -0.483837746915E+03   -0.70835E-01   -0.71610E+01  1408   0.232E+01    0.182E+00
DAV:   2    -0.483960363502E+03   -0.12262E+00   -0.13928E+00  1688   0.351E+00    0.199E+00
DAV:   3    -0.484019725894E+03   -0.59362E-01   -0.27240E-01  2024   0.309E+00    0.409E+00
DAV:   4    -0.483938348323E+03    0.81378E-01   -0.18394E-01  1984   0.204E+00    0.117E+00
DAV:   5    -0.483950100582E+03   -0.11752E-01   -0.58227E-02  1992   0.162E+00    0.162E+00
DAV:   6    -0.483933892462E+03    0.16208E-01   -0.27007E-02  1968   0.115E+00    0.303E-01
DAV:   7    -0.483934319584E+03   -0.42712E-03   -0.38430E-03  1776   0.194E-01    0.942E-02
DAV:   8    -0.483934411444E+03   -0.91860E-04   -0.44040E-04  1832   0.749E-02    0.416E-02
DAV:   9    -0.483934486037E+03   -0.74593E-04   -0.68900E-05  1544   0.279E-02    0.190E-02
DAV:  10    -0.483934523598E+03   -0.37562E-04   -0.11490E-05   976   0.138E-02    0.768E-03
DAV:  11    -0.483934546930E+03   -0.23332E-04   -0.47383E-06   936   0.869E-03    0.346E-03
DAV:  12    -0.483934564974E+03   -0.18044E-04   -0.27779E-06   944   0.562E-03    0.217E-03
DAV:  13    -0.483934579765E+03   -0.14790E-04   -0.20161E-06   928   0.443E-03    0.137E-03
DAV:  14    -0.483934594317E+03   -0.14553E-04   -0.22405E-06   952   0.344E-03    0.106E-03
DAV:  15    -0.483934605488E+03   -0.11171E-04   -0.19791E-06   944   0.331E-03    0.905E-04
DAV:  16    -0.483934610490E+03   -0.50020E-05   -0.13233E-06   960   0.290E-03
  53 F= -.48393461E+03 E0= -.48390608E+03  d E =-.167691E+00
       N       E                     dE             d eps       ncg     rms          rms(c)
DAV:   1    -0.483927483304E+03    0.71222E-02   -0.27510E+01  1408   0.144E+01    0.108E+00
DAV:   2    -0.483972943701E+03   -0.45460E-01   -0.52139E-01  1712   0.213E+00    0.122E+00
DAV:   3    -0.483991056805E+03   -0.18113E-01   -0.99552E-02  2008   0.180E+00    0.227E+00
DAV:   4    -0.483964430407E+03    0.26626E-01   -0.56722E-02  1976   0.120E+00    0.684E-01
DAV:   5    -0.483970171065E+03   -0.57407E-02   -0.22683E-02  1960   0.102E+00    0.105E+00
DAV:   6    -0.483963511857E+03    0.66592E-02   -0.11002E-02  1976   0.736E-01    0.154E-01
DAV:   7    -0.483963763580E+03   -0.25172E-03   -0.13247E-03  1808   0.114E-01    0.496E-02
DAV:   8    -0.483963798280E+03   -0.34700E-04   -0.14157E-04  1720   0.412E-02    0.247E-02
DAV:   9    -0.483963827384E+03   -0.29104E-04   -0.20899E-05  1008   0.169E-02    0.108E-02
DAV:  10    -0.483963841827E+03   -0.14444E-04   -0.63546E-06   920   0.111E-02    0.419E-03
DAV:  11    -0.483963850785E+03   -0.89576E-05   -0.26885E-06   944   0.683E-03
  54 F= -.48396385E+03 E0= -.48393597E+03  d E =-.196931E+00
       N       E                     dE             d eps       ncg     rms          rms(c)
DAV:   1    -0.484038327260E+03   -0.74485E-01   -0.71345E+01  1344   0.233E+01    0.187E+00
DAV:   2    -0.484277278085E+03   -0.23895E+00   -0.15975E+00  1912   0.471E+00    0.428E+00
DAV:   3    -0.484157041389E+03    0.12024E+00   -0.41400E-01  1968   0.389E+00    0.204E+00
DAV:   4    -0.484161970277E+03   -0.49289E-02   -0.11529E-01  1936   0.181E+00    0.217E+00
DAV:   5    -0.484138240273E+03    0.23730E-01   -0.66219E-02  1992   0.176E+00    0.902E-01
DAV:   6    -0.484135535480E+03    0.27048E-02   -0.14718E-02  1912   0.681E-01    0.356E-01
DAV:   7    -0.484135287858E+03    0.24762E-03   -0.38309E-03  1872   0.246E-01    0.704E-02
DAV:   8    -0.484135419729E+03   -0.13187E-03   -0.39039E-04  1744   0.624E-02    0.452E-02
DAV:   9    -0.484135469202E+03   -0.49473E-04   -0.46176E-05  1344   0.276E-02    0.195E-02
DAV:  10    -0.484135508157E+03   -0.38956E-04   -0.12949E-05   952   0.156E-02    0.681E-03
DAV:  11    -0.484135536598E+03   -0.28440E-04   -0.57495E-06   904   0.108E-02    0.356E-03
DAV:  12    -0.484135555644E+03   -0.19047E-04   -0.34274E-06   944   0.647E-03    0.200E-03
DAV:  13    -0.484135580598E+03   -0.24953E-04   -0.36167E-06   936   0.482E-03    0.135E-03
DAV:  14    -0.484135599033E+03   -0.18435E-04   -0.30763E-06   936   0.423E-03    0.115E-03
DAV:  15    -0.484135608699E+03   -0.96664E-05   -0.22197E-06   936   0.364E-03
  55 F= -.48413561E+03 E0= -.48410947E+03  d E =-.171758E+00
       N       E                     dE             d eps       ncg     rms          rms(c)
DAV:   1    -0.484106486921E+03    0.29112E-01   -0.58861E+01  1344   0.211E+01    0.168E+00
DAV:   2    -0.484301153894E+03   -0.19467E+00   -0.13114E+00  1896   0.427E+00    0.388E+00
DAV:   3    -0.484203072093E+03    0.98082E-01   -0.33857E-01  1968   0.347E+00    0.182E+00
DAV:   4    -0.484205834641E+03   -0.27625E-02   -0.88955E-02  1936   0.159E+00    0.189E+00
DAV:   5    -0.484188531298E+03    0.17303E-01   -0.53277E-02  1992   0.159E+00    0.853E-01
DAV:   6    -0.484186046080E+03    0.24852E-02   -0.12241E-02  1888   0.634E-01    0.294E-01
DAV:   7    -0.484185942786E+03    0.10329E-03   -0.29101E-03  1872   0.207E-01    0.630E-02
DAV:   8    -0.484186038729E+03   -0.95944E-04   -0.28892E-04  1736   0.542E-02    0.396E-02
DAV:   9    -0.484186077355E+03   -0.38625E-04   -0.33841E-05  1168   0.244E-02    0.163E-02
DAV:  10    -0.484186107312E+03   -0.29958E-04   -0.12368E-05   928   0.154E-02    0.607E-03
DAV:  11    -0.484186127336E+03   -0.20024E-04   -0.49737E-06   920   0.104E-02    0.307E-03
DAV:  12    -0.484186144191E+03   -0.16855E-04   -0.30763E-06   904   0.598E-03    0.175E-03
DAV:  13    -0.484186162574E+03   -0.18382E-04   -0.28142E-06   968   0.454E-03    0.112E-03
DAV:  14    -0.484186176565E+03   -0.13991E-04   -0.23285E-06   920   0.373E-03    0.978E-04
DAV:  15    -0.484186184857E+03   -0.82923E-05   -0.17788E-06   936   0.329E-03
  56 F= -.48418618E+03 E0= -.48416147E+03  d E =-.222334E+00
       N       E                     dE             d eps       ncg     rms          rms(c)
DAV:   1    -0.484245708093E+03   -0.59532E-01   -0.64457E+01  1360   0.221E+01    0.159E+00
DAV:   2    -0.484345002734E+03   -0.99295E-01   -0.12405E+00  1760   0.328E+00    0.108E+00
DAV:   3    -0.484364545765E+03   -0.19543E-01   -0.89397E-02  1976   0.181E+00    0.218E+00
DAV:   4    -0.484340760484E+03    0.23785E-01   -0.64296E-02  1960   0.171E+00    0.954E-01
DAV:   5    -0.484344651152E+03   -0.38907E-02   -0.25433E-02  1984   0.895E-01    0.118E+00
DAV:   6    -0.484337675960E+03    0.69752E-02   -0.25476E-02  1968   0.897E-01    0.559E-01
DAV:   7    -0.484337230329E+03    0.44563E-03   -0.47159E-03  1944   0.321E-01    0.968E-02
DAV:   8    -0.484337272930E+03   -0.42601E-04   -0.46113E-04  1816   0.756E-02    0.481E-02
DAV:   9    -0.484337311158E+03   -0.38228E-04   -0.57085E-05  1296   0.302E-02    0.149E-02
DAV:  10    -0.484337351112E+03   -0.39954E-04   -0.14223E-05   968   0.141E-02    0.612E-03
DAV:  11    -0.484337368458E+03   -0.17346E-04   -0.42969E-06   928   0.934E-03    0.349E-03
DAV:  12    -0.484337394921E+03   -0.26463E-04   -0.38315E-06   912   0.536E-03    0.159E-03
DAV:  13    -0.484337414730E+03   -0.19809E-04   -0.29236E-06   952   0.466E-03    0.146E-03
DAV:  14    -0.484337427227E+03   -0.12496E-04   -0.23089E-06   944   0.389E-03    0.106E-03
DAV:  15    -0.484337436882E+03   -0.96550E-05   -0.22222E-06   920   0.349E-03
  57 F= -.48433744E+03 E0= -.48431315E+03  d E =-.151252E+00
       N       E                     dE             d eps       ncg     rms          rms(c)
DAV:   1    -0.484285256411E+03    0.52171E-01   -0.76344E+01  1376   0.241E+01    0.176E+00
DAV:   2    -0.484403524832E+03   -0.11827E+00   -0.14722E+00  1776   0.360E+00    0.122E+00
DAV:   3    -0.484438899001E+03   -0.35374E-01   -0.12984E-01  1976   0.216E+00    0.282E+00
DAV:   4    -0.484396150274E+03    0.42749E-01   -0.92868E-02  1944   0.189E+00    0.939E-01
DAV:   5    -0.484397764062E+03   -0.16138E-02   -0.21586E-02  1976   0.821E-01    0.996E-01
DAV:   6    -0.484396079061E+03    0.16850E-02   -0.28337E-02  1968   0.954E-01    0.857E-01
DAV:   7    -0.484393243412E+03    0.28356E-02   -0.88264E-03  2000   0.470E-01    0.115E-01
DAV:   8    -0.484393407331E+03   -0.16392E-03   -0.64500E-04  1808   0.909E-02    0.567E-02
DAV:   9    -0.484393434063E+03   -0.26733E-04   -0.70548E-05  1368   0.313E-02    0.175E-02
DAV:  10    -0.484393483206E+03   -0.49142E-04   -0.18891E-05   992   0.147E-02    0.841E-03
DAV:  11    -0.484393504744E+03   -0.21538E-04   -0.46553E-06   928   0.936E-03    0.326E-03
DAV:  12    -0.484393533198E+03   -0.28454E-04   -0.35709E-06   920   0.536E-03    0.194E-03
DAV:  13    -0.484393556775E+03   -0.23577E-04   -0.30080E-06   912   0.485E-03    0.133E-03
DAV:  14    -0.484393573442E+03   -0.16667E-04   -0.28567E-06   976   0.397E-03    0.109E-03
[...]
DAV:   4    -0.485674634333E+03    0.12457E-01   -0.23860E-02  1968   0.798E-01    0.509E-01
DAV:   5    -0.485679155760E+03   -0.45214E-02   -0.15407E-02  1976   0.761E-01    0.850E-01
DAV:   6    -0.485674799239E+03    0.43565E-02   -0.83554E-03  1936   0.559E-01    0.125E-01
DAV:   7    -0.485675048851E+03   -0.24961E-03   -0.10733E-03  1768   0.963E-02    0.413E-02
DAV:   8    -0.485675063353E+03   -0.14502E-04   -0.90552E-05  1632   0.299E-02    0.234E-02
DAV:   9    -0.485675079177E+03   -0.15824E-04   -0.15627E-05   920   0.143E-02    0.843E-03
DAV:  10    -0.485675087997E+03   -0.88203E-05   -0.54760E-06   920   0.943E-03
  95 F= -.48567509E+03 E0= -.48565446E+03  d E =-.189199E-01
       N       E                     dE             d eps       ncg     rms          rms(c)
DAV:   1    -0.485673528810E+03    0.15504E-02   -0.20346E+00  1376   0.393E+00    0.263E-01
DAV:   2    -0.485677115585E+03   -0.35868E-02   -0.37032E-02  1712   0.578E-01    0.425E-01
DAV:   3    -0.485677257523E+03   -0.14194E-03   -0.66539E-03  1992   0.411E-01    0.484E-01
DAV:   4    -0.485676280944E+03    0.97658E-03   -0.19320E-03  1912   0.238E-01    0.148E-01
DAV:   5    -0.485676806169E+03   -0.52522E-03   -0.15192E-03  1936   0.238E-01    0.279E-01
DAV:   6    -0.485676346727E+03    0.45944E-03   -0.85081E-04  1880   0.182E-01    0.284E-02
DAV:   7    -0.485676385460E+03   -0.38734E-04   -0.97922E-05  1496   0.282E-02    0.130E-02
DAV:   8    -0.485676389058E+03   -0.35977E-05   -0.75930E-06   968   0.101E-02
  96 F= -.48567639E+03 E0= -.48565557E+03  d E =-.202209E-01
       N       E                     dE             d eps       ncg     rms          rms(c)
DAV:   1    -0.485664408091E+03    0.11977E-01   -0.22685E+01  1392   0.131E+01    0.884E-01
DAV:   2    -0.485698857942E+03   -0.34450E-01   -0.40342E-01  1616   0.192E+00    0.918E-01
DAV:   3    -0.485718126136E+03   -0.19268E-01   -0.64111E-02  2000   0.151E+00    0.220E+00
DAV:   4    -0.485695483727E+03    0.22642E-01   -0.38932E-02  1992   0.989E-01    0.533E-01
DAV:   5    -0.485700385568E+03   -0.49018E-02   -0.18567E-02  1944   0.716E-01    0.923E-01
DAV:   6    -0.485695370132E+03    0.50154E-02   -0.99044E-03  1920   0.565E-01    0.125E-01
DAV:   7    -0.485695815703E+03   -0.44557E-03   -0.10789E-03  1728   0.107E-01    0.480E-02
DAV:   8    -0.485695833065E+03   -0.17361E-04   -0.12432E-04  1744   0.369E-02    0.226E-02
DAV:   9    -0.485695849646E+03   -0.16582E-04   -0.16193E-05   920   0.152E-02    0.958E-03
DAV:  10    -0.485695858732E+03   -0.90861E-05   -0.63725E-06   912   0.109E-02
  97 F= -.48569586E+03 E0= -.48567427E+03  d E =-.194697E-01
       N       E                     dE             d eps       ncg     rms          rms(c)
DAV:   1    -0.485691489865E+03    0.43598E-02   -0.51502E+00  1392   0.622E+00    0.413E-01
DAV:   2    -0.485699103118E+03   -0.76133E-02   -0.90843E-02  1608   0.912E-01    0.436E-01
DAV:   3    -0.485703082398E+03   -0.39793E-02   -0.14153E-02  2008   0.703E-01    0.992E-01
DAV:   4    -0.485698334018E+03    0.47484E-02   -0.78333E-03  1952   0.468E-01    0.233E-01
DAV:   5    -0.485699774848E+03   -0.14408E-02   -0.44177E-03  1888   0.346E-01    0.469E-01
DAV:   6    -0.485698425395E+03    0.13495E-02   -0.26206E-03  1872   0.287E-01    0.548E-02
DAV:   7    -0.485698559347E+03   -0.13395E-03   -0.26621E-04  1616   0.502E-02    0.214E-02
DAV:   8    -0.485698567753E+03   -0.84067E-05   -0.26045E-05  1080   0.167E-02
  98 F= -.48569857E+03 E0= -.48567663E+03  d E =-.221787E-01
       N       E                     dE             d eps       ncg     rms          rms(c)
DAV:   1    -0.485691450695E+03    0.71087E-02   -0.18487E+01  1392   0.118E+01    0.776E-01
DAV:   2    -0.485718268104E+03   -0.26817E-01   -0.32778E-01  1600   0.171E+00    0.655E-01
DAV:   3    -0.485733018238E+03   -0.14750E-01   -0.43205E-02  2024   0.131E+00    0.176E+00
DAV:   4    -0.485717550541E+03    0.15468E-01   -0.26538E-02  1968   0.967E-01    0.562E-01
DAV:   5    -0.485719767635E+03   -0.22171E-02   -0.14744E-02  1976   0.559E-01    0.758E-01
DAV:   6    -0.485716704467E+03    0.30632E-02   -0.67990E-03  1880   0.421E-01    0.103E-01
DAV:   7    -0.485717108380E+03   -0.40391E-03   -0.91329E-04  1632   0.910E-02    0.397E-02
DAV:   8    -0.485717122428E+03   -0.14048E-04   -0.11355E-04  1656   0.325E-02    0.205E-02
DAV:   9    -0.485717134131E+03   -0.11702E-04   -0.14046E-05   952   0.140E-02    0.837E-03
DAV:  10    -0.485717141566E+03   -0.74357E-05   -0.54091E-06   912   0.963E-03
  99 F= -.48571714E+03 E0= -.48569499E+03  d E =-.185738E-01
       N       E                     dE             d eps       ncg     rms          rms(c)
DAV:   1    -0.485709679445E+03    0.74547E-02   -0.88203E+00  1392   0.812E+00    0.529E-01
DAV:   2    -0.485722328025E+03   -0.12649E-01   -0.15552E-01  1592   0.118E+00    0.460E-01
DAV:   3    -0.485729053178E+03   -0.67252E-02   -0.20587E-02  2016   0.905E-01    0.118E+00
DAV:   4    -0.485721989760E+03    0.70634E-02   -0.12039E-02  1960   0.670E-01    0.391E-01
DAV:   5    -0.485723030722E+03   -0.10410E-02   -0.69674E-03  1952   0.381E-01    0.523E-01
DAV:   6    -0.485721610093E+03    0.14206E-02   -0.32749E-03  1848   0.285E-01    0.677E-02
DAV:   7    -0.485721813173E+03   -0.20308E-03   -0.42041E-04  1624   0.608E-02    0.261E-02
DAV:   8    -0.485721821769E+03   -0.85959E-05   -0.46984E-05  1328   0.215E-02
 100 F= -.48572182E+03 E0= -.48569953E+03  d E =-.232540E-01
       N       E                     dE             d eps       ncg     rms          rms(c)
DAV:   1    -0.485713790895E+03    0.80223E-02   -0.19678E+01  1408   0.121E+01    0.824E-01
DAV:   2    -0.485747001218E+03   -0.33210E-01   -0.35933E-01  1688   0.179E+00    0.114E+00
DAV:   3    -0.485754301888E+03   -0.73007E-02   -0.65972E-02  2008   0.126E+00    0.175E+00
DAV:   4    -0.485740661510E+03    0.13640E-01   -0.26513E-02  1960   0.812E-01    0.537E-01
DAV:   5    -0.485743963929E+03   -0.33024E-02   -0.13862E-02  1968   0.724E-01    0.776E-01
DAV:   6    -0.485740412347E+03    0.35516E-02   -0.69706E-03  1928   0.502E-01    0.119E-01
DAV:   7    -0.485740620817E+03   -0.20847E-03   -0.95441E-04  1736   0.916E-02    0.383E-02
DAV:   8    -0.485740635811E+03   -0.14994E-04   -0.94779E-05  1616   0.305E-02    0.211E-02
DAV:   9    -0.485740649703E+03   -0.13892E-04   -0.12764E-05   912   0.127E-02    0.869E-03
DAV:  10    -0.485740658606E+03   -0.89035E-05   -0.48743E-06   904   0.877E-03
 101 F= -.48574066E+03 E0= -.48571797E+03  d E =-.188368E-01
       N       E                     dE             d eps       ncg     rms          rms(c)
DAV:   1    -0.485735976741E+03    0.46730E-02   -0.58455E+00  1408   0.661E+00    0.441E-01
DAV:   2    -0.485745655502E+03   -0.96788E-02   -0.10580E-01  1664   0.971E-01    0.625E-01
DAV:   3    -0.485747427710E+03   -0.17722E-02   -0.19079E-02  2008   0.675E-01    0.903E-01
DAV:   4    -0.485743757531E+03    0.36702E-02   -0.69610E-03  1920   0.430E-01    0.273E-01
DAV:   5    -0.485744956824E+03   -0.11993E-02   -0.42495E-03  1952   0.398E-01    0.447E-01
DAV:   6    -0.485743780506E+03    0.11763E-02   -0.22605E-03  1912   0.289E-01    0.554E-02
DAV:   7    -0.485743856972E+03   -0.76466E-04   -0.28166E-04  1656   0.489E-02    0.208E-02
DAV:   8    -0.485743862566E+03   -0.55942E-05   -0.23874E-05  1080   0.165E-02
 102 F= -.48574386E+03 E0= -.48572097E+03  d E =-.220408E-01
       N       E                     dE             d eps       ncg     rms          rms(c)
DAV:   1    -0.485733319046E+03    0.10538E-01   -0.20461E+01  1408   0.124E+01    0.830E-01
DAV:   2    -0.485765120259E+03   -0.31801E-01   -0.36663E-01  1584   0.174E+00    0.895E-01
DAV:   3    -0.485780306833E+03   -0.15187E-01   -0.67283E-02  2016   0.124E+00    0.204E+00
DAV:   4    -0.485761065735E+03    0.19241E-01   -0.35999E-02  1952   0.884E-01    0.520E-01
DAV:   5    -0.485765794251E+03   -0.47285E-02   -0.14988E-02  1952   0.750E-01    0.860E-01
DAV:   6    -0.485761234552E+03    0.45597E-02   -0.84073E-03  1936   0.560E-01    0.117E-01
DAV:   7    -0.485761473794E+03   -0.23924E-03   -0.99636E-04  1688   0.919E-02    0.427E-02
DAV:   8    -0.485761489655E+03   -0.15861E-04   -0.99866E-05  1616   0.323E-02    0.217E-02
DAV:   9    -0.485761506725E+03   -0.17070E-04   -0.13027E-05   904   0.131E-02    0.867E-03
DAV:  10    -0.485761516597E+03   -0.98724E-05   -0.54227E-06   920   0.929E-03
 103 F= -.48576152E+03 E0= -.48573854E+03  d E =-.176540E-01
       N       E                     dE             d eps       ncg     rms          rms(c)
DAV:   1    -0.485752838209E+03    0.86685E-02   -0.95402E+00  1408   0.843E+00    0.560E-01
DAV:   2    -0.485767475450E+03   -0.14637E-01   -0.16999E-01  1592   0.118E+00    0.617E-01
DAV:   3    -0.485774013870E+03   -0.65384E-02   -0.30698E-02  2016   0.837E-01    0.134E+00
DAV:   4    -0.485765535805E+03    0.84781E-02   -0.15426E-02  1944   0.595E-01    0.344E-01
DAV:   5    -0.485767946434E+03   -0.24106E-02   -0.70611E-03  1960   0.513E-01    0.601E-01
DAV:   6    -0.485765732214E+03    0.22142E-02   -0.40283E-03  1928   0.389E-01    0.752E-02
DAV:   7    -0.485765857519E+03   -0.12531E-03   -0.46475E-04  1664   0.631E-02    0.279E-02
DAV:   8    -0.485765867094E+03   -0.95744E-05   -0.43850E-05  1384   0.217E-02
 104 F= -.48576587E+03 E0= -.48574282E+03  d E =-.220045E-01
       N       E                     dE             d eps       ncg     rms          rms(c)
DAV:   1    -0.485757857523E+03    0.80000E-02   -0.16855E+01  1408   0.112E+01    0.743E-01
DAV:   2    -0.485782574605E+03   -0.24717E-01   -0.30494E-01  1608   0.158E+00    0.548E-01
DAV:   3    -0.485790010312E+03   -0.74357E-02   -0.34687E-02  1992   0.851E-01    0.119E+00
DAV:   4    -0.485781278829E+03    0.87315E-02   -0.25010E-02  1928   0.708E-01    0.477E-01
DAV:   5    -0.485788652408E+03   -0.73736E-02   -0.14765E-02  1992   0.715E-01    0.118E+00
DAV:   6    -0.485781149249E+03    0.75032E-02   -0.10445E-02  1960   0.673E-01    0.111E-01
DAV:   7    -0.485781424259E+03   -0.27501E-03   -0.75856E-04  1712   0.922E-02    0.438E-02
DAV:   8    -0.485781431437E+03   -0.71781E-05   -0.85307E-05  1672   0.320E-02
 105 F= -.48578143E+03 E0= -.48575784E+03  d E =-.155643E-01
       N       E                     dE             d eps       ncg     rms          rms(c)
DAV:   1    -0.485777184633E+03    0.42396E-02   -0.47329E+00  1408   0.594E+00    0.390E-01
DAV:   2    -0.485784079332E+03   -0.68947E-02   -0.85604E-02  1632   0.837E-01    0.296E-01
DAV:   3    -0.485786524215E+03   -0.24449E-02   -0.10560E-02  2008   0.450E-01    0.699E-01
DAV:   4    -0.485783702410E+03    0.28218E-02   -0.72805E-03  1952   0.374E-01    0.269E-01
DAV:   5    -0.485785541444E+03   -0.18390E-02   -0.39387E-03  1968   0.386E-01    0.569E-01
DAV:   6    -0.485783756596E+03    0.17848E-02   -0.26502E-03  1936   0.337E-01    0.553E-02
DAV:   7    -0.485783831952E+03   -0.75356E-04   -0.19814E-04  1688   0.478E-02    0.238E-02
DAV:   8    -0.485783836658E+03   -0.47055E-05   -0.19383E-05  1072   0.172E-02
 106 F= -.48578384E+03 E0= -.48575997E+03  d E =-.179696E-01
       N       E                     dE             d eps       ncg     rms          rms(c)
DAV:   1    -0.485783456571E+03    0.37538E-03   -0.97772E+00  1408   0.851E+00    0.548E-01
DAV:   2    -0.485797206657E+03   -0.13750E-01   -0.17323E-01  1616   0.120E+00    0.380E-01
DAV:   3    -0.485798861849E+03   -0.16552E-02   -0.12167E-02  1960   0.516E-01    0.608E-01
DAV:   4    -0.485797085075E+03    0.17768E-02   -0.95161E-03  1928   0.507E-01    0.380E-01
DAV:   5    -0.485798565424E+03   -0.14803E-02   -0.50994E-03  1952   0.324E-01    0.621E-01
DAV:   6    -0.485796717786E+03    0.18476E-02   -0.37234E-03  1944   0.355E-01    0.153E-01
DAV:   7    -0.485796787247E+03   -0.69462E-04   -0.34836E-04  1736   0.846E-02    0.268E-02
DAV:   8    -0.485796792830E+03   -0.55824E-05   -0.43186E-05  1288   0.215E-02
 107 F= -.48579679E+03 E0= -.48577295E+03  d E =-.129562E-01
       N       E                     dE             d eps       ncg     rms          rms(c)
DAV:   1    -0.485781322980E+03    0.15464E-01   -0.18678E+01  1408   0.118E+01    0.767E-01
DAV:   2    -0.485807930109E+03   -0.26607E-01   -0.33214E-01  1616   0.166E+00    0.528E-01
DAV:   3    -0.485811311718E+03   -0.33816E-02   -0.23687E-02  1992   0.755E-01    0.862E-01
DAV:   4    -0.485807518837E+03    0.37929E-02   -0.17629E-02  1936   0.745E-01    0.501E-01
DAV:   5    -0.485806622650E+03    0.89619E-03   -0.37141E-03  1808   0.302E-01    0.105E-01
DAV:   6    -0.485806884700E+03   -0.26205E-03   -0.79513E-04  1752   0.883E-02    0.573E-02
DAV:   7    -0.485807086364E+03   -0.20166E-03   -0.43366E-04  1688   0.109E-01    0.203E-01
DAV:   8    -0.485806879164E+03    0.20720E-03   -0.31147E-04  1368   0.905E-02    0.240E-02
DAV:   9    -0.485806910822E+03   -0.31658E-04   -0.24298E-05  1040   0.171E-02    0.883E-03
DAV:  10    -0.485806919483E+03   -0.86608E-05   -0.56097E-06   928   0.101E-02
 108 F= -.48580692E+03 E0= -.48578315E+03  d E =-.230828E-01
       N       E                     dE             d eps       ncg     rms          rms(c)
DAV:   1    -0.485695050323E+03    0.11186E+00   -0.74601E+01  1408   0.235E+01    0.165E+00
DAV:   2    -0.485805384486E+03   -0.11033E+00   -0.13555E+00  1592   0.334E+00    0.106E+00
DAV:   3    -0.485820549380E+03   -0.15165E-01   -0.93220E-02  1992   0.165E+00    0.189E+00
DAV:   4    -0.485805408705E+03    0.15141E-01   -0.57589E-02  1968   0.159E+00    0.121E+00
DAV:   5    -0.485833306179E+03   -0.27897E-01   -0.73530E-02  2000   0.124E+00    0.267E+00
DAV:   6    -0.485797685416E+03    0.35621E-01   -0.67432E-02  1920   0.107E+00    0.321E-01
DAV:   7    -0.485799924594E+03   -0.22392E-02   -0.44040E-03  1752   0.211E-01    0.891E-02
DAV:   8    -0.485799939154E+03   -0.14560E-04   -0.45631E-04  1768   0.719E-02    0.409E-02
DAV:   9    -0.485799997111E+03   -0.57956E-04   -0.68710E-05  1528   0.268E-02    0.200E-02
DAV:  10    -0.485800030814E+03   -0.33703E-04   -0.12958E-05   944   0.118E-02    0.790E-03
DAV:  11    -0.485800050175E+03   -0.19362E-04   -0.38396E-06   936   0.718E-03    0.408E-03
DAV:  12    -0.485800071268E+03   -0.21093E-04   -0.26723E-06   920   0.499E-03    0.174E-03
DAV:  13    -0.485800087528E+03   -0.16260E-04   -0.19889E-06   920   0.410E-03    0.101E-03
DAV:  14    -0.485800098872E+03   -0.11343E-04   -0.16232E-06   928   0.332E-03    0.674E-04
DAV:  15    -0.485800108132E+03   -0.92603E-05   -0.15900E-06   920   0.293E-03
 109 F= -.48580011E+03 E0= -.48577635E+03  d E =-.162715E-01
       N       E                     dE             d eps       ncg     rms          rms(c)
DAV:   1    -0.485757520193E+03    0.42579E-01   -0.36590E+01  1408   0.165E+01    0.112E+00
DAV:   2    -0.485811631026E+03   -0.54111E-01   -0.66477E-01  1672   0.237E+00    0.764E-01
DAV:   3    -0.485821618583E+03   -0.99876E-02   -0.52612E-02  1976   0.119E+00    0.147E+00
DAV:   4    -0.485809808743E+03    0.11810E-01   -0.33856E-02  1944   0.111E+00    0.661E-01
DAV:   5    -0.485813611459E+03   -0.38027E-02   -0.12294E-02  1944   0.637E-01    0.105E+00
DAV:   6    -0.485808500057E+03    0.51114E-02   -0.13902E-02  1936   0.589E-01    0.372E-01
DAV:   7    -0.485808640413E+03   -0.14036E-03   -0.16723E-03  1872   0.177E-01    0.600E-02
DAV:   8    -0.485808648798E+03   -0.83849E-05   -0.18651E-04  1720   0.444E-02    0.298E-02
DAV:   9    -0.485808661181E+03   -0.12383E-04   -0.22305E-05  1032   0.182E-02    0.108E-02
DAV:  10    -0.485808672716E+03   -0.11535E-04   -0.92206E-06   912   0.106E-02    0.429E-03
DAV:  11    -0.485808677941E+03   -0.52252E-05   -0.25313E-06   920   0.689E-03
 110 F= -.48580868E+03 E0= -.48578491E+03  d E =-.248413E-01
       N       E                     dE             d eps       ncg     rms          rms(c)
DAV:   1    -0.485801328780E+03    0.73439E-02   -0.16332E+01  1408   0.110E+01    0.728E-01
DAV:   2    -0.485826174213E+03   -0.24845E-01   -0.29171E-01  1640   0.158E+00    0.744E-01
DAV:   3    -0.485840411384E+03   -0.14237E-01   -0.50415E-02  2000   0.111E+00    0.196E+00
DAV:   4    -0.485822670743E+03    0.17741E-01   -0.31078E-02  1984   0.782E-01    0.301E-01
DAV:   5    -0.485823988730E+03   -0.13180E-02   -0.42335E-03  1808   0.276E-01    0.292E-01
DAV:   6    -0.485824286550E+03   -0.29782E-03   -0.39905E-03  1944   0.355E-01    0.331E-01
DAV:   7    -0.485823630745E+03    0.65580E-03   -0.10612E-03  1880   0.199E-01    0.433E-02
DAV:   8    -0.485823686013E+03   -0.55268E-04   -0.12128E-04  1640   0.332E-02    0.206E-02
DAV:   9    -0.485823695626E+03   -0.96124E-05   -0.11020E-05  1016   0.124E-02
 111 F= -.48582370E+03 E0= -.48579991E+03  d E =-.150177E-01
       N       E                     dE             d eps       ncg     rms          rms(c)
DAV:   1    -0.485815051137E+03    0.86349E-02   -0.94190E+00  1408   0.835E+00    0.549E-01
DAV:   2    -0.485829387214E+03   -0.14336E-01   -0.16845E-01  1640   0.120E+00    0.582E-01
DAV:   3    -0.485837000906E+03   -0.76137E-02   -0.29079E-02  2008   0.835E-01    0.145E+00
DAV:   4    -0.485827221917E+03    0.97790E-02   -0.16773E-02  1960   0.583E-01    0.225E-01
DAV:   5    -0.485828453735E+03   -0.12318E-02   -0.31107E-03  1824   0.262E-01    0.324E-01
DAV:   6    -0.485828016310E+03    0.43743E-03   -0.26223E-03  1928   0.291E-01    0.181E-01
DAV:   7    -0.485827878364E+03    0.13795E-03   -0.34819E-04  1744   0.111E-01    0.316E-02
DAV:   8    -0.485827906028E+03   -0.27664E-04   -0.54365E-05  1328   0.243E-02    0.153E-02
DAV:   9    -0.485827915849E+03   -0.98209E-05   -0.71360E-06   928   0.113E-02
 112 F= -.48582792E+03 E0= -.48580411E+03  d E =-.192379E-01
       N       E                     dE             d eps       ncg     rms          rms(c)
DAV:   1    -0.485823472018E+03    0.44340E-02   -0.14483E+01  1408   0.103E+01    0.714E-01
DAV:   2    -0.485843733114E+03   -0.20261E-01   -0.25741E-01  1616   0.148E+00    0.529E-01
DAV:   3    -0.485855519223E+03   -0.11786E-01   -0.31866E-02  1960   0.103E+00    0.166E+00
DAV:   4    -0.485842780873E+03    0.12738E-01   -0.24086E-02  1936   0.819E-01    0.455E-01
DAV:   5    -0.485847635839E+03   -0.48550E-02   -0.16159E-02  1992   0.580E-01    0.936E-01
DAV:   6    -0.485842201862E+03    0.54340E-02   -0.95516E-03  1880   0.508E-01    0.941E-02
DAV:   7    -0.485842629738E+03   -0.42788E-03   -0.96810E-04  1712   0.915E-02    0.452E-02
DAV:   8    -0.485842644663E+03   -0.14925E-04   -0.10523E-04  1528   0.308E-02    0.197E-02
DAV:   9    -0.485842665290E+03   -0.20627E-04   -0.16648E-05   976   0.151E-02    0.953E-03
DAV:  10    -0.485842675909E+03   -0.10619E-04   -0.50845E-06   904   0.946E-03    0.397E-03
DAV:  11    -0.485842681095E+03   -0.51854E-05   -0.20099E-06   888   0.607E-03
 113 F= -.48584268E+03 E0= -.48581837E+03  d E =-.147652E-01
       N       E                     dE             d eps       ncg     rms          rms(c)
DAV:   1    -0.485839029755E+03    0.36462E-02   -0.48680E+00  1408   0.600E+00    0.408E-01
DAV:   2    -0.485845736081E+03   -0.67063E-02   -0.86096E-02  1624   0.860E-01    0.309E-01
DAV:   3    -0.485849722435E+03   -0.39864E-02   -0.10812E-02  1984   0.601E-01    0.959E-01
DAV:   4    -0.485845410249E+03    0.43122E-02   -0.78132E-03  1904   0.481E-01    0.259E-01
DAV:   5    -0.485847130617E+03   -0.17204E-02   -0.55143E-03  1960   0.336E-01    0.549E-01
DAV:   6    -0.485845259920E+03    0.18707E-02   -0.33723E-03  1872   0.296E-01    0.522E-02
DAV:   7    -0.485845423619E+03   -0.16370E-03   -0.32249E-04  1632   0.520E-02    0.251E-02
DAV:   8    -0.485845431768E+03   -0.81482E-05   -0.31282E-05  1104   0.173E-02
 114 F= -.48584543E+03 E0= -.48582081E+03  d E =-.175159E-01
       N       E                     dE             d eps       ncg     rms          rms(c)
