<?xml version="1.0" encoding="ISO-8859-1"?>
<modeling>
 <generator>
  <i name="program" type="string">vasp </i>
  <i name="version" type="string">6.3.2  </i>
  <i name="subversion" type="string">27Jun22 (build May 04 2024 18:40:40) complex                          parallel </i>
  <i name="platform" type="string">LinuxIFC </i>
  <i name="date" type="string">2024 09 03 </i>
  <i name="time" type="string">09:34:48 </i>
 </generator>
 <incar>
  <i type="string" name="SYSTEM">slab_Cel1-OPT</i>
  <i type="int" name="ISTART">     0</i>
  <i type="string" name="PREC">N</i>
  <i type="string" name="ALGO">N</i>
  <i type="int" name="ICHARG">     2</i>
  <i type="int" name="NELM">   200</i>
  <i type="int" name="IBRION">     2</i>
  <i name="EDIFF">      0.00001000</i>
  <i name="EDIFFG">     -0.05000000</i>
  <i type="int" name="NSW">  1000</i>
  <i type="int" name="ISIF">     3</i>
  <i name="ENCUT">    400.00000000</i>
  <i name="POTIM">      0.10000000</i>
  <i type="string" name="LREAL">AUTO</i>
  <i type="int" name="ISMEAR">     0</i>
  <i name="SIGMA">      0.10000000</i>
  <i type="logical" name="LWAVE"> F  </i>
  <i type="logical" name="LCHARG"> F  </i>
  <i type="logical" name="LELF"> F  </i>
  <i type="logical" name="LAECHG"> F  </i>
  <i type="logical" name="LDIPOL"> T  </i>
  <i type="int" name="IDIPOL">     3</i>
 </incar>
 <primitive_cell>
  <structure name="primitive_cell" >
   <crystal>
    <varray name="basis" >
     <v>      14.26590000       0.00000000       0.00000000 </v>
     <v>       0.00000000      12.35699650       0.00000000 </v>
     <v>       0.00000000       0.00000000      15.00000000 </v>
    </varray>
    <i name="volume">   2644.25514646 </i>
    <varray name="rec_basis" >
     <v>       0.07009722       0.00000000       0.00000000 </v>
     <v>       0.00000000       0.08092581       0.00000000 </v>
     <v>       0.00000000       0.00000000       0.06666667 </v>
    </varray>
   </crystal>
   <varray name="positions" >
    <v>       0.06537593       0.40364000       0.13333000 </v>
    <v>       0.98097748       0.23494000       0.13333000 </v>
    <v>       0.22593437       0.39820000       0.13333000 </v>
    <v>       0.81543575       0.57710000       0.13333000 </v>
    <v>       0.14973747       0.23490000       0.13333000 </v>
    <v>       0.90517930       0.39797000       0.13333000 </v>
    <v>       0.56537593       0.40364000       0.13333000 </v>
    <v>       0.48097748       0.23494000       0.13333000 </v>
    <v>       0.72593437       0.39820000       0.13333000 </v>
    <v>       0.31543575       0.57710000       0.13333000 </v>
    <v>       0.64973747       0.23490000       0.13333000 </v>
    <v>       0.40517930       0.39797000       0.13333000 </v>
    <v>       0.81551954       0.90364000       0.13333000 </v>
    <v>       0.73112108       0.73494000       0.13333000 </v>
    <v>       0.97607797       0.89820000       0.13333000 </v>
    <v>       0.06529214       0.07710000       0.13333000 </v>
    <v>       0.89988107       0.73490000       0.13333000 </v>
    <v>       0.65532291       0.89797000       0.13333000 </v>
    <v>       0.31551954       0.90364000       0.13333000 </v>
    <v>       0.23112108       0.73494000       0.13333000 </v>
    <v>       0.47607797       0.89820000       0.13333000 </v>
    <v>       0.56529214       0.07710000       0.13333000 </v>
    <v>       0.39988107       0.73490000       0.13333000 </v>
    <v>       0.15532291       0.89797000       0.13333000 </v>
    <v>       0.98400093       0.45588000       0.13333000 </v>
    <v>       0.90111835       0.29021000       0.13333000 </v>
    <v>       0.14710595       0.45595000       0.13333000 </v>
    <v>       0.14840652       0.12714000       0.13333000 </v>
    <v>       0.98256150       0.12707000       0.13333000 </v>
    <v>       0.22992331       0.29008000       0.13333000 </v>
    <v>       0.06536362       0.29116000       0.13333000 </v>
    <v>       0.81553147       0.45774000       0.13333000 </v>
    <v>       0.48400093       0.45588000       0.13333000 </v>
    <v>       0.40111835       0.29021000       0.13333000 </v>
    <v>       0.64710595       0.45595000       0.13333000 </v>
    <v>       0.64840652       0.12714000       0.13333000 </v>
    <v>       0.48256150       0.12707000       0.13333000 </v>
    <v>       0.72992331       0.29008000       0.13333000 </v>
    <v>       0.56536362       0.29116000       0.13333000 </v>
    <v>       0.31553147       0.45774000       0.13333000 </v>
    <v>       0.73414454       0.95588000       0.13333000 </v>
    <v>       0.65126196       0.79021000       0.13333000 </v>
    <v>       0.89724956       0.95595000       0.13333000 </v>
    <v>       0.89855012       0.62714000       0.13333000 </v>
    <v>       0.73270510       0.62707000       0.13333000 </v>
    <v>       0.98006692       0.79008000       0.13333000 </v>
    <v>       0.81550723       0.79116000       0.13333000 </v>
    <v>       0.56567507       0.95774000       0.13333000 </v>
    <v>       0.23414454       0.95588000       0.13333000 </v>
    <v>       0.15126196       0.79021000       0.13333000 </v>
    <v>       0.39724956       0.95595000       0.13333000 </v>
    <v>       0.39855012       0.62714000       0.13333000 </v>
    <v>       0.23270510       0.62707000       0.13333000 </v>
    <v>       0.48006692       0.79008000       0.13333000 </v>
    <v>       0.31550723       0.79116000       0.13333000 </v>
    <v>       0.06567507       0.95774000       0.13333000 </v>
    <v>       0.51318019       0.65760505       0.14333042 </v>
    <v>       0.63498818       0.58816656       0.13951958 </v>
   </varray>
  </structure>
  <varray name="primitive_index" >
   <v type="int" >        1 </v>
   <v type="int" >        2 </v>
   <v type="int" >        3 </v>
   <v type="int" >        4 </v>
   <v type="int" >        5 </v>
   <v type="int" >        6 </v>
   <v type="int" >        7 </v>
   <v type="int" >        8 </v>
   <v type="int" >        9 </v>
   <v type="int" >       10 </v>
   <v type="int" >       11 </v>
   <v type="int" >       12 </v>
   <v type="int" >       13 </v>
   <v type="int" >       14 </v>
   <v type="int" >       15 </v>
   <v type="int" >       16 </v>
   <v type="int" >       17 </v>
   <v type="int" >       18 </v>
   <v type="int" >       19 </v>
   <v type="int" >       20 </v>
   <v type="int" >       21 </v>
   <v type="int" >       22 </v>
   <v type="int" >       23 </v>
   <v type="int" >       24 </v>
   <v type="int" >       25 </v>
   <v type="int" >       26 </v>
   <v type="int" >       27 </v>
   <v type="int" >       28 </v>
   <v type="int" >       29 </v>
   <v type="int" >       30 </v>
   <v type="int" >       31 </v>
   <v type="int" >       32 </v>
   <v type="int" >       33 </v>
   <v type="int" >       34 </v>
   <v type="int" >       35 </v>
   <v type="int" >       36 </v>
   <v type="int" >       37 </v>
   <v type="int" >       38 </v>
   <v type="int" >       39 </v>
   <v type="int" >       40 </v>
   <v type="int" >       41 </v>
   <v type="int" >       42 </v>
   <v type="int" >       43 </v>
   <v type="int" >       44 </v>
   <v type="int" >       45 </v>
   <v type="int" >       46 </v>
   <v type="int" >       47 </v>
   <v type="int" >       48 </v>
   <v type="int" >       49 </v>
   <v type="int" >       50 </v>
   <v type="int" >       51 </v>
   <v type="int" >       52 </v>
   <v type="int" >       53 </v>
   <v type="int" >       54 </v>
   <v type="int" >       55 </v>
   <v type="int" >       56 </v>
   <v type="int" >       57 </v>
   <v type="int" >       58 </v>
  </varray>
 </primitive_cell>
 <kpoints>
  <generation param="Gamma">
   <v type="int" name="divisions">       2        2        1 </v>
   <v name="usershift">      0.00000000       0.00000000       0.00000000 </v>
   <v name="genvec1">      0.50000000       0.00000000       0.00000000 </v>
   <v name="genvec2">      0.00000000       0.50000000       0.00000000 </v>
   <v name="genvec3">      0.00000000       0.00000000       1.00000000 </v>
   <v name="shift">      0.00000000       0.00000000       0.00000000 </v>
  </generation>
  <varray name="kpointlist" >
   <v>       0.00000000       0.00000000       0.00000000 </v>
   <v>       0.50000000       0.00000000       0.00000000 </v>
   <v>       0.00000000       0.50000000       0.00000000 </v>
   <v>       0.50000000       0.50000000       0.00000000 </v>
  </varray>
  <varray name="weights" >
   <v>       0.25000000 </v>
   <v>       0.25000000 </v>
   <v>       0.25000000 </v>
   <v>       0.25000000 </v>
  </varray>
 </kpoints>
 <parameters>
  <separator name="general" >
   <i type="string" name="SYSTEM">slab_Cel1-OPT</i>
   <i type="logical" name="LCOMPAT"> F  </i>
  </separator>
  <separator name="electronic" >
   <i type="string" name="PREC">n</i>
   <i name="ENMAX">    400.00000000</i>
   <i name="ENAUG">    644.87300000</i>
   <i name="EDIFF">      0.00001000</i>
   <i type="int" name="IALGO">    38</i>
   <i type="int" name="IWAVPR">    11</i>
   <i type="int" name="NBANDS">   168</i>
   <i type="int" name="NBANDSLOW">    -1</i>
   <i type="int" name="NBANDSHIGH">    -1</i>
   <i name="NELECT">    273.00000000</i>
   <i type="int" name="TURBO">     0</i>
   <i type="int" name="IRESTART">     0</i>
   <i type="int" name="NREBOOT">     0</i>
   <i type="int" name="NMIN">     0</i>
   <i name="EREF">      0.00000000</i>
   <separator name="electronic smearing" >
    <i type="int" name="ISMEAR">     0</i>
    <i name="SIGMA">      0.10000000</i>
    <i name="KSPACING">      0.50000000</i>
    <i type="logical" name="KGAMMA"> T  </i>
    <i type="logical" name="KBLOWUP"> T  </i>
   </separator>
   <separator name="electronic projectors" >
    <i type="logical" name="LREAL"> T  </i>
    <v name="ROPT">     -0.00050000     -0.00050000     -0.00050000     -0.00050000</v>
    <i type="int" name="LMAXPAW">  -100</i>
    <i type="int" name="LMAXMIX">     2</i>
    <i type="logical" name="NLSPLINE"> F  </i>
   </separator>
   <separator name="electronic startup" >
    <i type="int" name="ISTART">     0</i>
    <i type="int" name="ICHARG">     2</i>
    <i type="int" name="INIWAV">     1</i>
   </separator>
   <separator name="electronic spin" >
    <i type="int" name="ISPIN">     1</i>
    <i type="logical" name="LNONCOLLINEAR"> F  </i>
    <v name="MAGMOM">      1.00000000      1.00000000      1.00000000      1.00000000      1.00000000      1.00000000      1.00000000      1.00000000      1.00000000      1.00000000      1.00000000      1.00000000      1.00000000      1.00000000      1.00000000      1.00000000      1.00000000      1.00000000      1.00000000      1.00000000
      1.00000000      1.00000000      1.00000000      1.00000000      1.00000000      1.00000000      1.00000000      1.00000000      1.00000000      1.00000000      1.00000000      1.00000000      1.00000000      1.00000000      1.00000000      1.00000000      1.00000000      1.00000000      1.00000000      1.00000000
      1.00000000      1.00000000      1.00000000      1.00000000      1.00000000      1.00000000      1.00000000      1.00000000      1.00000000      1.00000000      1.00000000      1.00000000      1.00000000      1.00000000      1.00000000      1.00000000      1.00000000      1.00000000</v>
    <i name="NUPDOWN">     -1.00000000</i>
    <i type="logical" name="LSORBIT"> F  </i>
    <v name="SAXIS">      0.00000000      0.00000000      1.00000000</v>
    <i type="logical" name="LSPIRAL"> F  </i>
    <v name="QSPIRAL">      0.00000000      0.00000000      0.00000000</v>
    <i type="logical" name="LZEROZ"> F  </i>
   </separator>
   <separator name="electronic exchange-correlation" >
    <i type="logical" name="LASPH"> F  </i>
    <i type="logical" name="LMETAGGA"> F  </i>
   </separator>
   <separator name="electronic convergence" >
    <i type="int" name="NELM">   200</i>
    <i type="int" name="NELMDL">    -5</i>
    <i type="int" name="NELMIN">     2</i>
    <i name="ENINI">    400.00000000</i>
    <separator name="electronic convergence detail" >
     <i type="logical" name="LDIAG"> T  </i>
     <i type="logical" name="LSUBROT"> F  </i>
     <i name="WEIMIN">      0.00100000</i>
     <i name="EBREAK">      0.00000001</i>
     <i name="DEPER">      0.30000000</i>
     <i type="int" name="NRMM">     4</i>
     <i name="TIME">      0.40000000</i>
    </separator>
   </separator>
   <separator name="electronic mixer" >
    <i name="AMIX">      0.40000000</i>
    <i name="BMIX">      1.00000000</i>
    <i name="AMIN">      0.10000000</i>
    <i name="AMIX_MAG">      1.60000000</i>
    <i name="BMIX_MAG">      1.00000000</i>
    <separator name="electronic mixer details" >
     <i type="int" name="IMIX">     4</i>
     <i type="logical" name="MIXFIRST"> F  </i>
     <i type="int" name="MAXMIX">   -45</i>
     <i name="WC">    100.00000000</i>
     <i type="int" name="INIMIX">     1</i>
     <i type="int" name="MIXPRE">     1</i>
     <i type="int" name="MREMOVE">     5</i>
    </separator>
   </separator>
   <separator name="electronic dipolcorrection" >
    <i type="logical" name="LDIPOL"> T  </i>
    <i type="logical" name="LMONO"> F  </i>
    <i type="int" name="IDIPOL">     3</i>
    <i name="EPSILON">      1.00000000</i>
    <v name="DIPOL">   -100.00000000   -100.00000000   -100.00000000</v>
    <i name="EFIELD">      0.00000000</i>
   </separator>
  </separator>
  <separator name="grids" >
   <i type="int" name="NGX">    70</i>
   <i type="int" name="NGY">    60</i>
   <i type="int" name="NGZ">    80</i>
   <i type="int" name="NGXF">   140</i>
   <i type="int" name="NGYF">   120</i>
   <i type="int" name="NGZF">   160</i>
   <i type="logical" name="ADDGRID"> F  </i>
  </separator>
  <separator name="ionic" >
   <i type="int" name="NSW">  1000</i>
   <i type="int" name="IBRION">     2</i>
   <i type="int" name="MDALGO">     0</i>
   <i type="int" name="ISIF">     3</i>
   <i name="PSTRESS">      0.00000000</i>
   <i name="EDIFFG">     -0.05000000</i>
   <i type="int" name="NFREE">     1</i>
   <i name="POTIM">      0.10000000</i>
   <i name="SMASS">     -3.00000000</i>
   <i name="SCALEE">      1.00000000</i>
  </separator>
  <separator name="ionic md" >
   <i name="TEBEG">      0.00010000</i>
   <i name="TEEND">      0.00010000</i>
   <i type="int" name="NBLOCK">     1</i>
   <i type="int" name="KBLOCK">  1000</i>
   <i type="int" name="NPACO">   256</i>
   <i name="APACO">     10.00000000</i>
  </separator>
  <separator name="symmetry" >
   <i type="int" name="ISYM">     2</i>
   <i name="SYMPREC">      0.00001000</i>
  </separator>
  <separator name="dos" >
   <i type="int" name="LORBIT">     0</i>
   <v name="RWIGS">     -1.00000000     -1.00000000     -1.00000000     -1.00000000</v>
   <i type="int" name="NEDOS">   301</i>
   <i name="EMIN">     10.00000000</i>
   <i name="EMAX">    -10.00000000</i>
   <i name="EFERMI">      0.00000000</i>
  </separator>
  <separator name="writing" >
   <i type="int" name="NWRITE">     2</i>
   <i type="logical" name="LWAVE"> F  </i>
   <i type="logical" name="LDOWNSAMPLE"> F  </i>
   <i type="logical" name="LCHARG"> F  </i>
   <i type="logical" name="LPARD"> F  </i>
   <i type="logical" name="LVTOT"> F  </i>
   <i type="logical" name="LVHAR"> F  </i>
   <i type="logical" name="LELF"> F  </i>
   <i type="logical" name="LOPTICS"> F  </i>
   <v name="STM">      0.00000000      0.00000000      0.00000000      0.00000000      0.00000000      0.00000000      0.00000000</v>
  </separator>
  <separator name="performance" >
   <i type="int" name="NPAR">     4</i>
   <i type="int" name="NSIM">     4</i>
   <i type="int" name="NBLK">    -1</i>
   <i type="logical" name="LPLANE"> T  </i>
   <i type="logical" name="LSCALAPACK"> T  </i>
   <i type="logical" name="LSCAAWARE"> F  </i>
   <i type="logical" name="LSCALU"> F  </i>
   <i type="logical" name="LASYNC"> F  </i>
   <i type="logical" name="LORBITALREAL"> F  </i>
  </separator>
  <separator name="miscellaneous" >
   <i type="int" name="IDIOT">     3</i>
   <i type="int" name="PHON_NSTRUCT">    -1</i>
   <i type="logical" name="LMUSIC"> F  </i>
   <v name="POMASS">     12.01100000     14.00100000     55.84700000     58.93300000</v>
   <v name="DARWINR">      0.00000000      0.00000000      0.00000000      0.00000000</v>
   <v name="DARWINV">      1.00000000      1.00000000      1.00000000      1.00000000</v>
   <i type="logical" name="LCORR"> T  </i>
  </separator>
  <i type="logical" name="GGA_COMPAT"> T  </i>
  <i type="logical" name="LBERRY"> F  </i>
  <i type="int" name="ICORELEVEL">     0</i>
  <i type="logical" name="LDAU"> F  </i>
  <i type="int" name="I_CONSTRAINED_M">     0</i>
  <separator name="electronic exchange-correlation" >
   <i type="string" name="GGA">--</i>
   <i type="int" name="VOSKOWN">     0</i>
   <i type="logical" name="LHFCALC"> F  </i>
   <i type="string" name="PRECFOCK"></i>
   <i type="logical" name="LSYMGRAD"> F  </i>
   <i type="logical" name="LHFONE"> F  </i>
   <i type="logical" name="LRHFCALC"> F  </i>
   <i type="logical" name="LTHOMAS"> F  </i>
   <i type="logical" name="LMODELHF"> F  </i>
   <i type="logical" name="LFOCKACE"> F  </i>
   <i name="ENCUT4O">     -1.00000000</i>
   <i type="int" name="EXXOEP">     0</i>
   <i type="int" name="FOURORBIT">     0</i>
   <i name="AEXX">      0.00000000</i>
   <i name="HFALPHA">      0.00000000</i>
   <i name="MCALPHA">      0.00000000</i>
   <i name="ALDAX">      1.00000000</i>
   <i name="AGGAX">      1.00000000</i>
   <i name="ALDAC">      1.00000000</i>
   <i name="AGGAC">      1.00000000</i>
   <i type="int" name="NKREDX">     1</i>
   <i type="int" name="NKREDY">     1</i>
   <i type="int" name="NKREDZ">     1</i>
   <i type="logical" name="SHIFTRED"> F  </i>
   <i type="logical" name="ODDONLY"> F  </i>
   <i type="logical" name="EVENONLY"> F  </i>
   <i type="int" name="LMAXFOCK">     0</i>
   <i type="int" name="NMAXFOCKAE">     0</i>
   <i type="logical" name="LFOCKAEDFT"> F  </i>
   <i name="HFSCREEN">      0.00000000</i>
   <i name="HFSCREENC">      0.00000000</i>
   <i type="int" name="NBANDSGWLOW">     0</i>
  </separator>
  <separator name="vdW DFT" >
   <i type="logical" name="LUSE_VDW"> F  </i>
   <i name="Zab_VDW">     -0.84910000</i>
   <i name="PARAM1">      0.12340000</i>
   <i name="PARAM2">      1.00000000</i>
   <i name="PARAM3">      0.00000000</i>
  </separator>
  <separator name="model GW" >
   <i type="int" name="MODEL_GW">     0</i>
   <i name="MODEL_EPS0">     27.35436358</i>
   <i name="MODEL_ALPHA">      1.00000000</i>
  </separator>
  <separator name="linear response parameters" >
   <i type="logical" name="LEPSILON"> F  </i>
   <i type="logical" name="LRPA"> F  </i>
   <i type="logical" name="LNABLA"> F  </i>
   <i type="logical" name="LVEL"> F  </i>
   <i name="CSHIFT">      0.10000000</i>
   <i name="OMEGAMAX">     -1.00000000</i>
   <i name="DEG_THRESHOLD">      0.00200000</i>
   <i name="RTIME">     -0.10000000</i>
   <i name="WPLASMAI">      0.00000000</i>
   <v name="DFIELD">      0.00000000      0.00000000      0.00000000</v>
   <v name="WPLASMA">      0.00000000      0.00000000      0.00000000      0.00000000      0.00000000      0.00000000      0.00000000      0.00000000      0.00000000</v>
  </separator>
  <separator name="orbital magnetization" >
   <i type="logical" name="NUCIND"> F  </i>
   <v name="MAGPOS">      0.00000000      0.00000000      0.00000000</v>
   <i type="logical" name="LNICSALL"> T  </i>
   <i type="logical" name="ORBITALMAG"> F  </i>
   <i type="logical" name="LMAGBLOCH"> F  </i>
   <i type="logical" name="LCHIMAG"> F  </i>
   <i type="logical" name="LGAUGE"> T  </i>
   <i type="int" name="MAGATOM">     0</i>
   <v name="MAGDIPOL">      0.00000000      0.00000000      0.00000000</v>
   <v name="AVECCONST">      0.00000000      0.00000000      0.00000000</v>
  </separator>
  <separator name="response functions" >
   <i type="logical" name="LFINITE_TEMPERATURE"> F  </i>
   <i type="logical" name="LADDER"> F  </i>
   <i type="logical" name="LRPAFORCE"> F  </i>
   <i type="logical" name="LFXC"> F  </i>
   <i type="logical" name="LHARTREE"> T  </i>
   <i type="int" name="IBSE">     0</i>
   <v type="int" name="KPOINT">    -1     0     0     0</v>
   <i type="logical" name="LTCTC"> F  </i>
   <i type="logical" name="LTCTE"> F  </i>
   <i type="logical" name="LTETE"> F  </i>
   <i type="logical" name="LTRIPLET"> F  </i>
   <i type="logical" name="LFXCEPS"> F  </i>
   <i type="logical" name="LFXHEG"> F  </i>
   <i type="int" name="NATURALO">     2</i>
   <i type="logical" name="LHOLEGF"> F  </i>
   <i type="logical" name="L2ORDER"> F  </i>
   <i type="logical" name="LDMP1"> F  </i>
   <i type="logical" name="LMP2LT"> F  </i>
   <i type="logical" name="LSMP2LT"> F  </i>
   <i type="logical" name="LGWLF"> F  </i>
   <i name="ENCUTGW">     -2.00000000</i>
   <i name="ENCUTGWSOFT">     -2.00000000</i>
   <i name="ENCUTLF">     -1.00000000</i>
   <i type="logical" name="LESF_SPLINES"> F  </i>
   <i type="int" name="LMAXMP2">    -1</i>
   <i name="SCISSOR">      0.00000000</i>
   <i type="int" name="NOMEGA">     0</i>
   <i type="int" name="NOMEGAR">     0</i>
   <i type="int" name="NBANDSGW">    -1</i>
   <i type="int" name="NBANDSO">    -1</i>
   <i type="int" name="NBANDSV">    -1</i>
   <i type="int" name="NELMGW">     1</i>
   <i type="int" name="NELMHF">     1</i>
   <i type="int" name="DIM">     3</i>
   <i type="int" name="IESPILON">     4</i>
   <i type="int" name="ANTIRES">     0</i>
   <i name="OMEGAMAX">    -30.00000000</i>
   <i name="OMEGAMIN">    -30.00000000</i>
   <i name="OMEGATL">   -200.00000000</i>
   <i type="int" name="OMEGAGRID">     0</i>
   <i name="CSHIFT">     -0.10000000</i>
   <i type="logical" name="LSELFENERGY"> F  </i>
   <i type="logical" name="LSPECTRAL"> F  </i>
   <i type="logical" name="LSPECTRALGW"> F  </i>
   <i type="logical" name="LSINGLES"> F  </i>
   <i type="logical" name="LFERMIGW"> F  </i>
   <i type="logical" name="ODDONLYGW"> F  </i>
   <i type="logical" name="EVENONLYGW"> F  </i>
   <i type="int" name="NKREDLFX">     1</i>
   <i type="int" name="NKREDLFY">     1</i>
   <i type="int" name="NKREDLFZ">     1</i>
   <i type="int" name="MAXMEM">  2800</i>
   <i type="int" name="TELESCOPE">     0</i>
   <i type="int" name="NTAUPAR">    -1</i>
   <i type="int" name="NOMEGAPAR">    -1</i>
   <i name="DAMP_NEWTON">      0.80000001</i>
   <i name="LAMBDA">      1.00000000</i>
  </separator>
  <separator name="External order field" >
   <i name="OFIELD_KAPPA">      0.00000000</i>
   <v name="OFIELD_K">      0.00000000      0.00000000      0.00000000</v>
   <i name="OFIELD_Q6_NEAR">      0.00000000</i>
   <i name="OFIELD_Q6_FAR">      0.00000000</i>
   <i name="OFIELD_A">      0.00000000</i>
  </separator>
  <separator name="optional k-points parameters" >
   <i type="int" name="KPOINTS_OPT_MODE">     1</i>
   <i type="logical" name="LKPOINTS_OPT"> F  </i>
  </separator>
  <separator name="solvation model" >
   <i type="logical" name="LSOL"> F  </i>
  </separator>
 </parameters>
 <atominfo>
  <atoms>      58 </atoms>
  <types>       4 </types>
  <array name="atoms" >
   <dimension dim="1">ion</dimension>
   <field type="string">element</field>
   <field type="int">atomtype</field>
   <set>
    <rc><c>C </c><c>   1</c></rc>
    <rc><c>C </c><c>   1</c></rc>
    <rc><c>C </c><c>   1</c></rc>
    <rc><c>C </c><c>   1</c></rc>
    <rc><c>C </c><c>   1</c></rc>
    <rc><c>C </c><c>   1</c></rc>
    <rc><c>C </c><c>   1</c></rc>
    <rc><c>C </c><c>   1</c></rc>
    <rc><c>C </c><c>   1</c></rc>
    <rc><c>C </c><c>   1</c></rc>
    <rc><c>C </c><c>   1</c></rc>
    <rc><c>C </c><c>   1</c></rc>
    <rc><c>C </c><c>   1</c></rc>
    <rc><c>C </c><c>   1</c></rc>
    <rc><c>C </c><c>   1</c></rc>
    <rc><c>C </c><c>   1</c></rc>
    <rc><c>C </c><c>   1</c></rc>
    <rc><c>C </c><c>   1</c></rc>
    <rc><c>C </c><c>   1</c></rc>
    <rc><c>C </c><c>   1</c></rc>
    <rc><c>C </c><c>   1</c></rc>
    <rc><c>C </c><c>   1</c></rc>
    <rc><c>C </c><c>   1</c></rc>
    <rc><c>C </c><c>   1</c></rc>
    <rc><c>N </c><c>   2</c></rc>
    <rc><c>N </c><c>   2</c></rc>
    <rc><c>N </c><c>   2</c></rc>
    <rc><c>N </c><c>   2</c></rc>
    <rc><c>N </c><c>   2</c></rc>
    <rc><c>N </c><c>   2</c></rc>
    <rc><c>N </c><c>   2</c></rc>
    <rc><c>N </c><c>   2</c></rc>
    <rc><c>N </c><c>   2</c></rc>
    <rc><c>N </c><c>   2</c></rc>
    <rc><c>N </c><c>   2</c></rc>
    <rc><c>N </c><c>   2</c></rc>
    <rc><c>N </c><c>   2</c></rc>
    <rc><c>N </c><c>   2</c></rc>
    <rc><c>N </c><c>   2</c></rc>
    <rc><c>N </c><c>   2</c></rc>
    <rc><c>N </c><c>   2</c></rc>
    <rc><c>N </c><c>   2</c></rc>
    <rc><c>N </c><c>   2</c></rc>
    <rc><c>N </c><c>   2</c></rc>
    <rc><c>N </c><c>   2</c></rc>
    <rc><c>N </c><c>   2</c></rc>
    <rc><c>N </c><c>   2</c></rc>
    <rc><c>N </c><c>   2</c></rc>
    <rc><c>N </c><c>   2</c></rc>
    <rc><c>N </c><c>   2</c></rc>
    <rc><c>N </c><c>   2</c></rc>
    <rc><c>N </c><c>   2</c></rc>
    <rc><c>N </c><c>   2</c></rc>
    <rc><c>N </c><c>   2</c></rc>
    <rc><c>N </c><c>   2</c></rc>
    <rc><c>N </c><c>   2</c></rc>
    <rc><c>Fe</c><c>   3</c></rc>
    <rc><c>Co</c><c>   4</c></rc>
   </set>
  </array>
  <array name="atomtypes" >
   <dimension dim="1">type</dimension>
   <field type="int">atomspertype</field>
   <field type="string">element</field>
   <field>mass</field>
   <field>valence</field>
   <field type="string">pseudopotential</field>
   <set>
    <rc><c>  24</c><c>C </c><c>     12.01100000</c><c>      4.00000000</c><c>  PAW_PBE C 08Apr2002                   </c></rc>
    <rc><c>  32</c><c>N </c><c>     14.00100000</c><c>      5.00000000</c><c>  PAW_PBE N 08Apr2002                   </c></rc>
    <rc><c>   1</c><c>Fe</c><c>     55.84700000</c><c>      8.00000000</c><c>  PAW_PBE Fe 06Sep2000                  </c></rc>
    <rc><c>   1</c><c>Co</c><c>     58.93300000</c><c>      9.00000000</c><c>  PAW_PBE Co 02Aug2007                  </c></rc>
   </set>
  </array>
 </atominfo>
 <structure name="initialpos" >
  <crystal>
   <varray name="basis" >
    <v>      14.26590000       0.00000000       0.00000000 </v>
    <v>       0.00000000      12.35699650       0.00000000 </v>
    <v>       0.00000000       0.00000000      15.00000000 </v>
   </varray>
   <i name="volume">   2644.25514646 </i>
   <varray name="rec_basis" >
    <v>       0.07009722       0.00000000       0.00000000 </v>
    <v>       0.00000000       0.08092581       0.00000000 </v>
    <v>       0.00000000       0.00000000       0.06666667 </v>
   </varray>
  </crystal>
  <varray name="positions" >
   <v>       0.06537593       0.40364000       0.13333000 </v>
   <v>       0.98097748       0.23494000       0.13333000 </v>
   <v>       0.22593437       0.39820000       0.13333000 </v>
   <v>       0.81543575       0.57710000       0.13333000 </v>
   <v>       0.14973747       0.23490000       0.13333000 </v>
   <v>       0.90517930       0.39797000       0.13333000 </v>
   <v>       0.56537593       0.40364000       0.13333000 </v>
   <v>       0.48097748       0.23494000       0.13333000 </v>
   <v>       0.72593437       0.39820000       0.13333000 </v>
   <v>       0.31543575       0.57710000       0.13333000 </v>
   <v>       0.64973747       0.23490000       0.13333000 </v>
   <v>       0.40517930       0.39797000       0.13333000 </v>
   <v>       0.81551954       0.90364000       0.13333000 </v>
   <v>       0.73112108       0.73494000       0.13333000 </v>
   <v>       0.97607797       0.89820000       0.13333000 </v>
   <v>       0.06529214       0.07710000       0.13333000 </v>
   <v>       0.89988107       0.73490000       0.13333000 </v>
   <v>       0.65532291       0.89797000       0.13333000 </v>
   <v>       0.31551954       0.90364000       0.13333000 </v>
   <v>       0.23112108       0.73494000       0.13333000 </v>
   <v>       0.47607797       0.89820000       0.13333000 </v>
   <v>       0.56529214       0.07710000       0.13333000 </v>
   <v>       0.39988107       0.73490000       0.13333000 </v>
   <v>       0.15532291       0.89797000       0.13333000 </v>
   <v>       0.98400093       0.45588000       0.13333000 </v>
   <v>       0.90111835       0.29021000       0.13333000 </v>
   <v>       0.14710595       0.45595000       0.13333000 </v>
   <v>       0.14840652       0.12714000       0.13333000 </v>
   <v>       0.98256150       0.12707000       0.13333000 </v>
   <v>       0.22992331       0.29008000       0.13333000 </v>
   <v>       0.06536362       0.29116000       0.13333000 </v>
   <v>       0.81553147       0.45774000       0.13333000 </v>
   <v>       0.48400093       0.45588000       0.13333000 </v>
   <v>       0.40111835       0.29021000       0.13333000 </v>
   <v>       0.64710595       0.45595000       0.13333000 </v>
   <v>       0.64840652       0.12714000       0.13333000 </v>
   <v>       0.48256150       0.12707000       0.13333000 </v>
   <v>       0.72992331       0.29008000       0.13333000 </v>
   <v>       0.56536362       0.29116000       0.13333000 </v>
   <v>       0.31553147       0.45774000       0.13333000 </v>
   <v>       0.73414454       0.95588000       0.13333000 </v>
   <v>       0.65126196       0.79021000       0.13333000 </v>
   <v>       0.89724956       0.95595000       0.13333000 </v>
   <v>       0.89855012       0.62714000       0.13333000 </v>
   <v>       0.73270510       0.62707000       0.13333000 </v>
   <v>       0.98006692       0.79008000       0.13333000 </v>
   <v>       0.81550723       0.79116000       0.13333000 </v>
   <v>       0.56567507       0.95774000       0.13333000 </v>
   <v>       0.23414454       0.95588000       0.13333000 </v>
   <v>       0.15126196       0.79021000       0.13333000 </v>
   <v>       0.39724956       0.95595000       0.13333000 </v>
   <v>       0.39855012       0.62714000       0.13333000 </v>
   <v>       0.23270510       0.62707000       0.13333000 </v>
   <v>       0.48006692       0.79008000       0.13333000 </v>
   <v>       0.31550723       0.79116000       0.13333000 </v>
   <v>       0.06567507       0.95774000       0.13333000 </v>
   <v>       0.51318019       0.65760505       0.14333042 </v>
   <v>       0.63498818       0.58816656       0.13951958 </v>
  </varray>
 </structure>
 <calculation>
  <scstep>
   <time name="dav">    1.72    1.72</time>
   <time name="total">    1.76    1.77</time>
   <dipole>
    <v name="dipole">      0.00000000       0.00000000       0.00014966 </v>
    <i name="Tr[quadrupol]">  -8498.00135662 </i>
    <i name="Echarged">      0.00000000 </i>
    <i name="Edipol_quadrupol">      0.00000000 </i>
    <i name="Eion">      0.00000000 </i>
   </dipole>
   <energy>
    <i name="alphaZ">    135.85888781 </i>
    <i name="ewald">  29478.43956568 </i>
    <i name="hartreedc"> -40152.70900060 </i>
    <i name="XCdc">    977.72729024 </i>
    <i name="pawpsdc">  10438.23365774 </i>
    <i name="pawaedc"> -10550.74322887 </i>
    <i name="eentropy">     -0.10823138 </i>
    <i name="bandstr">  -1143.94150258 </i>
    <i name="atom">  13401.91771041 </i>
    <i name="e_fr_energy">   2584.67514845 </i>
    <i name="e_wo_entrp">   2584.78337984 </i>
    <i name="e_0_energy">   2584.72926415 </i>
   </energy>
  </scstep>
  <scstep>
   <time name="dav">    1.97    1.98</time>
   <time name="total">    1.97    1.98</time>
   <dipole>
    <v name="dipole">      0.00000000       0.00000000       0.00014966 </v>
    <i name="Tr[quadrupol]">  -8498.00135662 </i>
    <i name="Echarged">      0.00000000 </i>
    <i name="Edipol_quadrupol">      0.00000000 </i>
    <i name="Eion">      0.00000000 </i>
   </dipole>
   <energy>
    <i name="e_fr_energy">     58.99320596 </i>
    <i name="e_wo_entrp">     59.02105503 </i>
    <i name="e_0_energy">     59.00713049 </i>
   </energy>
  </scstep>
  <scstep>
   <time name="dav">    1.81    1.81</time>
   <time name="total">    1.81    1.82</time>
   <dipole>
    <v name="dipole">      0.00000000       0.00000000       0.00014966 </v>
    <i name="Tr[quadrupol]">  -8498.00135662 </i>
    <i name="Echarged">      0.00000000 </i>
    <i name="Edipol_quadrupol">      0.00000000 </i>
    <i name="Eion">      0.00000000 </i>
   </dipole>
   <energy>
    <i name="e_fr_energy">   -489.30688290 </i>
    <i name="e_wo_entrp">   -489.26077492 </i>
    <i name="e_0_energy">   -489.28382891 </i>
   </energy>
  </scstep>
  <scstep>
   <time name="dav">    1.92    1.92</time>
   <time name="total">    1.92    1.92</time>
   <dipole>
    <v name="dipole">      0.00000000       0.00000000       0.00014966 </v>
    <i name="Tr[quadrupol]">  -8498.00135662 </i>
    <i name="Echarged">      0.00000000 </i>
    <i name="Edipol_quadrupol">      0.00000000 </i>
    <i name="Eion">      0.00000000 </i>
   </dipole>
   <energy>
    <i name="e_fr_energy">   -515.85656603 </i>
    <i name="e_wo_entrp">   -515.76146663 </i>
    <i name="e_0_energy">   -515.80901633 </i>
   </energy>
  </scstep>
  <scstep>
   <time name="dav">    2.00    2.01</time>
   <time name="total">    2.05    2.05</time>
   <dipole>
    <v name="dipole">      0.00000000       0.00000000       0.00014966 </v>
    <i name="Tr[quadrupol]">  -8498.00135662 </i>
    <i name="Echarged">      0.00000000 </i>
    <i name="Edipol_quadrupol">      0.00000000 </i>
    <i name="Eion">      0.00000000 </i>
   </dipole>
   <energy>
    <i name="e_fr_energy">   -516.92197591 </i>
    <i name="e_wo_entrp">   -516.81469429 </i>
    <i name="e_0_energy">   -516.86833510 </i>
   </energy>
  </scstep>
  <scstep>
   <time name="dav">    2.02    2.02</time>
   <time name="total">    2.11    2.11</time>
   <dipole>
    <v name="dipole">      0.00000000       0.00000000      -0.03619435 </v>
    <i name="Tr[quadrupol]">  -8499.28545704 </i>
    <i name="Echarged">      0.00000000 </i>
    <i name="Edipol_quadrupol">      0.00000000 </i>
    <i name="Eion">      0.00000000 </i>
   </dipole>
   <energy>
    <i name="e_fr_energy">   -572.71829623 </i>
    <i name="e_wo_entrp">   -572.63335178 </i>
    <i name="e_0_energy">   -572.67582401 </i>
   </energy>
  </scstep>
  <scstep>
   <time name="dav">    1.98    1.98</time>
   <time name="total">    2.06    2.06</time>
   <dipole>
    <v name="dipole">      0.00000000       0.00000000      -0.02697044 </v>
    <i name="Tr[quadrupol]">  -8499.52489857 </i>
    <i name="Echarged">      0.00000000 </i>
    <i name="Edipol_quadrupol">      0.00000000 </i>
    <i name="Eion">      0.00000000 </i>
   </dipole>
   <energy>
    <i name="e_fr_energy">   -542.22122389 </i>
    <i name="e_wo_entrp">   -542.11786886 </i>
    <i name="e_0_energy">   -542.16954638 </i>
   </energy>
  </scstep>
  <scstep>
   <time name="dav">    2.00    2.00</time>
   <time name="total">    2.08    2.09</time>
   <dipole>
    <v name="dipole">      0.00000000       0.00000000       0.02687687 </v>
    <i name="Tr[quadrupol]">  -8499.97299895 </i>
    <i name="Echarged">      0.00000000 </i>
    <i name="Edipol_quadrupol">      0.00000000 </i>
    <i name="Eion">      0.00000000 </i>
   </dipole>
   <energy>
    <i name="e_fr_energy">   -484.57731005 </i>
    <i name="e_wo_entrp">   -484.49790290 </i>
    <i name="e_0_energy">   -484.53760647 </i>
   </energy>
  </scstep>
  <scstep>
   <time name="dav">    1.79    1.79</time>
   <time name="total">    1.87    1.87</time>
   <dipole>
    <v name="dipole">      0.00000000       0.00000000      -0.03631322 </v>
    <i name="Tr[quadrupol]">  -8500.75894071 </i>
    <i name="Echarged">      0.00000000 </i>
    <i name="Edipol_quadrupol">      0.00000000 </i>
    <i name="Eion">      0.00000000 </i>
   </dipole>
   <energy>
    <i name="e_fr_energy">   -493.50359823 </i>
    <i name="e_wo_entrp">   -493.44028656 </i>
    <i name="e_0_energy">   -493.47194240 </i>
   </energy>
  </scstep>
  <scstep>
   <time name="dav">    2.02    2.02</time>
   <time name="total">    2.10    2.10</time>
   <dipole>
    <v name="dipole">      0.00000000       0.00000000      -0.00749453 </v>
    <i name="Tr[quadrupol]">  -8501.40808597 </i>
    <i name="Echarged">      0.00000000 </i>
    <i name="Edipol_quadrupol">      0.00000000 </i>
    <i name="Eion">      0.00000000 </i>
   </dipole>
   <energy>
    <i name="e_fr_energy">   -483.16574129 </i>
    <i name="e_wo_entrp">   -483.09834669 </i>
    <i name="e_0_energy">   -483.13204399 </i>
   </energy>
  </scstep>
  <scstep>
   <time name="dav">    2.15    2.15</time>
   <time name="total">    2.22    2.23</time>
   <dipole>
    <v name="dipole">      0.00000000       0.00000000       0.01195048 </v>
    <i name="Tr[quadrupol]">  -8501.99313110 </i>
    <i name="Echarged">      0.00000000 </i>
    <i name="Edipol_quadrupol">      0.00000000 </i>
    <i name="Eion">      0.00000000 </i>
   </dipole>
   <energy>
    <i name="e_fr_energy">   -478.46052750 </i>
    <i name="e_wo_entrp">   -478.39578581 </i>
    <i name="e_0_energy">   -478.42815666 </i>
   </energy>
  </scstep>
  <scstep>
   <time name="dav">    2.12    2.12</time>
   <time name="total">    2.21    2.21</time>
   <dipole>
    <v name="dipole">      0.00000000       0.00000000      -0.03925210 </v>
    <i name="Tr[quadrupol]">  -8502.09320688 </i>
    <i name="Echarged">      0.00000000 </i>
    <i name="Edipol_quadrupol">      0.00000000 </i>
    <i name="Eion">      0.00000000 </i>
   </dipole>
   <energy>
    <i name="e_fr_energy">   -477.74887591 </i>
    <i name="e_wo_entrp">   -477.69285288 </i>
    <i name="e_0_energy">   -477.72086439 </i>
   </energy>
  </scstep>
  <scstep>
   <time name="dav">    2.01    2.01</time>
   <time name="total">    2.09    2.10</time>
   <dipole>
    <v name="dipole">      0.00000000       0.00000000      -0.03451279 </v>
    <i name="Tr[quadrupol]">  -8502.94990252 </i>
    <i name="Echarged">      0.00000000 </i>
    <i name="Edipol_quadrupol">      0.00000000 </i>
    <i name="Eion">      0.00000000 </i>
   </dipole>
   <energy>
    <i name="e_fr_energy">   -476.53157603 </i>
    <i name="e_wo_entrp">   -476.45100763 </i>
    <i name="e_0_energy">   -476.49129183 </i>
   </energy>
  </scstep>
  <scstep>
   <time name="dav">    2.04    2.04</time>
   <time name="total">    2.12    2.13</time>
   <dipole>
    <v name="dipole">      0.00000000       0.00000000      -0.00950070 </v>
    <i name="Tr[quadrupol]">  -8503.44745131 </i>
    <i name="Echarged">      0.00000000 </i>
    <i name="Edipol_quadrupol">      0.00000000 </i>
    <i name="Eion">      0.00000000 </i>
   </dipole>
   <energy>
    <i name="e_fr_energy">   -476.44126493 </i>
    <i name="e_wo_entrp">   -476.37625570 </i>
    <i name="e_0_energy">   -476.40876031 </i>
   </energy>
  </scstep>
  <scstep>
   <time name="dav">    2.13    2.13</time>
   <time name="total">    2.21    2.21</time>
   <dipole>
    <v name="dipole">      0.00000000       0.00000000      -0.00256976 </v>
    <i name="Tr[quadrupol]">  -8504.18519056 </i>
    <i name="Echarged">      0.00000000 </i>
    <i name="Edipol_quadrupol">      0.00000000 </i>
    <i name="Eion">      0.00000000 </i>
   </dipole>
   <energy>
    <i name="e_fr_energy">   -476.45259983 </i>
    <i name="e_wo_entrp">   -476.36016629 </i>
    <i name="e_0_energy">   -476.40638306 </i>
   </energy>
  </scstep>
  <scstep>
   <time name="dav">    1.99    1.99</time>
   <time name="total">    2.07    2.07</time>
   <dipole>
    <v name="dipole">      0.00000000       0.00000000      -0.00428822 </v>
    <i name="Tr[quadrupol]">  -8504.43359744 </i>
    <i name="Echarged">      0.00000000 </i>
    <i name="Edipol_quadrupol">      0.00000000 </i>
    <i name="Eion">      0.00000000 </i>
   </dipole>
   <energy>
    <i name="e_fr_energy">   -476.38454915 </i>
    <i name="e_wo_entrp">   -476.31513394 </i>
    <i name="e_0_energy">   -476.34984155 </i>
   </energy>
  </scstep>
  <scstep>
   <time name="dav">    1.83    1.83</time>
   <time name="total">    1.91    1.92</time>
   <dipole>
    <v name="dipole">      0.00000000       0.00000000      -0.00402464 </v>
    <i name="Tr[quadrupol]">  -8504.84747825 </i>
    <i name="Echarged">      0.00000000 </i>
    <i name="Edipol_quadrupol">      0.00000000 </i>
    <i name="Eion">      0.00000000 </i>
   </dipole>
   <energy>
    <i name="e_fr_energy">   -476.38149157 </i>
    <i name="e_wo_entrp">   -476.30795532 </i>
    <i name="e_0_energy">   -476.34472344 </i>
   </energy>
  </scstep>
  <scstep>
   <time name="dav">    1.93    1.93</time>
   <time name="total">    2.01    2.02</time>
   <dipole>
    <v name="dipole">      0.00000000       0.00000000      -0.00302146 </v>
    <i name="Tr[quadrupol]">  -8505.47766372 </i>
    <i name="Echarged">      0.00000000 </i>
    <i name="Edipol_quadrupol">      0.00000000 </i>
    <i name="Eion">      0.00000000 </i>
   </dipole>
   <energy>
    <i name="e_fr_energy">   -476.37659766 </i>
    <i name="e_wo_entrp">   -476.29805149 </i>
    <i name="e_0_energy">   -476.33732457 </i>
   </energy>
  </scstep>
  <scstep>
   <time name="dav">    1.79    1.80</time>
   <time name="total">    1.88    1.88</time>
   <dipole>
    <v name="dipole">      0.00000000       0.00000000      -0.00185154 </v>
    <i name="Tr[quadrupol]">  -8506.03400498 </i>
    <i name="Echarged">      0.00000000 </i>
    <i name="Edipol_quadrupol">      0.00000000 </i>
    <i name="Eion">      0.00000000 </i>
   </dipole>
   <energy>
    <i name="e_fr_energy">   -476.37774061 </i>
    <i name="e_wo_entrp">   -476.29979494 </i>
    <i name="e_0_energy">   -476.33876777 </i>
   </energy>
  </scstep>
  <scstep>
   <time name="dav">    1.64    1.64</time>
   <time name="total">    1.72    1.72</time>
   <dipole>
    <v name="dipole">      0.00000000       0.00000000       0.00010003 </v>
    <i name="Tr[quadrupol]">  -8506.73307547 </i>
    <i name="Echarged">      0.00000000 </i>
    <i name="Edipol_quadrupol">      0.00000000 </i>
    <i name="Eion">      0.00000000 </i>
   </dipole>
   <energy>
    <i name="e_fr_energy">   -476.38103082 </i>
    <i name="e_wo_entrp">   -476.30361001 </i>
    <i name="e_0_energy">   -476.34232041 </i>
   </energy>
  </scstep>
  <scstep>
   <time name="dav">    1.78    1.78</time>
   <time name="total">    1.87    1.87</time>
   <dipole>
    <v name="dipole">      0.00000000       0.00000000       0.11333914 </v>
    <i name="Tr[quadrupol]">  -8507.54515145 </i>
    <i name="Echarged">      0.00000000 </i>
    <i name="Edipol_quadrupol">      0.00000000 </i>
    <i name="Eion">      0.00000000 </i>
   </dipole>
   <energy>
    <i name="e_fr_energy">   -476.38501322 </i>
    <i name="e_wo_entrp">   -476.30611570 </i>
    <i name="e_0_energy">   -476.34556446 </i>
   </energy>
  </scstep>
  <scstep>
   <time name="dav">    1.80    1.80</time>
   <time name="total">    1.88    1.89</time>
   <dipole>
    <v name="dipole">      0.00000000       0.00000000       0.16199876 </v>
    <i name="Tr[quadrupol]">  -8508.09776166 </i>
    <i name="Echarged">      0.00000000 </i>
    <i name="Edipol_quadrupol">      0.00000000 </i>
    <i name="Eion">      0.00000000 </i>
   </dipole>
   <energy>
    <i name="e_fr_energy">   -476.38713670 </i>
    <i name="e_wo_entrp">   -476.30701522 </i>
    <i name="e_0_energy">   -476.34707596 </i>
   </energy>
  </scstep>
  <scstep>
   <time name="dav">    1.76    1.76</time>
   <time name="total">    1.84    1.84</time>
   <dipole>
    <v name="dipole">      0.00000000       0.00000000       0.13867156 </v>
    <i name="Tr[quadrupol]">  -8508.50251902 </i>
    <i name="Echarged">      0.00000000 </i>
    <i name="Edipol_quadrupol">      0.00000000 </i>
    <i name="Eion">      0.00000000 </i>
   </dipole>
   <energy>
    <i name="e_fr_energy">   -476.38861872 </i>
    <i name="e_wo_entrp">   -476.30825931 </i>
    <i name="e_0_energy">   -476.34843902 </i>
   </energy>
  </scstep>
  <scstep>
   <time name="dav">    1.83    1.83</time>
   <time name="total">    1.91    1.91</time>
   <dipole>
    <v name="dipole">      0.00000000       0.00000000       0.11804932 </v>
    <i name="Tr[quadrupol]">  -8508.71354963 </i>
    <i name="Echarged">      0.00000000 </i>
    <i name="Edipol_quadrupol">      0.00000000 </i>
    <i name="Eion">      0.00000000 </i>
   </dipole>
   <energy>
    <i name="e_fr_energy">   -476.38926608 </i>
    <i name="e_wo_entrp">   -476.30873512 </i>
    <i name="e_0_energy">   -476.34900060 </i>
   </energy>
  </scstep>
  <scstep>
   <time name="dav">    1.57    1.57</time>
   <time name="total">    1.65    1.65</time>
   <dipole>
    <v name="dipole">      0.00000000       0.00000000       0.09831294 </v>
    <i name="Tr[quadrupol]">  -8508.83141644 </i>
    <i name="Echarged">      0.00000000 </i>
    <i name="Edipol_quadrupol">      0.00000000 </i>
    <i name="Eion">      0.00000000 </i>
   </dipole>
   <energy>
    <i name="e_fr_energy">   -476.39030495 </i>
    <i name="e_wo_entrp">   -476.31039328 </i>
    <i name="e_0_energy">   -476.35034911 </i>
   </energy>
  </scstep>
  <scstep>
   <time name="dav">    1.51    1.52</time>
   <time name="total">    1.59    1.60</time>
   <dipole>
    <v name="dipole">      0.00000000       0.00000000       0.05985469 </v>
    <i name="Tr[quadrupol]">  -8508.98907772 </i>
    <i name="Echarged">      0.00000000 </i>
    <i name="Edipol_quadrupol">      0.00000000 </i>
    <i name="Eion">      0.00000000 </i>
   </dipole>
   <energy>
    <i name="e_fr_energy">   -476.39215260 </i>
    <i name="e_wo_entrp">   -476.31260146 </i>
    <i name="e_0_energy">   -476.35237703 </i>
   </energy>
  </scstep>
  <scstep>
   <time name="dav">    1.43    1.43</time>
   <time name="total">    1.51    1.51</time>
   <dipole>
    <v name="dipole">      0.00000000       0.00000000       0.04459286 </v>
    <i name="Tr[quadrupol]">  -8509.03355871 </i>
    <i name="Echarged">      0.00000000 </i>
    <i name="Edipol_quadrupol">      0.00000000 </i>
    <i name="Eion">      0.00000000 </i>
   </dipole>
   <energy>
    <i name="e_fr_energy">   -476.39277297 </i>
    <i name="e_wo_entrp">   -476.31323130 </i>
    <i name="e_0_energy">   -476.35300213 </i>
   </energy>
  </scstep>
  <scstep>
   <time name="dav">    1.44    1.44</time>
   <time name="total">    1.52    1.52</time>
   <dipole>
    <v name="dipole">      0.00000000       0.00000000       0.02768303 </v>
    <i name="Tr[quadrupol]">  -8509.08364298 </i>
    <i name="Echarged">      0.00000000 </i>
    <i name="Edipol_quadrupol">      0.00000000 </i>
    <i name="Eion">      0.00000000 </i>
   </dipole>
   <energy>
    <i name="e_fr_energy">   -476.39350612 </i>
    <i name="e_wo_entrp">   -476.31403713 </i>
    <i name="e_0_energy">   -476.35377163 </i>
   </energy>
  </scstep>
  <scstep>
   <time name="dav">    1.32    1.32</time>
   <time name="total">    1.40    1.40</time>
   <dipole>
    <v name="dipole">      0.00000000       0.00000000       0.01663049 </v>
    <i name="Tr[quadrupol]">  -8509.12051330 </i>
    <i name="Echarged">      0.00000000 </i>
    <i name="Edipol_quadrupol">      0.00000000 </i>
    <i name="Eion">      0.00000000 </i>
   </dipole>
   <energy>
    <i name="e_fr_energy">   -476.39390230 </i>
    <i name="e_wo_entrp">   -476.31440639 </i>
    <i name="e_0_energy">   -476.35415434 </i>
   </energy>
  </scstep>
  <scstep>
   <time name="dav">    1.11    1.11</time>
   <time name="total">    1.19    1.20</time>
   <dipole>
    <v name="dipole">      0.00000000       0.00000000       0.01212590 </v>
    <i name="Tr[quadrupol]">  -8509.14083483 </i>
    <i name="Echarged">      0.00000000 </i>
    <i name="Edipol_quadrupol">      0.00000000 </i>
    <i name="Eion">      0.00000000 </i>
   </dipole>
   <energy>
    <i name="e_fr_energy">   -476.39403225 </i>
    <i name="e_wo_entrp">   -476.31459829 </i>
    <i name="e_0_energy">   -476.35431527 </i>
   </energy>
  </scstep>
  <scstep>
   <time name="dav">    1.11    1.11</time>
   <time name="total">    1.19    1.19</time>
   <dipole>
    <v name="dipole">      0.00000000       0.00000000       0.01097002 </v>
    <i name="Tr[quadrupol]">  -8509.14811862 </i>
    <i name="Echarged">      0.00000000 </i>
    <i name="Edipol_quadrupol">      0.00000000 </i>
    <i name="Eion">      0.00000000 </i>
   </dipole>
   <energy>
    <i name="e_fr_energy">   -476.39406748 </i>
    <i name="e_wo_entrp">   -476.31461204 </i>
    <i name="e_0_energy">   -476.35433976 </i>
   </energy>
  </scstep>
  <scstep>
   <time name="dav">    1.10    1.10</time>
   <time name="total">    1.18    1.18</time>
   <dipole>
    <v name="dipole">      0.00000000       0.00000000       0.01062390 </v>
    <i name="Tr[quadrupol]">  -8509.15296936 </i>
    <i name="Echarged">      0.00000000 </i>
    <i name="Edipol_quadrupol">      0.00000000 </i>
    <i name="Eion">      0.00000000 </i>
   </dipole>
   <energy>
    <i name="e_fr_energy">   -476.39408159 </i>
    <i name="e_wo_entrp">   -476.31457175 </i>
    <i name="e_0_energy">   -476.35432667 </i>
   </energy>
  </scstep>
  <scstep>
   <time name="dav">    1.11    1.11</time>
   <time name="total">    1.15    1.15</time>
   <dipole>
    <v name="dipole">      0.00000000       0.00000000       0.01076094 </v>
    <i name="Tr[quadrupol]">  -8509.15385949 </i>
    <i name="Echarged">      0.00000000 </i>
    <i name="Edipol_quadrupol">      0.00000000 </i>
    <i name="Eion">      0.00000000 </i>
   </dipole>
   <energy>
    <i name="alphaZ">    136.06851094 </i>
    <i name="ewald">  29478.43956568 </i>
    <i name="hartreedc"> -40951.01590305 </i>
    <i name="XCdc">   1009.88038762 </i>
    <i name="pawpsdc">  29928.93873376 </i>
    <i name="pawaedc"> -30057.88987635 </i>
    <i name="eentropy">     -0.07949768 </i>
    <i name="bandstr">  -3422.65371997 </i>
    <i name="atom">  13401.91771041 </i>
    <i name="e_fr_energy">   -476.39408864 </i>
    <i name="e_wo_entrp">   -476.31459096 </i>
    <i name="e_0_energy">   -476.35433980 </i>
   </energy>
  </scstep>
  <structure>
   <crystal>
    <varray name="basis" >
     <v>      14.26590000       0.00000000       0.00000000 </v>
     <v>       0.00000000      12.35699650       0.00000000 </v>
     <v>       0.00000000       0.00000000      15.00000000 </v>
    </varray>
    <i name="volume">   2644.25514646 </i>
    <varray name="rec_basis" >
     <v>       0.07009722       0.00000000       0.00000000 </v>
     <v>       0.00000000       0.08092581       0.00000000 </v>
     <v>       0.00000000       0.00000000       0.06666667 </v>
    </varray>
   </crystal>
   <varray name="positions" >
    <v>       0.06537593       0.40364000       0.13333000 </v>
    <v>       0.98097748       0.23494000       0.13333000 </v>
    <v>       0.22593437       0.39820000       0.13333000 </v>
    <v>       0.81543575       0.57710000       0.13333000 </v>
    <v>       0.14973747       0.23490000       0.13333000 </v>
    <v>       0.90517930       0.39797000       0.13333000 </v>
    <v>       0.56537593       0.40364000       0.13333000 </v>
    <v>       0.48097748       0.23494000       0.13333000 </v>
    <v>       0.72593437       0.39820000       0.13333000 </v>
    <v>       0.31543575       0.57710000       0.13333000 </v>
    <v>       0.64973747       0.23490000       0.13333000 </v>
    <v>       0.40517930       0.39797000       0.13333000 </v>
    <v>       0.81551954       0.90364000       0.13333000 </v>
    <v>       0.73112108       0.73494000       0.13333000 </v>
    <v>       0.97607797       0.89820000       0.13333000 </v>
    <v>       0.06529214       0.07710000       0.13333000 </v>
    <v>       0.89988107       0.73490000       0.13333000 </v>
    <v>       0.65532291       0.89797000       0.13333000 </v>
    <v>       0.31551954       0.90364000       0.13333000 </v>
    <v>       0.23112108       0.73494000       0.13333000 </v>
    <v>       0.47607797       0.89820000       0.13333000 </v>
    <v>       0.56529214       0.07710000       0.13333000 </v>
    <v>       0.39988107       0.73490000       0.13333000 </v>
    <v>       0.15532291       0.89797000       0.13333000 </v>
    <v>       0.98400093       0.45588000       0.13333000 </v>
    <v>       0.90111835       0.29021000       0.13333000 </v>
    <v>       0.14710595       0.45595000       0.13333000 </v>
    <v>       0.14840652       0.12714000       0.13333000 </v>
    <v>       0.98256150       0.12707000       0.13333000 </v>
    <v>       0.22992331       0.29008000       0.13333000 </v>
    <v>       0.06536362       0.29116000       0.13333000 </v>
    <v>       0.81553147       0.45774000       0.13333000 </v>
    <v>       0.48400093       0.45588000       0.13333000 </v>
    <v>       0.40111835       0.29021000       0.13333000 </v>
    <v>       0.64710595       0.45595000       0.13333000 </v>
    <v>       0.64840652       0.12714000       0.13333000 </v>
    <v>       0.48256150       0.12707000       0.13333000 </v>
    <v>       0.72992331       0.29008000       0.13333000 </v>
    <v>       0.56536362       0.29116000       0.13333000 </v>
    <v>       0.31553147       0.45774000       0.13333000 </v>
    <v>       0.73414454       0.95588000       0.13333000 </v>
    <v>       0.65126196       0.79021000       0.13333000 </v>
    <v>       0.89724956       0.95595000       0.13333000 </v>
    <v>       0.89855012       0.62714000       0.13333000 </v>
    <v>       0.73270510       0.62707000       0.13333000 </v>
    <v>       0.98006692       0.79008000       0.13333000 </v>
    <v>       0.81550723       0.79116000       0.13333000 </v>
    <v>       0.56567507       0.95774000       0.13333000 </v>
    <v>       0.23414454       0.95588000       0.13333000 </v>
    <v>       0.15126196       0.79021000       0.13333000 </v>
    <v>       0.39724956       0.95595000       0.13333000 </v>
    <v>       0.39855012       0.62714000       0.13333000 </v>
    <v>       0.23270510       0.62707000       0.13333000 </v>
    <v>       0.48006692       0.79008000       0.13333000 </v>
    <v>       0.31550723       0.79116000       0.13333000 </v>
    <v>       0.06567507       0.95774000       0.13333000 </v>
    <v>       0.51318019       0.65760505       0.14333042 </v>
    <v>       0.63498818       0.58816656       0.13951958 </v>
   </varray>
  </structure>
  <varray name="forces" >
   <v>       0.36805388       0.18265842       0.00133152 </v>
   <v>       0.08604298      -0.42192867      -0.00183172 </v>
   <v>       0.17581996      -0.19814368       0.01369137 </v>
   <v>       3.12924131      -1.61534028      -0.14994301 </v>
   <v>       0.27448386      -0.20409879      -0.00072557 </v>
   <v>       0.28600114      -0.14828303       0.00851789 </v>
   <v>      -1.45037126      -2.24497815      -0.04630137 </v>
   <v>      -0.24274759      -1.08547851       0.00191993 </v>
   <v>       3.03583124      -1.38781120      -0.02183391 </v>
   <v>      -0.69528735      -1.83311064      -0.08713050 </v>
   <v>       0.61431980      -0.82732057      -0.00852035 </v>
   <v>      -2.10974869      -0.46825249       0.01043311 </v>
   <v>       0.98556882       0.55799358       0.03269191 </v>
   <v>       1.99436789       3.07091379      -0.11979941 </v>
   <v>       0.74431041      -0.41319050      -0.00259086 </v>
   <v>       0.31751233      -0.21438919       0.00122713 </v>
   <v>       0.84661654      -0.32273691      -0.02229352 </v>
   <v>      -0.76106667       1.93029170      -0.00984293 </v>
   <v>       0.18427206       1.22038059       0.03529040 </v>
   <v>      -0.89521200      -0.90220796       0.01193643 </v>
   <v>       1.32879002       1.48086503      -0.06973071 </v>
   <v>       0.52256624      -0.40289630       0.01765972 </v>
   <v>      -3.91490745       2.10529334       0.35904291 </v>
   <v>      -0.21876518       0.06263244       0.00216259 </v>
   <v>      -0.26731926       0.18217150       0.00145778 </v>
   <v>      -0.29068045       0.12538657      -0.00113583 </v>
   <v>      -0.27199419       0.10053802      -0.00199453 </v>
   <v>      -0.07158027       0.05584398       0.00162707 </v>
   <v>      -0.24422755       0.27487004      -0.00141665 </v>
   <v>      -0.00955000       0.01703450       0.00288069 </v>
   <v>      -0.09151541       0.01349413       0.00064012 </v>
   <v>      -0.91264631       0.36968623       0.03036693 </v>
   <v>       1.25496118       1.11524618       0.15555950 </v>
   <v>       0.10560732       0.62771260       0.02859868 </v>
   <v>      -0.49716551      -2.96474121       0.04168969 </v>
   <v>      -0.04612816       0.33036534       0.02480061 </v>
   <v>      -0.36946163       0.77817370      -0.01008535 </v>
   <v>      -0.65834339       0.67769449      -0.07703350 </v>
   <v>       0.22025882       1.24466954      -0.06384777 </v>
   <v>       0.49513084      -0.29054007       0.05044618 </v>
   <v>      -0.60545060      -0.28592270       0.06997687 </v>
   <v>      -0.34766405      -1.42123529       0.03882937 </v>
   <v>      -1.06209743      -0.11084141       0.00079612 </v>
   <v>      -0.78271027       0.34403743      -0.00573990 </v>
   <v>      12.56832353       3.59573728      -0.72081071 </v>
   <v>      -0.19716819       0.25674188       0.02707869 </v>
   <v>      -0.88804504      -0.77316793      -0.04781403 </v>
   <v>       0.44592282      -0.20921502       0.00600120 </v>
   <v>       0.18898785       0.07870005      -0.02773370 </v>
   <v>      -0.02977857      -0.05749617       0.00715316 </v>
   <v>      -0.58947570      -0.78868669      -0.03840500 </v>
   <v>      -4.16129518      -0.02787532      -1.02425120 </v>
   <v>       0.41555607       0.95897624      -0.06180855 </v>
   <v>      -0.97867728       3.11438604      -0.83988952 </v>
   <v>       0.98086189      -0.49028893       0.17192782 </v>
   <v>      -0.16525370       0.11207922      -0.00196660 </v>
   <v>       4.21241907      -4.91687931       1.44336209 </v>
   <v>     -11.95549356       0.04248304       0.86537924 </v>
  </varray>
  <varray name="stress" >
   <v>      22.59190050       0.68846487      -0.29108852 </v>
   <v>       0.68846484       6.73585223      -0.44566001 </v>
   <v>      -0.29108854      -0.44566004     -12.31405432 </v>
  </varray>
  <energy>
   <i name="e_fr_energy">   -476.39408864 </i>
   <i name="e_wo_entrp">   -476.31459096 </i>
   <i name="e_0_energy">   -476.35433980 </i>
  </energy>
  <time name="totalsc">   61.37   61.49</time>
 </calculation>
 <calculation>
  <scstep>
   <time name="dav">    1.49    1.49</time>
   <time name="total">    1.57    1.57</time>
   <dipole>
    <v name="dipole">      0.00000000       0.00000000       0.01110664 </v>
    <i name="Tr[quadrupol]">  -8580.09834494 </i>
    <i name="Echarged">      0.00000000 </i>
    <i name="Edipol_quadrupol">      0.00000000 </i>
    <i name="Eion">      0.00000000 </i>
   </dipole>
   <energy>
    <i name="alphaZ">    134.98706260 </i>
    <i name="ewald">  29136.08446741 </i>
    <i name="hartreedc"> -40605.64504584 </i>
    <i name="XCdc">   1007.05945945 </i>
    <i name="pawpsdc">  29928.93381473 </i>
    <i name="pawaedc"> -30057.88502951 </i>
    <i name="eentropy">     -0.09317443 </i>
    <i name="bandstr">  -3423.86469570 </i>
    <i name="atom">  13401.91771041 </i>
    <i name="e_fr_energy">   -478.50543088 </i>
    <i name="e_wo_entrp">   -478.41225645 </i>
    <i name="e_0_energy">   -478.45884366 </i>
   </energy>
  </scstep>
  <scstep>
   <time name="dav">    1.98    1.98</time>
   <time name="total">    2.06    2.06</time>
   <dipole>
    <v name="dipole">      0.00000000       0.00000000       0.00505897 </v>
    <i name="Tr[quadrupol]">  -8580.09871256 </i>
    <i name="Echarged">      0.00000000 </i>
    <i name="Edipol_quadrupol">      0.00000000 </i>
    <i name="Eion">      0.00000000 </i>
   </dipole>
   <energy>
    <i name="e_fr_energy">   -479.78342797 </i>
    <i name="e_wo_entrp">   -479.71463324 </i>
    <i name="e_0_energy">   -479.74903061 </i>
   </energy>
  </scstep>
  <scstep>
   <time name="dav">    2.06    2.07</time>
   <time name="total">    2.14    2.15</time>
   <dipole>
    <v name="dipole">      0.00000000       0.00000000       0.01093673 </v>
    <i name="Tr[quadrupol]">  -8580.14107543 </i>
    <i name="Echarged">      0.00000000 </i>
    <i name="Edipol_quadrupol">      0.00000000 </i>
    <i name="Eion">      0.00000000 </i>
   </dipole>
   <energy>
    <i name="e_fr_energy">   -481.06938298 </i>
    <i name="e_wo_entrp">   -481.00344996 </i>
    <i name="e_0_energy">   -481.03641647 </i>
   </energy>
  </scstep>
  <scstep>
   <time name="dav">    2.06    2.06</time>
   <time name="total">    2.14    2.15</time>
   <dipole>
    <v name="dipole">      0.00000000       0.00000000       0.00322195 </v>
    <i name="Tr[quadrupol]">  -8580.02544606 </i>
    <i name="Echarged">      0.00000000 </i>
    <i name="Edipol_quadrupol">      0.00000000 </i>
    <i name="Eion">      0.00000000 </i>
   </dipole>
   <energy>
    <i name="e_fr_energy">   -479.83666888 </i>
    <i name="e_wo_entrp">   -479.76034270 </i>
    <i name="e_0_energy">   -479.79850579 </i>
   </energy>
  </scstep>
  <scstep>
   <time name="dav">    2.08    2.08</time>
   <time name="total">    2.16    2.16</time>
   <dipole>
    <v name="dipole">      0.00000000       0.00000000       0.00373198 </v>
    <i name="Tr[quadrupol]">  -8580.13393683 </i>
    <i name="Echarged">      0.00000000 </i>
    <i name="Edipol_quadrupol">      0.00000000 </i>
    <i name="Eion">      0.00000000 </i>
   </dipole>
   <energy>
    <i name="e_fr_energy">   -479.15968228 </i>
    <i name="e_wo_entrp">   -479.08852081 </i>
    <i name="e_0_energy">   -479.12410155 </i>
   </energy>
  </scstep>
  <scstep>
   <time name="dav">    1.99    1.99</time>
   <time name="total">    2.07    2.07</time>
   <dipole>
    <v name="dipole">      0.00000000       0.00000000       0.00554940 </v>
    <i name="Tr[quadrupol]">  -8580.16706676 </i>
    <i name="Echarged">      0.00000000 </i>
    <i name="Edipol_quadrupol">      0.00000000 </i>
    <i name="Eion">      0.00000000 </i>
   </dipole>
   <energy>
    <i name="e_fr_energy">   -478.94754628 </i>
    <i name="e_wo_entrp">   -478.87519001 </i>
    <i name="e_0_energy">   -478.91136814 </i>
   </energy>
  </scstep>
  <scstep>
   <time name="dav">    1.83    1.83</time>
   <time name="total">    1.91    1.91</time>
   <dipole>
    <v name="dipole">      0.00000000       0.00000000       0.00724463 </v>
    <i name="Tr[quadrupol]">  -8580.16258049 </i>
    <i name="Echarged">      0.00000000 </i>
    <i name="Edipol_quadrupol">      0.00000000 </i>
    <i name="Eion">      0.00000000 </i>
   </dipole>
   <energy>
    <i name="e_fr_energy">   -478.91310359 </i>
    <i name="e_wo_entrp">   -478.82620954 </i>
    <i name="e_0_energy">   -478.86965657 </i>
   </energy>
  </scstep>
  <scstep>
   <time name="dav">    2.04    2.04</time>
   <time name="total">    2.11    2.12</time>
   <dipole>
    <v name="dipole">      0.00000000       0.00000000       0.00682797 </v>
    <i name="Tr[quadrupol]">  -8580.15162089 </i>
    <i name="Echarged">      0.00000000 </i>
    <i name="Edipol_quadrupol">      0.00000000 </i>
    <i name="Eion">      0.00000000 </i>
   </dipole>
   <energy>
    <i name="e_fr_energy">   -478.90754816 </i>
    <i name="e_wo_entrp">   -478.81865683 </i>
    <i name="e_0_energy">   -478.86310249 </i>
   </energy>
  </scstep>
  <scstep>
   <time name="dav">    1.83    1.83</time>
   <time name="total">    1.91    1.91</time>
   <dipole>
    <v name="dipole">      0.00000000       0.00000000       0.00835932 </v>
    <i name="Tr[quadrupol]">  -8580.16290691 </i>
    <i name="Echarged">      0.00000000 </i>
    <i name="Edipol_quadrupol">      0.00000000 </i>
    <i name="Eion">      0.00000000 </i>
   </dipole>
   <energy>
    <i name="e_fr_energy">   -478.90666788 </i>
    <i name="e_wo_entrp">   -478.80917599 </i>
    <i name="e_0_energy">   -478.85792193 </i>
   </energy>
  </scstep>
  <scstep>
   <time name="dav">    1.93    1.93</time>
   <time name="total">    2.01    2.01</time>
   <dipole>
    <v name="dipole">      0.00000000       0.00000000       0.00881415 </v>
    <i name="Tr[quadrupol]">  -8580.16752793 </i>
    <i name="Echarged">      0.00000000 </i>
    <i name="Edipol_quadrupol">      0.00000000 </i>
    <i name="Eion">      0.00000000 </i>
   </dipole>
   <energy>
    <i name="e_fr_energy">   -478.90673128 </i>
    <i name="e_wo_entrp">   -478.81098679 </i>
    <i name="e_0_energy">   -478.85885904 </i>
   </energy>
  </scstep>
  <scstep>
   <time name="dav">    1.97    1.97</time>
   <time name="total">    2.05    2.05</time>
   <dipole>
    <v name="dipole">      0.00000000       0.00000000       0.00943974 </v>
    <i name="Tr[quadrupol]">  -8580.17671309 </i>
    <i name="Echarged">      0.00000000 </i>
    <i name="Edipol_quadrupol">      0.00000000 </i>
    <i name="Eion">      0.00000000 </i>
   </dipole>
   <energy>
    <i name="e_fr_energy">   -478.90671386 </i>
    <i name="e_wo_entrp">   -478.81086592 </i>
    <i name="e_0_energy">   -478.85878989 </i>
   </energy>
  </scstep>
  <scstep>
   <time name="dav">    1.82    1.82</time>
   <time name="total">    1.90    1.90</time>
   <dipole>
    <v name="dipole">      0.00000000       0.00000000       0.00927701 </v>
    <i name="Tr[quadrupol]">  -8580.18013109 </i>
    <i name="Echarged">      0.00000000 </i>
    <i name="Edipol_quadrupol">      0.00000000 </i>
    <i name="Eion">      0.00000000 </i>
   </dipole>
   <energy>
    <i name="e_fr_energy">   -478.90672444 </i>
    <i name="e_wo_entrp">   -478.81130029 </i>
    <i name="e_0_energy">   -478.85901236 </i>
   </energy>
  </scstep>
  <scstep>
   <time name="dav">    1.31    1.32</time>
   <time name="total">    1.39    1.40</time>
   <dipole>
    <v name="dipole">      0.00000000       0.00000000       0.00954702 </v>
    <i name="Tr[quadrupol]">  -8580.18688771 </i>
    <i name="Echarged">      0.00000000 </i>
    <i name="Edipol_quadrupol">      0.00000000 </i>
    <i name="Eion">      0.00000000 </i>
   </dipole>
   <energy>
    <i name="e_fr_energy">   -478.90674532 </i>
    <i name="e_wo_entrp">   -478.81103342 </i>
    <i name="e_0_energy">   -478.85888937 </i>
   </energy>
  </scstep>
  <scstep>
   <time name="dav">    1.18    1.18</time>
   <time name="total">    1.27    1.29</time>
   <dipole>
    <v name="dipole">      0.00000000       0.00000000       0.00930270 </v>
    <i name="Tr[quadrupol]">  -8580.18900130 </i>
    <i name="Echarged">      0.00000000 </i>
    <i name="Edipol_quadrupol">      0.00000000 </i>
    <i name="Eion">      0.00000000 </i>
   </dipole>
   <energy>
    <i name="e_fr_energy">   -478.90679196 </i>
    <i name="e_wo_entrp">   -478.81115849 </i>
    <i name="e_0_energy">   -478.85897522 </i>
   </energy>
  </scstep>
  <scstep>
   <time name="dav">    1.12    1.12</time>
   <time name="total">    1.20    1.20</time>
   <dipole>
    <v name="dipole">      0.00000000       0.00000000       0.00903815 </v>
    <i name="Tr[quadrupol]">  -8580.19121368 </i>
    <i name="Echarged">      0.00000000 </i>
    <i name="Edipol_quadrupol">      0.00000000 </i>
    <i name="Eion">      0.00000000 </i>
   </dipole>
   <energy>
    <i name="e_fr_energy">   -478.90683736 </i>
    <i name="e_wo_entrp">   -478.81104782 </i>
    <i name="e_0_energy">   -478.85894259 </i>
   </energy>
  </scstep>
  <scstep>
   <time name="dav">    1.15    1.15</time>
   <time name="total">    1.23    1.23</time>
   <dipole>
    <v name="dipole">      0.00000000       0.00000000       0.00863074 </v>
    <i name="Tr[quadrupol]">  -8580.19440178 </i>
    <i name="Echarged">      0.00000000 </i>
    <i name="Edipol_quadrupol">      0.00000000 </i>
    <i name="Eion">      0.00000000 </i>
   </dipole>
   <energy>
    <i name="e_fr_energy">   -478.90689352 </i>
    <i name="e_wo_entrp">   -478.81095822 </i>
    <i name="e_0_energy">   -478.85892587 </i>
   </energy>
  </scstep>
  <scstep>
   <time name="dav">    1.11    1.11</time>
   <time name="total">    1.20    1.20</time>
   <dipole>
    <v name="dipole">      0.00000000       0.00000000       0.00825081 </v>
    <i name="Tr[quadrupol]">  -8580.19466768 </i>
    <i name="Echarged">      0.00000000 </i>
    <i name="Edipol_quadrupol">      0.00000000 </i>
    <i name="Eion">      0.00000000 </i>
   </dipole>
   <energy>
    <i name="e_fr_energy">   -478.90692769 </i>
    <i name="e_wo_entrp">   -478.81107145 </i>
    <i name="e_0_energy">   -478.85899957 </i>
   </energy>
  </scstep>
  <scstep>
   <time name="dav">    1.12    1.12</time>
   <time name="total">    1.20    1.20</time>
   <dipole>
    <v name="dipole">      0.00000000       0.00000000       0.00808218 </v>
    <i name="Tr[quadrupol]">  -8580.19592539 </i>
    <i name="Echarged">      0.00000000 </i>
    <i name="Edipol_quadrupol">      0.00000000 </i>
    <i name="Eion">      0.00000000 </i>
   </dipole>
   <energy>
    <i name="e_fr_energy">   -478.90694248 </i>
    <i name="e_wo_entrp">   -478.81104491 </i>
    <i name="e_0_energy">   -478.85899370 </i>
   </energy>
  </scstep>
  <scstep>
   <time name="dav">    1.07    1.08</time>
   <time name="total">    1.16    1.16</time>
   <dipole>
    <v name="dipole">      0.00000000       0.00000000       0.00786924 </v>
    <i name="Tr[quadrupol]">  -8580.19743933 </i>
    <i name="Echarged">      0.00000000 </i>
    <i name="Edipol_quadrupol">      0.00000000 </i>
    <i name="Eion">      0.00000000 </i>
   </dipole>
   <energy>
    <i name="e_fr_energy">   -478.90695714 </i>
    <i name="e_wo_entrp">   -478.81105595 </i>
    <i name="e_0_energy">   -478.85900654 </i>
   </energy>
  </scstep>
  <scstep>
   <time name="dav">    1.11    1.11</time>
   <time name="total">    1.14    1.14</time>
   <dipole>
    <v name="dipole">      0.00000000       0.00000000       0.00775045 </v>
    <i name="Tr[quadrupol]">  -8580.19829389 </i>
    <i name="Echarged">      0.00000000 </i>
    <i name="Edipol_quadrupol">      0.00000000 </i>
    <i name="Eion">      0.00000000 </i>
   </dipole>
   <energy>
    <i name="alphaZ">    134.93612377 </i>
    <i name="ewald">  29136.08446741 </i>
    <i name="hartreedc"> -40624.70663240 </i>
    <i name="XCdc">   1008.06462506 </i>
    <i name="pawpsdc">  29340.51168954 </i>
    <i name="pawaedc"> -29467.47044009 </i>
    <i name="eentropy">     -0.09590222 </i>
    <i name="bandstr">  -3408.14860460 </i>
    <i name="atom">  13401.91771041 </i>
    <i name="e_fr_energy">   -478.90696312 </i>
    <i name="e_wo_entrp">   -478.81106090 </i>
    <i name="e_0_energy">   -478.85901201 </i>
   </energy>
  </scstep>
  <structure>
   <crystal>
    <varray name="basis" >
     <v>      14.35438668       0.00000000       0.00000000 </v>
     <v>       0.00000000      12.37984888       0.00000000 </v>
     <v>       0.00000000       0.00000000      15.00000000 </v>
    </varray>
    <i name="volume">   2665.57706944 </i>
    <varray name="rec_basis" >
     <v>       0.06966512       0.00000000       0.00000000 </v>
     <v>       0.00000000       0.08077643       0.00000000 </v>
     <v>       0.00000000       0.00000000       0.06666667 </v>
    </varray>
   </crystal>
   <varray name="positions" >
    <v>       0.06562486       0.40378262       0.13333086 </v>
    <v>       0.98103567       0.23461055       0.13332882 </v>
    <v>       0.22605328       0.39804529       0.13333881 </v>
    <v>       0.81755217       0.57583872       0.13323355 </v>
    <v>       0.14992311       0.23474064       0.13332953 </v>
    <v>       0.90537273       0.39785422       0.13333548 </v>
    <v>       0.56439499       0.40188709       0.13330022 </v>
    <v>       0.48081330       0.23409244       0.13333123 </v>
    <v>       0.72798761       0.39711638       0.13331596 </v>
    <v>       0.31496550       0.57566868       0.13327395 </v>
    <v>       0.65015295       0.23425402       0.13332452 </v>
    <v>       0.40375240       0.39760438       0.13333671 </v>
    <v>       0.81618611       0.90407569       0.13335103 </v>
    <v>       0.73246995       0.73733782       0.13325294 </v>
    <v>       0.97658138       0.89787737       0.13332833 </v>
    <v>       0.06550689       0.07693260       0.13333079 </v>
    <v>       0.90045367       0.73464800       0.13331566 </v>
    <v>       0.65480817       0.89947720       0.13332367 </v>
    <v>       0.31564417       0.90459289       0.13335270 </v>
    <v>       0.23051562       0.73423554       0.13333768 </v>
    <v>       0.47697668       0.89935628       0.13328515 </v>
    <v>       0.56564557       0.07678541       0.13334136 </v>
    <v>       0.39723328       0.73654385       0.13356095 </v>
    <v>       0.15517495       0.89801890       0.13333139 </v>
    <v>       0.98382014       0.45602224       0.13333094 </v>
    <v>       0.90092175       0.29030790       0.13332927 </v>
    <v>       0.14692200       0.45602850       0.13332872 </v>
    <v>       0.14835810       0.12718360       0.13333105 </v>
    <v>       0.98239632       0.12728462       0.13332909 </v>
    <v>       0.22991686       0.29009330       0.13333185 </v>
    <v>       0.06530173       0.29117054       0.13333041 </v>
    <v>       0.81491421       0.45802866       0.13334953 </v>
    <v>       0.48484971       0.45675080       0.13343006 </v>
    <v>       0.40118978       0.29070013       0.13334840 </v>
    <v>       0.64676970       0.45363508       0.13335682 </v>
    <v>       0.64837532       0.12739795       0.13334595 </v>
    <v>       0.48231162       0.12767761       0.13332351 </v>
    <v>       0.72947805       0.29060915       0.13328045 </v>
    <v>       0.56551259       0.29213186       0.13328893 </v>
    <v>       0.31586634       0.45751314       0.13336245 </v>
    <v>       0.73373505       0.95565675       0.13337501 </v>
    <v>       0.65102682       0.78910028       0.13335498 </v>
    <v>       0.89653123       0.95586345       0.13333051 </v>
    <v>       0.89802075       0.62740863       0.13332631 </v>
    <v>       0.74120550       0.62987761       0.13286635 </v>
    <v>       0.97993357       0.79028047       0.13334742 </v>
    <v>       0.81490661       0.79055630       0.13329924 </v>
    <v>       0.56597667       0.95757664       0.13333386 </v>
    <v>       0.23427236       0.95594145       0.13331216 </v>
    <v>       0.15124182       0.79016511       0.13333460 </v>
    <v>       0.39685088       0.95533418       0.13330530 </v>
    <v>       0.39573569       0.62711823       0.13267117 </v>
    <v>       0.23298616       0.62781878       0.13329024 </v>
    <v>       0.47940501       0.79251176       0.13278975 </v>
    <v>       0.31617062       0.79077717       0.13344059 </v>
    <v>       0.06556331       0.95782751       0.13332874 </v>
    <v>       0.51602920       0.65376587       0.14425884 </v>
    <v>       0.62690225       0.58819973       0.14007623 </v>
   </varray>
  </structure>
  <varray name="forces" >
   <v>      -0.09224744       0.14620963      -0.00238128 </v>
   <v>      -0.04820846       0.01690116      -0.00285516 </v>
   <v>      -0.30515146      -0.18982044       0.01461699 </v>
   <v>       3.03142775      -1.35736273      -0.07664820 </v>
   <v>       0.00103335      -0.03703640      -0.00216336 </v>
   <v>       0.28154264      -0.11852970       0.01134372 </v>
   <v>      -0.43501340      -1.45224333      -0.05263358 </v>
   <v>      -0.06279183      -0.13173164      -0.01738495 </v>
   <v>       0.70976792      -0.29132533      -0.01651116 </v>
   <v>      -1.40685165      -0.93936686      -0.11921411 </v>
   <v>       0.57158479       0.08447283      -0.01138901 </v>
   <v>      -0.45830069      -0.03691101       0.03782829 </v>
   <v>      -0.01822018       0.30426383       0.01059048 </v>
   <v>       1.41237843       1.24459492      -0.10696232 </v>
   <v>      -0.03302633       0.21945144      -0.00117819 </v>
   <v>      -0.00587187       0.05478910       0.00147823 </v>
   <v>       0.41786996      -0.55133489      -0.00773192 </v>
   <v>      -0.23291762       0.70266260       0.00976293 </v>
   <v>       0.11118607       0.70056651       0.03673306 </v>
   <v>      -0.49982184      -0.26372455       0.01513803 </v>
   <v>       0.15191212       1.46750918      -0.06920925 </v>
   <v>       0.22455243       0.15883220       0.01908437 </v>
   <v>      -1.43602813       1.06956646       0.15414397 </v>
   <v>       0.22301278       0.03136642       0.00670916 </v>
   <v>       0.04050788      -0.07447152      -0.00318206 </v>
   <v>       0.12686114      -0.00596688       0.00160740 </v>
   <v>       0.14583021      -0.08172581       0.00071355 </v>
   <v>      -0.26582734      -0.01239347       0.00289426 </v>
   <v>       0.26322881      -0.06543028      -0.00296895 </v>
   <v>      -0.14196794       0.05867573      -0.00159118 </v>
   <v>       0.07117194      -0.02158510       0.00088482 </v>
   <v>       0.32307478      -0.16518499      -0.01470830 </v>
   <v>      -0.02706432       0.18443534       0.13252012 </v>
   <v>       0.12044227       0.35927064      -0.00968562 </v>
   <v>      -0.07745345      -2.18886282       0.05095628 </v>
   <v>      -0.41118437      -0.08163624       0.01776848 </v>
   <v>       0.24933264       0.02214183       0.00555517 </v>
   <v>      -0.26542497      -0.34565021      -0.02440458 </v>
   <v>      -0.31169273      -0.12923987      -0.06126556 </v>
   <v>       0.00944554      -0.33884126       0.03633272 </v>
   <v>      -0.17927821      -0.29974084       0.01158500 </v>
   <v>       0.46827451      -0.90134709       0.06185574 </v>
   <v>      -0.01866659      -0.19200006       0.01171545 </v>
   <v>       1.08953336       0.33461890       0.02110082 </v>
   <v>      -2.15613743       1.13538694       0.00403488 </v>
   <v>      -0.34030494      -0.03914237       0.01600260 </v>
   <v>       0.29960576       0.95482129      -0.05020258 </v>
   <v>       0.29723379       0.16508949       0.01983462 </v>
   <v>      -0.03824997      -0.10696078      -0.02179165 </v>
   <v>       0.14802708      -0.01515291      -0.00817683 </v>
   <v>      -0.02025494      -0.10733929      -0.06838762 </v>
   <v>      -0.95609211       1.17500156      -0.55983151 </v>
   <v>       0.19300455      -0.08237139      -0.02650298 </v>
   <v>      -1.22283922      -0.38233446      -0.38953674 </v>
   <v>      -0.53129801       0.30733749       0.15963587 </v>
   <v>      -0.12514993       0.08443985      -0.00097639 </v>
   <v>       0.66175613      -1.90392180       0.83380912 </v>
   <v>       0.47973874       1.92828098       0.02323891 </v>
  </varray>
  <varray name="stress" >
   <v>       1.92210975      -1.61788971       0.11150614 </v>
   <v>      -1.61788969       0.39883385      -0.09156706 </v>
   <v>       0.11150616      -0.09156703     -12.57454995 </v>
  </varray>
  <energy>
   <i name="e_fr_energy">   -478.90696312 </i>
   <i name="e_wo_entrp">   -478.81106090 </i>
   <i name="e_0_energy">   -478.85901201 </i>
  </energy>
  <time name="totalsc">   35.14   35.21</time>
 </calculation>
 <calculation>
  <scstep>
   <time name="dav">    1.49    1.49</time>
   <time name="total">    1.57    1.57</time>
   <dipole>
    <v name="dipole">      0.00000000       0.00000000       0.00765685 </v>
    <i name="Tr[quadrupol]">  -8589.20829589 </i>
    <i name="Echarged">      0.00000000 </i>
    <i name="Edipol_quadrupol">      0.00000000 </i>
    <i name="Eion">      0.00000000 </i>
   </dipole>
   <energy>
    <i name="alphaZ">    134.79802844 </i>
    <i name="ewald">  29095.89988728 </i>
    <i name="hartreedc"> -40583.20328646 </i>
    <i name="XCdc">   1007.73695788 </i>
    <i name="pawpsdc">  29340.49746092 </i>
    <i name="pawaedc"> -29467.45597343 </i>
    <i name="eentropy">     -0.09461526 </i>
    <i name="bandstr">  -3409.01925094 </i>
[...]
    <v>       0.23513057       0.62202112       0.10444233 </v>
    <v>       0.47396146       0.79321004       0.17236248 </v>
    <v>       0.30708657       0.79764572       0.13355751 </v>
    <v>       0.06604992       0.95311292       0.13533442 </v>
    <v>       0.51311902       0.61165552       0.19274629 </v>
    <v>       0.62364194       0.61658097       0.09074234 </v>
   </varray>
  </structure>
  <varray name="forces" >
   <v>      -0.01090090      -0.01434088       0.00211189 </v>
   <v>       0.08911920      -0.03417961       0.00875528 </v>
   <v>       0.02121147      -0.03558962      -0.01628325 </v>
   <v>      -0.04703147      -0.04836379      -0.02731742 </v>
   <v>      -0.00436025      -0.03460744       0.02795566 </v>
   <v>      -0.01766923       0.00801124       0.00175277 </v>
   <v>       0.04090018      -0.03958151       0.01639053 </v>
   <v>      -0.01287832      -0.03034021      -0.00501545 </v>
   <v>       0.02855979      -0.05122446      -0.03280651 </v>
   <v>       0.06202657       0.01613940      -0.03310518 </v>
   <v>       0.07025292       0.00541432      -0.00399165 </v>
   <v>       0.05417616      -0.02406506      -0.00432780 </v>
   <v>       0.01082445       0.00312668      -0.11005704 </v>
   <v>      -0.10921699      -0.01297829      -0.04282096 </v>
   <v>       0.04135600      -0.03216202      -0.03212251 </v>
   <v>      -0.08913760       0.03631229      -0.02813854 </v>
   <v>       0.01512342      -0.06273089      -0.05935911 </v>
   <v>       0.01051718      -0.05845787      -0.03228037 </v>
   <v>      -0.07825162       0.04533950      -0.00842646 </v>
   <v>      -0.02538884      -0.00536585      -0.02562961 </v>
   <v>       0.01389027       0.10096569       0.01997303 </v>
   <v>      -0.02751437       0.01272999       0.05724903 </v>
   <v>      -0.05406546       0.11077159       0.09775060 </v>
   <v>      -0.00476018      -0.00526293       0.09637263 </v>
   <v>      -0.00257269       0.05854633       0.01774977 </v>
   <v>      -0.00805595       0.03220078       0.04700518 </v>
   <v>      -0.04095017      -0.00657709      -0.02637857 </v>
   <v>       0.01007873       0.07989349       0.11781126 </v>
   <v>      -0.01122012      -0.01389547      -0.02667781 </v>
   <v>       0.03093300      -0.00918733      -0.05781277 </v>
   <v>      -0.00910382       0.08445209      -0.01393125 </v>
   <v>      -0.03842981      -0.04501809      -0.07693087 </v>
   <v>       0.03520157      -0.02529418      -0.05630147 </v>
   <v>       0.03860270       0.05372157       0.06153156 </v>
   <v>       0.02622697      -0.01035389       0.11212040 </v>
   <v>       0.04453053      -0.00349662      -0.16412908 </v>
   <v>       0.01894054      -0.00619566       0.14410810 </v>
   <v>       0.08608418      -0.04370750      -0.05880490 </v>
   <v>       0.02964030      -0.00468572      -0.04123705 </v>
   <v>       0.07901651      -0.01640325      -0.01168767 </v>
   <v>       0.02875136       0.09441619       0.00005308 </v>
   <v>      -0.04956535      -0.03132915       0.10081469 </v>
   <v>       0.04542174      -0.02584022      -0.01000002 </v>
   <v>      -0.09020542      -0.03417417      -0.00822157 </v>
   <v>      -0.08989019       0.03326089      -0.01189865 </v>
   <v>       0.00487769      -0.04651959       0.03026568 </v>
   <v>       0.01329796      -0.01632968      -0.10606814 </v>
   <v>      -0.02675133      -0.05113464       0.03376226 </v>
   <v>      -0.04183634       0.01727608      -0.04887985 </v>
   <v>       0.08597170      -0.05475351       0.07340842 </v>
   <v>      -0.00512727       0.03481045      -0.06508746 </v>
   <v>      -0.00940422       0.04872188       0.06976023 </v>
   <v>       0.03418473       0.01425891      -0.05116985 </v>
   <v>      -0.03735767      -0.03475307       0.13198337 </v>
   <v>       0.01952435       0.08138216       0.05445454 </v>
   <v>      -0.00464064      -0.13145091       0.04662141 </v>
   <v>      -0.09109965       0.09860317      -0.06671774 </v>
   <v>      -0.05185630       0.02999546      -0.00614481 </v>
  </varray>
  <varray name="stress" >
   <v>       0.02472998       0.69538713       0.29492245 </v>
   <v>       0.69538714      -0.55942426       0.06448846 </v>
   <v>       0.29492244       0.06448848     -10.24848468 </v>
  </varray>
  <energy>
   <i name="e_fr_energy">   -485.84268109 </i>
   <i name="e_wo_entrp">   -485.79405579 </i>
   <i name="e_0_energy">   -485.81836844 </i>
  </energy>
  <time name="totalsc">   20.08   20.31</time>
 </calculation>
 <calculation>
  <scstep>
   <time name="dav">    1.53    1.54</time>
   <time name="total">    1.61    1.63</time>
   <dipole>
    <v name="dipole">      0.00000000       0.00000000      -0.05788404 </v>
    <i name="Tr[quadrupol]">  -7824.65162193 </i>
    <i name="Echarged">      0.00000000 </i>
    <i name="Edipol_quadrupol">      0.00000000 </i>
    <i name="Eion">      0.00000000 </i>
   </dipole>
   <energy>
    <i name="alphaZ">    146.33192260 </i>
    <i name="ewald">  29151.55785743 </i>
    <i name="hartreedc"> -40628.88175285 </i>
    <i name="XCdc">   1007.96863786 </i>
    <i name="pawpsdc">  29297.39156197 </i>
    <i name="pawaedc"> -29421.39319178 </i>
    <i name="eentropy">     -0.04931525 </i>
    <i name="bandstr">  -3440.68246014 </i>
    <i name="atom">  13401.91771041 </i>
    <i name="e_fr_energy">   -485.83902975 </i>
    <i name="e_wo_entrp">   -485.78971451 </i>
    <i name="e_0_energy">   -485.81437213 </i>
   </energy>
  </scstep>
  <scstep>
   <time name="dav">    1.76    1.78</time>
   <time name="total">    1.84    1.86</time>
   <dipole>
    <v name="dipole">      0.00000000       0.00000000      -0.05712532 </v>
    <i name="Tr[quadrupol]">  -7824.64749053 </i>
    <i name="Echarged">      0.00000000 </i>
    <i name="Edipol_quadrupol">      0.00000000 </i>
    <i name="Eion">      0.00000000 </i>
   </dipole>
   <energy>
    <i name="e_fr_energy">   -485.84573608 </i>
    <i name="e_wo_entrp">   -485.79694063 </i>
    <i name="e_0_energy">   -485.82133836 </i>
   </energy>
  </scstep>
  <scstep>
   <time name="dav">    2.00    2.03</time>
   <time name="total">    2.08    2.10</time>
   <dipole>
    <v name="dipole">      0.00000000       0.00000000      -0.05549151 </v>
    <i name="Tr[quadrupol]">  -7824.64465189 </i>
    <i name="Echarged">      0.00000000 </i>
    <i name="Edipol_quadrupol">      0.00000000 </i>
    <i name="Eion">      0.00000000 </i>
   </dipole>
   <energy>
    <i name="e_fr_energy">   -485.84972244 </i>
    <i name="e_wo_entrp">   -485.79836041 </i>
    <i name="e_0_energy">   -485.82404142 </i>
   </energy>
  </scstep>
  <scstep>
   <time name="dav">    1.94    1.96</time>
   <time name="total">    2.02    2.04</time>
   <dipole>
    <v name="dipole">      0.00000000       0.00000000      -0.05668731 </v>
    <i name="Tr[quadrupol]">  -7824.64471140 </i>
    <i name="Echarged">      0.00000000 </i>
    <i name="Edipol_quadrupol">      0.00000000 </i>
    <i name="Eion">      0.00000000 </i>
   </dipole>
   <energy>
    <i name="e_fr_energy">   -485.84541025 </i>
    <i name="e_wo_entrp">   -485.79749668 </i>
    <i name="e_0_energy">   -485.82145346 </i>
   </energy>
  </scstep>
  <scstep>
   <time name="dav">    1.98    2.01</time>
   <time name="total">    2.06    2.09</time>
   <dipole>
    <v name="dipole">      0.00000000       0.00000000      -0.05652275 </v>
    <i name="Tr[quadrupol]">  -7824.64235993 </i>
    <i name="Echarged">      0.00000000 </i>
    <i name="Edipol_quadrupol">      0.00000000 </i>
    <i name="Eion">      0.00000000 </i>
   </dipole>
   <energy>
    <i name="e_fr_energy">   -485.84713062 </i>
    <i name="e_wo_entrp">   -485.79513935 </i>
    <i name="e_0_energy">   -485.82113498 </i>
   </energy>
  </scstep>
  <scstep>
   <time name="dav">    1.91    1.94</time>
   <time name="total">    1.99    2.02</time>
   <dipole>
    <v name="dipole">      0.00000000       0.00000000      -0.05591020 </v>
    <i name="Tr[quadrupol]">  -7824.64119048 </i>
    <i name="Echarged">      0.00000000 </i>
    <i name="Edipol_quadrupol">      0.00000000 </i>
    <i name="Eion">      0.00000000 </i>
   </dipole>
   <energy>
    <i name="e_fr_energy">   -485.84525992 </i>
    <i name="e_wo_entrp">   -485.79614782 </i>
    <i name="e_0_energy">   -485.82070387 </i>
   </energy>
  </scstep>
  <scstep>
   <time name="dav">    1.71    1.73</time>
   <time name="total">    1.79    1.81</time>
   <dipole>
    <v name="dipole">      0.00000000       0.00000000      -0.05565035 </v>
    <i name="Tr[quadrupol]">  -7824.63849138 </i>
    <i name="Echarged">      0.00000000 </i>
    <i name="Edipol_quadrupol">      0.00000000 </i>
    <i name="Eion">      0.00000000 </i>
   </dipole>
   <energy>
    <i name="e_fr_energy">   -485.84542362 </i>
    <i name="e_wo_entrp">   -485.79609185 </i>
    <i name="e_0_energy">   -485.82075773 </i>
   </energy>
  </scstep>
  <scstep>
   <time name="dav">    1.30    1.32</time>
   <time name="total">    1.33    1.36</time>
   <dipole>
    <v name="dipole">      0.00000000       0.00000000      -0.05555908 </v>
    <i name="Tr[quadrupol]">  -7824.63762320 </i>
    <i name="Echarged">      0.00000000 </i>
    <i name="Edipol_quadrupol">      0.00000000 </i>
    <i name="Eion">      0.00000000 </i>
   </dipole>
   <energy>
    <i name="alphaZ">    146.33475278 </i>
    <i name="ewald">  29151.55785743 </i>
    <i name="hartreedc"> -40627.45726548 </i>
    <i name="XCdc">   1007.91255567 </i>
    <i name="pawpsdc">  29290.63798102 </i>
    <i name="pawaedc"> -29414.62991077 </i>
    <i name="eentropy">     -0.04923690 </i>
    <i name="bandstr">  -3442.06987592 </i>
    <i name="atom">  13401.91771041 </i>
    <i name="e_fr_energy">   -485.84543177 </i>
    <i name="e_wo_entrp">   -485.79619486 </i>
    <i name="e_0_energy">   -485.82081332 </i>
   </energy>
  </scstep>
  <structure>
   <crystal>
    <varray name="basis" >
     <v>      13.72670744       0.00000000       0.00000000 </v>
     <v>       0.00000000      11.91746010       0.00000000 </v>
     <v>       0.00000000       0.00000000      15.00000000 </v>
    </varray>
    <i name="volume">   2453.81232368 </i>
    <varray name="rec_basis" >
     <v>       0.07285068       0.00000000       0.00000000 </v>
     <v>       0.00000000       0.08391050       0.00000000 </v>
     <v>       0.00000000       0.00000000       0.06666667 </v>
    </varray>
   </crystal>
   <varray name="positions" >
    <v>       0.06475613       0.40343764       0.11787549 </v>
    <v>       0.98498151       0.22875642       0.08940417 </v>
    <v>       0.21884047       0.39749787       0.17100705 </v>
    <v>       0.82938966       0.57676831       0.11092373 </v>
    <v>       0.13722414       0.23397629       0.17573775 </v>
    <v>       0.90691177       0.39512229       0.08146327 </v>
    <v>       0.56495908       0.40660774       0.13956362 </v>
    <v>       0.48092492       0.23279691       0.16324353 </v>
    <v>       0.72680090       0.40495631       0.09787270 </v>
    <v>       0.30529214       0.57631069       0.15238887 </v>
    <v>       0.64779006       0.23448127       0.10879885 </v>
    <v>       0.40054033       0.40157788       0.17294016 </v>
    <v>       0.82059713       0.90668130       0.17100654 </v>
    <v>       0.75064065       0.74597040       0.10013781 </v>
    <v>       0.98436377       0.89695113       0.16807282 </v>
    <v>       0.06342470       0.07393417       0.13448047 </v>
    <v>       0.91012462       0.72911984       0.16343067 </v>
    <v>       0.65769716       0.89674559       0.13677330 </v>
    <v>       0.31441825       0.91004378       0.10361412 </v>
    <v>       0.22540025       0.73301591       0.10565175 </v>
    <v>       0.47801636       0.89611469       0.13242360 </v>
    <v>       0.56619316       0.07344007       0.13570294 </v>
    <v>       0.38620551       0.74525695       0.16540850 </v>
    <v>       0.15017980       0.89982017       0.10342116 </v>
    <v>       0.98714306       0.45701309       0.08799937 </v>
    <v>       0.90564909       0.28429922       0.06567382 </v>
    <v>       0.14580475       0.45595089       0.13845446 </v>
    <v>       0.12925723       0.12250127       0.18695317 </v>
    <v>       0.99509662       0.11702268       0.08172046 </v>
    <v>       0.21477848       0.29219841       0.20285413 </v>
    <v>       0.06194862       0.28713892       0.12918680 </v>
    <v>       0.81910311       0.45834451       0.09385826 </v>
    <v>       0.48704726       0.46374364       0.17238030 </v>
    <v>       0.39919449       0.29070817       0.17328097 </v>
    <v>       0.64230894       0.46731884       0.10855108 </v>
    <v>       0.64410445       0.12395071       0.10042242 </v>
    <v>       0.48738912       0.12168936       0.17072597 </v>
    <v>       0.72732255       0.29467234       0.09404580 </v>
    <v>       0.56491105       0.29242765       0.13810596 </v>
    <v>       0.30983242       0.45833979       0.16998384 </v>
    <v>       0.73039647       0.94899391       0.17830918 </v>
    <v>       0.66315559       0.79526565       0.09246455 </v>
    <v>       0.90322470       0.95953998       0.18576894 </v>
    <v>       0.90020890       0.61688993       0.16180975 </v>
    <v>       0.75834989       0.63897043       0.07141637 </v>
    <v>       0.99077016       0.78470586       0.17992983 </v>
    <v>       0.82765991       0.79508282       0.13875060 </v>
    <v>       0.56771786       0.95337061       0.13471423 </v>
    <v>       0.23150856       0.96364715       0.09104501 </v>
    <v>       0.14467559       0.78873840       0.08790634 </v>
    <v>       0.40435933       0.95088148       0.09417115 </v>
    <v>       0.38065612       0.63626709       0.18776025 </v>
    <v>       0.23509090       0.62192163       0.10473345 </v>
    <v>       0.47409022       0.79300801       0.17254166 </v>
    <v>       0.30712149       0.79765823       0.13394907 </v>
    <v>       0.06601379       0.95310015       0.13520578 </v>
    <v>       0.51307273       0.61196924       0.19265290 </v>
    <v>       0.62358682       0.61697790       0.09066123 </v>
   </varray>
  </structure>
  <varray name="forces" >
   <v>       0.01600436       0.02598685       0.01684486 </v>
   <v>       0.14560269      -0.19996488       0.03026932 </v>
   <v>       0.07971839      -0.05354629       0.02191988 </v>
   <v>      -0.00997507      -0.02018944      -0.00299198 </v>
   <v>      -0.01620788      -0.13368373       0.02436562 </v>
   <v>      -0.06192543       0.00325322      -0.01395897 </v>
   <v>       0.01349672      -0.03970612       0.02146804 </v>
   <v>       0.02502175      -0.09733320      -0.02933713 </v>
   <v>       0.00095364      -0.08281067      -0.02357343 </v>
   <v>       0.09114690       0.01330158      -0.00722297 </v>
   <v>       0.06711154      -0.02056747      -0.02152891 </v>
   <v>       0.09789510      -0.06738439      -0.00233855 </v>
   <v>      -0.01771861       0.02943696      -0.09876536 </v>
   <v>      -0.21190676       0.02621805      -0.06776539 </v>
   <v>       0.05466728      -0.11604700      -0.03050203 </v>
   <v>      -0.07551512       0.04806371      -0.01862847 </v>
   <v>       0.00888502      -0.09665746      -0.04603654 </v>
   <v>       0.05758648      -0.09852081      -0.03480208 </v>
   <v>      -0.20920074       0.07836655      -0.01288725 </v>
   <v>      -0.11845569       0.01779369      -0.06039333 </v>
   <v>       0.01053402       0.18175832      -0.00392283 </v>
   <v>      -0.09706814       0.07697450       0.09554525 </v>
   <v>      -0.05819896       0.02304164       0.11063712 </v>
   <v>       0.01652145      -0.01221526       0.07901757 </v>
   <v>       0.02452754       0.02897825       0.03022181 </v>
   <v>      -0.06592936       0.11122386       0.04267856 </v>
   <v>      -0.11645082      -0.03435923      -0.05740116 </v>
   <v>       0.03426595       0.12305509       0.13530195 </v>
   <v>      -0.02419286       0.04217231      -0.05463471 </v>
   <v>       0.03662729       0.02553893      -0.06875534 </v>
   <v>      -0.01998147       0.16835329      -0.02415960 </v>
   <v>       0.01536533      -0.04061731      -0.07993864 </v>
   <v>      -0.00817472      -0.05534487      -0.05266991 </v>
   <v>       0.00256899       0.12083819       0.07399112 </v>
   <v>       0.05142009       0.00437894       0.09084238 </v>
   <v>       0.14219885       0.04600114      -0.19602530 </v>
   <v>      -0.01529128      -0.00522789       0.14133705 </v>
   <v>       0.05931680      -0.07034847      -0.04889897 </v>
   <v>       0.03207419       0.05350016      -0.02432106 </v>
   <v>       0.08648118      -0.03342991      -0.01812770 </v>
   <v>       0.04279725       0.10193568      -0.01625676 </v>
   <v>       0.03806274      -0.06474151       0.11226181 </v>
   <v>       0.00915872      -0.04934572      -0.01839580 </v>
   <v>      -0.11880201      -0.05128968      -0.03908769 </v>
   <v>      -0.10269964       0.04512911      -0.01899203 </v>
   <v>      -0.02030943       0.04550939       0.02443215 </v>
   <v>       0.08022569      -0.01449297      -0.08202418 </v>
   <v>      -0.07683037      -0.07469781       0.04348219 </v>
   <v>      -0.01378465      -0.04615065      -0.02930941 </v>
   <v>       0.13665162      -0.04531701       0.09914157 </v>
   <v>       0.09160073       0.05522926      -0.06601480 </v>
   <v>       0.04383069       0.12189879       0.07219857 </v>
   <v>       0.02346439       0.05777354      -0.07763279 </v>
   <v>      -0.04629853      -0.06299066       0.15520489 </v>
   <v>       0.00411677       0.08293989       0.04853403 </v>
   <v>       0.00403512      -0.14040693       0.04545882 </v>
   <v>      -0.09352568       0.08183951      -0.05973986 </v>
   <v>      -0.04549207      -0.01310308      -0.00811363 </v>
  </varray>
  <varray name="stress" >
   <v>       0.20497550       0.67238764       0.27183961 </v>
   <v>       0.67238766      -0.97856719       0.02446201 </v>
   <v>       0.27183962       0.02446203     -10.13604496 </v>
  </varray>
  <energy>
   <i name="e_fr_energy">   -485.84543177 </i>
   <i name="e_wo_entrp">   -485.79619486 </i>
   <i name="e_0_energy">   -485.82081332 </i>
  </energy>
  <time name="totalsc">   16.04   16.23</time>
 </calculation>
 <calculation>
  <scstep>
   <time name="dav">    1.53    1.54</time>
   <time name="total">    1.61    1.62</time>
   <dipole>
    <v name="dipole">      0.00000000       0.00000000      -0.05540907 </v>
    <i name="Tr[quadrupol]">  -7820.15865336 </i>
    <i name="Echarged">      0.00000000 </i>
    <i name="Edipol_quadrupol">      0.00000000 </i>
    <i name="Eion">      0.00000000 </i>
   </dipole>
   <energy>
    <i name="alphaZ">    146.45982998 </i>
    <i name="ewald">  29158.21120709 </i>
    <i name="hartreedc"> -40636.48852051 </i>
    <i name="XCdc">   1008.07321247 </i>
    <i name="pawpsdc">  29290.11390861 </i>
    <i name="pawaedc"> -29414.10906357 </i>
    <i name="eentropy">     -0.04932736 </i>
    <i name="bandstr">  -3439.96747450 </i>
    <i name="atom">  13401.91771041 </i>
    <i name="e_fr_energy">   -485.83851739 </i>
    <i name="e_wo_entrp">   -485.78919003 </i>
    <i name="e_0_energy">   -485.81385371 </i>
   </energy>
  </scstep>
  <scstep>
   <time name="dav">    1.70    1.73</time>
   <time name="total">    1.78    1.81</time>
   <dipole>
    <v name="dipole">      0.00000000       0.00000000      -0.05359889 </v>
    <i name="Tr[quadrupol]">  -7820.15165433 </i>
    <i name="Echarged">      0.00000000 </i>
    <i name="Edipol_quadrupol">      0.00000000 </i>
    <i name="Eion">      0.00000000 </i>
   </dipole>
   <energy>
    <i name="e_fr_energy">   -485.86347665 </i>
    <i name="e_wo_entrp">   -485.81758910 </i>
    <i name="e_0_energy">   -485.84053287 </i>
   </energy>
  </scstep>
  <scstep>
