slab_Cel1-OPT                           
           1
    14.265900    0.000000    0.000000
     0.000000   12.356997    0.000000
     0.000000    0.000000   15.000000
   C    N    Fe   Co
    24    32     1     1
Direct configuration=     1
   0.06537593  0.40364000  0.13333000
   0.98097748  0.23494000  0.13333000
   0.22593437  0.39820000  0.13333000
   0.81543575  0.57710000  0.13333000
   0.14973747  0.23490000  0.13333000
   0.90517930  0.39797000  0.13333000
   0.56537593  0.40364000  0.13333000
   0.48097748  0.23494000  0.13333000
   0.72593437  0.39820000  0.13333000
   0.31543575  0.57710000  0.13333000
   0.64973747  0.23490000  0.13333000
   0.40517930  0.39797000  0.13333000
   0.81551954  0.90364000  0.13333000
   0.73112108  0.73494000  0.13333000
   0.97607797  0.89820000  0.13333000
   0.06529214  0.07710000  0.13333000
   0.89988107  0.73490000  0.13333000
   0.65532291  0.89797000  0.13333000
   0.31551954  0.90364000  0.13333000
   0.23112108  0.73494000  0.13333000
   0.47607797  0.89820000  0.13333000
   0.56529214  0.07710000  0.13333000
   0.39988107  0.73490000  0.13333000
   0.15532291  0.89797000  0.13333000
   0.98400093  0.45588000  0.13333000
   0.90111835  0.29021000  0.13333000
   0.14710595  0.45595000  0.13333000
   0.14840652  0.12714000  0.13333000
   0.98256150  0.12707000  0.13333000
   0.22992331  0.29008000  0.13333000
   0.06536362  0.29116000  0.13333000
   0.81553147  0.45774000  0.13333000
   0.48400093  0.45588000  0.13333000
   0.40111835  0.29021000  0.13333000
   0.64710595  0.45595000  0.13333000
   0.64840652  0.12714000  0.13333000
   0.48256150  0.12707000  0.13333000
   0.72992331  0.29008000  0.13333000
   0.56536362  0.29116000  0.13333000
   0.31553147  0.45774000  0.13333000
   0.73414454  0.95588000  0.13333000
   0.65126196  0.79021000  0.13333000
   0.89724956  0.95595000  0.13333000
   0.89855012  0.62714000  0.13333000
   0.73270510  0.62707000  0.13333000
   0.98006692  0.79008000  0.13333000
   0.81550723  0.79116000  0.13333000
   0.56567507  0.95774000  0.13333000
   0.23414454  0.95588000  0.13333000
   0.15126196  0.79021000  0.13333000
   0.39724956  0.95595000  0.13333000
   0.39855012  0.62714000  0.13333000
   0.23270510  0.62707000  0.13333000
   0.48006692  0.79008000  0.13333000
   0.31550723  0.79116000  0.13333000
   0.06567507  0.95774000  0.13333000
   0.51318019  0.65760505  0.14333042
   0.63498818  0.58816656  0.13951958
slab_Cel1-OPT                           
           1
    14.354387    0.000000    0.000000
     0.000000   12.379849    0.000000
     0.000000    0.000000   15.000000
   C    N    Fe   Co
    24    32     1     1
Direct configuration=     2
   0.06562486  0.40378262  0.13333086
   0.98103567  0.23461055  0.13332882
   0.22605328  0.39804529  0.13333881
   0.81755217  0.57583872  0.13323355
   0.14992311  0.23474064  0.13332953
   0.90537273  0.39785422  0.13333548
   0.56439499  0.40188709  0.13330022
   0.48081330  0.23409244  0.13333123
   0.72798761  0.39711638  0.13331596
   0.31496550  0.57566868  0.13327395
   0.65015295  0.23425402  0.13332452
   0.40375240  0.39760438  0.13333671
   0.81618611  0.90407569  0.13335103
   0.73246995  0.73733782  0.13325294
   0.97658138  0.89787737  0.13332833
   0.06550689  0.07693260  0.13333079
   0.90045367  0.73464800  0.13331566
   0.65480817  0.89947720  0.13332367
   0.31564417  0.90459289  0.13335270
   0.23051562  0.73423554  0.13333768
   0.47697668  0.89935628  0.13328515
   0.56564557  0.07678541  0.13334136
   0.39723328  0.73654385  0.13356095
   0.15517495  0.89801890  0.13333139
   0.98382014  0.45602224  0.13333094
   0.90092175  0.29030790  0.13332927
   0.14692200  0.45602850  0.13332872
   0.14835810  0.12718360  0.13333105
   0.98239632  0.12728462  0.13332909
   0.22991686  0.29009330  0.13333185
   0.06530173  0.29117054  0.13333041
   0.81491421  0.45802866  0.13334953
   0.48484971  0.45675080  0.13343006
   0.40118978  0.29070013  0.13334840
   0.64676970  0.45363508  0.13335682
   0.64837532  0.12739795  0.13334595
   0.48231162  0.12767761  0.13332351
   0.72947805  0.29060915  0.13328045
   0.56551259  0.29213186  0.13328893
   0.31586634  0.45751314  0.13336245
   0.73373505  0.95565675  0.13337501
   0.65102682  0.78910028  0.13335498
   0.89653123  0.95586345  0.13333051
   0.89802075  0.62740863  0.13332631
   0.74120550  0.62987761  0.13286635
   0.97993357  0.79028047  0.13334742
   0.81490661  0.79055630  0.13329924
   0.56597667  0.95757664  0.13333386
   0.23427236  0.95594145  0.13331216
   0.15124182  0.79016511  0.13333460
   0.39685088  0.95533418  0.13330530
   0.39573569  0.62711823  0.13267117
   0.23298616  0.62781878  0.13329024
   0.47940501  0.79251176  0.13278975
   0.31617062  0.79077717  0.13344059
   0.06556331  0.95782751  0.13332874
   0.51602920  0.65376587  0.14425884
   0.62690225  0.58819973  0.14007623
slab_Cel1-OPT                           
           1
    14.365541    0.000000    0.000000
     0.000000   12.382729    0.000000
     0.000000    0.000000   15.000000
   C    N    Fe   Co
    24    32     1     1
Direct configuration=     3
   0.06565604  0.40380057  0.13333096
   0.98104296  0.23456910  0.13332867
   0.22606818  0.39802582  0.13333992
   0.81781730  0.57568003  0.13322139
   0.14994637  0.23472059  0.13332947
   0.90539697  0.39783965  0.13333617
   0.56427211  0.40166654  0.13329646
   0.48079273  0.23398580  0.13333139
   0.72824483  0.39698004  0.13331419
   0.31490659  0.57548859  0.13326689
   0.65020500  0.23417274  0.13332383
   0.40357365  0.39755838  0.13333756
   0.81626962  0.90413051  0.13335368
   0.73263892  0.73763951  0.13324323
   0.97664444  0.89783678  0.13332812
   0.06553379  0.07691154  0.13333089
   0.90052540  0.73461630  0.13331385
   0.65474369  0.89966683  0.13332287
   0.31565978  0.90471278  0.13335556
   0.23043977  0.73414691  0.13333865
   0.47708927  0.89950176  0.13327949
   0.56568985  0.07674583  0.13334279
   0.39690158  0.73675067  0.13359006
   0.15515641  0.89802506  0.13333157
   0.98379749  0.45604014  0.13333106
   0.90089713  0.29032022  0.13332918
   0.14689895  0.45603838  0.13332856
   0.14835204  0.12718909  0.13333118
   0.98237562  0.12731163  0.13332897
   0.22991605  0.29009497  0.13333209
   0.06529398  0.29117186  0.13333046
   0.81483689  0.45806497  0.13335200
   0.48495604  0.45686036  0.13344267
   0.40119873  0.29076179  0.13335071
   0.64672758  0.45334383  0.13336020
   0.64837141  0.12743041  0.13334796
   0.48228031  0.12775406  0.13332270
   0.72942227  0.29067573  0.13327420
   0.56553126  0.29225413  0.13328375
   0.31590829  0.45748460  0.13336654
   0.73368375  0.95562866  0.13338069
   0.65099736  0.78896065  0.13335812
   0.89644124  0.95585256  0.13333058
   0.89795443  0.62744243  0.13332584
   0.74227038  0.63023085  0.13280791
   0.97991686  0.79030569  0.13334961
   0.81483137  0.79048034  0.13329537
   0.56601445  0.95755609  0.13333435
   0.23428837  0.95594918  0.13330991
   0.15123929  0.79015946  0.13333518
   0.39680093  0.95525670  0.13330218
   0.39538312  0.62711550  0.13258812
   0.23302137  0.62791299  0.13328523
   0.47932209  0.79281772  0.13272165
   0.31625373  0.79072901  0.13345453
   0.06554931  0.95783852  0.13332858
   0.51638611  0.65328284  0.14437587
   0.62588930  0.58820390  0.14014639
slab_Cel1-OPT                           
           1
    14.377304    0.000000    0.000000
     0.000000   12.384250    0.000000
     0.000000    0.000000   15.000000
   C    N    Fe   Co
    24    32     1     1
Direct configuration=     4
   0.06558825  0.40393287  0.13332926
   0.98100472  0.23458305  0.13332657
   0.22583522  0.39785537  0.13335108
   0.82020170  0.57443233  0.13316300
   0.14994955  0.23468636  0.13332790
   0.90561817  0.39773063  0.13334469
   0.56392800  0.40037879  0.13325732
   0.48073339  0.23386686  0.13331969
   0.72881460  0.39670276  0.13330136
   0.31381718  0.57462721  0.13317860
   0.65065142  0.23423625  0.13331574
   0.40319459  0.39752261  0.13336411
   0.81624758  0.90440315  0.13336198
   0.73372418  0.73874764  0.13316391
   0.97662317  0.89803007  0.13332751
   0.06553194  0.07696015  0.13333161
   0.90084354  0.73412578  0.13330769
   0.65454422  0.90029917  0.13333046
   0.31574284  0.90534921  0.13338313
   0.23004481  0.73391356  0.13335021
   0.47722433  0.90083373  0.13322593
   0.56586367  0.07687799  0.13335706
   0.39579199  0.73770010  0.13370369
   0.15532681  0.89805569  0.13333621
   0.98382734  0.45597496  0.13332881
   0.90099432  0.29031545  0.13333028
   0.14700814  0.45596641  0.13332905
   0.14814593  0.12717904  0.13333332
   0.98257658  0.12725515  0.13332681
   0.22980509  0.29014732  0.13333080
   0.06534825  0.29115311  0.13333112
   0.81508384  0.45791668  0.13334345
   0.48497109  0.45705711  0.13354280
   0.40129752  0.29108305  0.13334457
   0.64669622  0.45139661  0.13339544
   0.64805810  0.12736900  0.13336109
   0.48246974  0.12777668  0.13332639
   0.72921684  0.29036334  0.13325520
   0.56529440  0.29212486  0.13323838
   0.31591044  0.45718129  0.13339412
   0.73355294  0.95535892  0.13338998
   0.65133693  0.78813338  0.13340614
   0.89642826  0.95568525  0.13333908
   0.89882086  0.62774746  0.13334109
   0.74106686  0.63142753  0.13277496
   0.97965746  0.79027197  0.13336158
   0.81509760  0.79135656  0.13325901
   0.56624237  0.95771186  0.13334943
   0.23425894  0.95585493  0.13329389
   0.15135340  0.79014439  0.13332936
   0.39678429  0.95515586  0.13325290
   0.39460451  0.62816205  0.13216230
   0.23317496  0.62783793  0.13326527
   0.47835958  0.79251129  0.13242421
   0.31581642  0.79102414  0.13357465
   0.06545389  0.95791363  0.13332768
   0.51683956  0.65164705  0.14501667
   0.62582418  0.58963603  0.14019147
slab_Cel1-OPT                           
           1
    14.384112    0.000000    0.000000
     0.000000   12.385130    0.000000
     0.000000    0.000000   15.000000
   C    N    Fe   Co
    24    32     1     1
Direct configuration=     5
   0.06554905  0.40400943  0.13332828
   0.98098261  0.23459112  0.13332535
   0.22570052  0.39775675  0.13335754
   0.82158042  0.57371038  0.13312921
   0.14995140  0.23466656  0.13332700
   0.90574608  0.39766755  0.13334962
   0.56372903  0.39963366  0.13323466
   0.48069908  0.23379804  0.13331292
   0.72914406  0.39654232  0.13329394
   0.31318726  0.57412879  0.13312750
   0.65090954  0.23427300  0.13331106
   0.40297541  0.39750191  0.13337948
   0.81623484  0.90456090  0.13336678
   0.73435170  0.73938884  0.13311801
   0.97661086  0.89814191  0.13332715
   0.06553088  0.07698827  0.13333203
   0.90102750  0.73384195  0.13330413
   0.65442888  0.90066505  0.13333485
   0.31579087  0.90571746  0.13339908
   0.22981643  0.73377853  0.13335690
   0.47730243  0.90160444  0.13319493
   0.56596417  0.07695446  0.13336531
   0.39515040  0.73824946  0.13376944
   0.15542533  0.89807341  0.13333889
   0.98384459  0.45593724  0.13332750
   0.90105052  0.29031269  0.13333092
   0.14707128  0.45592477  0.13332934
   0.14802675  0.12717322  0.13333456
   0.98269278  0.12722247  0.13332556
   0.22974093  0.29017760  0.13333006
   0.06537964  0.29114225  0.13333150
   0.81522664  0.45783088  0.13333850
   0.48497980  0.45717095  0.13360075
   0.40135465  0.29126894  0.13334101
   0.64667809  0.45026991  0.13341583
   0.64787694  0.12733347  0.13336869
   0.48257927  0.12778977  0.13332853
   0.72909806  0.29018258  0.13324420
   0.56515744  0.29205006  0.13321212
   0.31591169  0.45700578  0.13341008
   0.73347729  0.95520284  0.13339537
   0.65153327  0.78765470  0.13343393
   0.89642075  0.95558843  0.13334400
   0.89932185  0.62792396  0.13334991
   0.74037096  0.63211996  0.13275589
   0.97950747  0.79025245  0.13336851
   0.81525153  0.79186357  0.13323798
   0.56637416  0.95780200  0.13335816
   0.23424193  0.95580039  0.13328462
   0.15141938  0.79013567  0.13332600
   0.39677466  0.95509751  0.13322438
   0.39415430  0.62876761  0.13191589
   0.23326377  0.62779449  0.13325372
   0.47780303  0.79233398  0.13225209
   0.31556357  0.79119492  0.13364416
   0.06539872  0.95795709  0.13332716
   0.51710176  0.65070055  0.14538750
   0.62578653  0.59046470  0.14021755
slab_Cel1-OPT                           
           1
    14.384460    0.000000    0.000000
     0.000000   12.374599    0.000000
     0.000000    0.000000   15.000000
   C    N    Fe   Co
    24    32     1     1
Direct configuration=     6
   0.06555707  0.40408263  0.13332574
   0.98104103  0.23448007  0.13332369
   0.22542425  0.39747000  0.13337005
   0.82164674  0.57401313  0.13304758
   0.14985596  0.23455421  0.13332571
   0.90599964  0.39736206  0.13335845
   0.56348209  0.39903840  0.13320978
   0.48054182  0.23379228  0.13329231
   0.72928359  0.39621655  0.13328642
   0.31256799  0.57380747  0.13300298
   0.65110165  0.23410024  0.13329764
   0.40289946  0.39777784  0.13342922
   0.81623982  0.90494522  0.13337069
   0.73520486  0.74021786  0.13301101
   0.97648036  0.89825005  0.13332783
   0.06547036  0.07693516  0.13333266
   0.90145544  0.73418266  0.13329844
   0.65435641  0.90040232  0.13335847
   0.31550289  0.90613473  0.13343639
   0.22945833  0.73375865  0.13337937
   0.47721725  0.90205396  0.13313068
   0.56602000  0.07726742  0.13338079
   0.39415925  0.73899102  0.13377707
   0.15549919  0.89804501  0.13334790
   0.98394651  0.45587105  0.13332450
   0.90120811  0.29027355  0.13333297
   0.14708676  0.45586049  0.13333248
   0.14789041  0.12726954  0.13333899
   0.98285685  0.12729562  0.13332238
   0.22959300  0.29013508  0.13332879
   0.06540467  0.29123227  0.13333206
   0.81605069  0.45746159  0.13332265
   0.48505406  0.45724345  0.13376482
   0.40150106  0.29132696  0.13332053
   0.64655128  0.44961770  0.13354078
   0.64772270  0.12742205  0.13338938
   0.48278092  0.12766827  0.13333845
   0.72936302  0.28968437  0.13321709
   0.56481998  0.29102411  0.13314141
   0.31560661  0.45668808  0.13343742
   0.73330356  0.95513582  0.13339523
   0.65184583  0.78766242  0.13351858
   0.89649184  0.95562388  0.13336013
   0.90062201  0.62769848  0.13336793
   0.74067663  0.63152650  0.13280157
   0.97936821  0.79034046  0.13338630
   0.81607426  0.79274734  0.13317059
   0.56644698  0.95820284  0.13337223
   0.23428389  0.95586558  0.13326480
   0.15143697  0.79016955  0.13331312
   0.39705280  0.95550550  0.13315207
   0.39357943  0.62987472  0.13147201
   0.23301148  0.62742346  0.13323872
   0.47694323  0.79190413  0.13202195
   0.31456301  0.79201251  0.13380466
   0.06538039  0.95804306  0.13332409
   0.51596107  0.64923972  0.14617176
   0.62727907  0.59076252  0.13998868
slab_Cel1-OPT                           
           1
    14.385100    0.000000    0.000000
     0.000000   12.355193    0.000000
     0.000000    0.000000   15.000000
   C    N    Fe   Co
    24    32     1     1
Direct configuration=     7
   0.06557186  0.40421765  0.13332107
   0.98114868  0.23427526  0.13332062
   0.22491517  0.39694115  0.13339312
   0.82176894  0.57457150  0.13289716
   0.14968011  0.23434700  0.13332335
   0.90646688  0.39679864  0.13337474
   0.56302706  0.39794055  0.13316394
   0.48025202  0.23378166  0.13325433
   0.72954070  0.39561572  0.13327257
   0.31142687  0.57321485  0.13277352
   0.65145565  0.23378162  0.13327291
   0.40275949  0.39828673  0.13352089
   0.81624899  0.90565403  0.13337789
   0.73677697  0.74174684  0.13281382
   0.97623987  0.89844949  0.13332909
   0.06535884  0.07683721  0.13333382
   0.90224402  0.73481104  0.13328797
   0.65422287  0.89991775  0.13340200
   0.31497222  0.90690432  0.13350514
   0.22879845  0.73372199  0.13342078
   0.47706028  0.90288302  0.13301228
   0.56612288  0.07784462  0.13340932
   0.39233287  0.74035869  0.13379114
   0.15563528  0.89799264  0.13336451
   0.98413430  0.45574899  0.13331897
   0.90149851  0.29020135  0.13333674
   0.14711528  0.45574193  0.13333827
   0.14763917  0.12744718  0.13334714
   0.98315919  0.12743054  0.13331651
   0.22932040  0.29005665  0.13332645
   0.06545079  0.29139830  0.13333309
   0.81756918  0.45678051  0.13329344
   0.48519092  0.45737716  0.13406716
   0.40177084  0.29143396  0.13328279
   0.64631761  0.44841482  0.13377103
   0.64743848  0.12758543  0.13342750
   0.48315251  0.12744417  0.13335674
   0.72985128  0.28876550  0.13316713
   0.56419812  0.28913193  0.13301109
   0.31504444  0.45610214  0.13348781
   0.73298343  0.95501222  0.13339497
   0.65242179  0.78767666  0.13367458
   0.89662284  0.95568925  0.13338987
   0.90301784  0.62728262  0.13340113
   0.74123990  0.63043197  0.13288575
   0.97911158  0.79050276  0.13341907
   0.81759030  0.79437730  0.13304642
   0.56658117  0.95894213  0.13339816
   0.23436122  0.95598583  0.13322827
   0.15146940  0.79023204  0.13328939
   0.39756533  0.95625796  0.13301882
   0.39252011  0.63191658  0.13065405
   0.23254658  0.62673915  0.13321106
   0.47535887  0.79111134  0.13159788
   0.31271928  0.79352041  0.13410043
   0.06534663  0.95820162  0.13331843
   0.51385909  0.64654548  0.14761695
   0.63002939  0.59131178  0.13956692
slab_Cel1-OPT                           
           1
    14.392793    0.000000    0.000000
     0.000000   12.341488    0.000000
     0.000000    0.000000   15.000000
   C    N    Fe   Co
    24    32     1     1
Direct configuration=     8
   0.06561260  0.40426226  0.13331929
   0.98128350  0.23429993  0.13332090
   0.22473582  0.39676484  0.13340504
   0.82228997  0.57487297  0.13281747
   0.14955103  0.23437319  0.13332377
   0.90673648  0.39673592  0.13337825
   0.56299148  0.39762679  0.13318368
   0.48002621  0.23346023  0.13323237
   0.72981232  0.39526531  0.13329150
   0.31129128  0.57321943  0.13263779
   0.65137987  0.23342492  0.13325113
   0.40264708  0.39850776  0.13358122
   0.81640130  0.90637321  0.13338046
   0.73731749  0.74169761  0.13270198
   0.97625907  0.89858193  0.13333348
   0.06536947  0.07673176  0.13333312
   0.90260375  0.73484747  0.13327753
   0.65411225  0.89976558  0.13342924
   0.31481227  0.90739788  0.13354655
   0.22844493  0.73362476  0.13345350
   0.47697380  0.90267220  0.13296605
   0.56603930  0.07801782  0.13342350
   0.39120422  0.74121310  0.13372665
   0.15547264  0.89803034  0.13337637
   0.98431765  0.45569903  0.13331610
   0.90166017  0.28983728  0.13334077
   0.14703158  0.45576692  0.13334385
   0.14756609  0.12735475  0.13335402
   0.98318472  0.12738572  0.13331228
   0.22920156  0.28973113  0.13332869
   0.06543777  0.29139721  0.13333251
   0.81796641  0.45657399  0.13327743
   0.48528155  0.45771158  0.13431881
   0.40180125  0.29152168  0.13325513
   0.64617042  0.44855043  0.13398477
   0.64765471  0.12756325  0.13345491
   0.48309908  0.12730056  0.13336908
   0.73021845  0.28839372  0.13310939
   0.56419300  0.28868700  0.13291414
   0.31479543  0.45599881  0.13350365
   0.73286312  0.95505392  0.13340076
   0.65288695  0.78751755  0.13377789
   0.89666641  0.95611403  0.13341131
   0.90357995  0.62711212  0.13339876
   0.74269396  0.63064836  0.13296170
   0.97953537  0.79098596  0.13344740
   0.81811192  0.79445942  0.13294886
   0.56653754  0.95899287  0.13340037
   0.23423227  0.95644957  0.13320040
   0.15113283  0.79036736  0.13326721
   0.39755123  0.95672247  0.13292548
   0.39170597  0.63238348  0.13014121
   0.23202209  0.62663091  0.13319857
   0.47499251  0.79091793  0.13144742
   0.31202937  0.79409220  0.13428529
   0.06536468  0.95822087  0.13331470
   0.51241246  0.64431162  0.14848558
   0.63095615  0.59147070  0.13911074
slab_Cel1-OPT                           
           1
    14.413320    0.000000    0.000000
     0.000000   12.304918    0.000000
     0.000000    0.000000   15.000000
   C    N    Fe   Co
    24    32     1     1
Direct configuration=     9
   0.06572127  0.40438142  0.13331453
   0.98164304  0.23436583  0.13332162
   0.22425751  0.39629387  0.13343685
   0.82367953  0.57567829  0.13260480
   0.14920680  0.23444317  0.13332488
   0.90745550  0.39656837  0.13338764
   0.56289660  0.39678864  0.13323638
   0.47942398  0.23260159  0.13317377
   0.73053670  0.39432924  0.13334202
   0.31092965  0.57323167  0.13227560
   0.65117775  0.23247206  0.13319303
   0.40234728  0.39909821  0.13374223
   0.81680750  0.90829439  0.13338732
   0.73875901  0.74156612  0.13240354
   0.97631027  0.89893571  0.13334519
   0.06539782  0.07645006  0.13333125
   0.90356313  0.73494478  0.13324966
   0.65381724  0.89935908  0.13350194
   0.31438570  0.90871635  0.13365702
   0.22750208  0.73336504  0.13354081
   0.47674317  0.90210900  0.13284272
   0.56581640  0.07848049  0.13346133
   0.38819419  0.74349552  0.13355457
   0.15503890  0.89813106  0.13340802
   0.98480665  0.45556560  0.13330844
   0.90209130  0.28886473  0.13335151
   0.14680835  0.45583368  0.13335874
   0.14737119  0.12710783  0.13337238
   0.98325280  0.12726600  0.13330098
   0.22888462  0.28886158  0.13333468
   0.06540304  0.29139429  0.13333094
   0.81902580  0.45602230  0.13323470
   0.48552326  0.45860493  0.13499033
   0.40188235  0.29175601  0.13318129
   0.64577786  0.44891270  0.13455511
   0.64823140  0.12750401  0.13352805
   0.48295660  0.12691695  0.13340202
   0.73119766  0.28740057  0.13295534
   0.56417932  0.28749847  0.13265543
   0.31413134  0.45572277  0.13354592
   0.73254225  0.95516534  0.13341621
   0.65412749  0.78709251  0.13405355
   0.89678262  0.95724876  0.13346852
   0.90507909  0.62665666  0.13339243
   0.74657185  0.63122640  0.13316436
   0.98066558  0.79227676  0.13352299
   0.81950304  0.79467880  0.13268853
   0.56642120  0.95912840  0.13340624
   0.23388834  0.95768838  0.13312604
   0.15023522  0.79072885  0.13320801
   0.39751361  0.95796334  0.13267641
   0.38953471  0.63363072  0.12877276
   0.23062331  0.62634175  0.13316523
   0.47401544  0.79040127  0.13104596
   0.31018941  0.79561963  0.13477858
   0.06541282  0.95827227  0.13330472
   0.50855438  0.63834422  0.15080342
   0.63342780  0.59189521  0.13789347
slab_Cel1-OPT                           
           1
    14.419122    0.000000    0.000000
     0.000000   12.289879    0.000000
     0.000000    0.000000   15.000000
   C    N    Fe   Co
    24    32     1     1
Direct configuration=    10
   0.06584617  0.40430993  0.13331369
   0.98196432  0.23424711  0.13332682
   0.22422907  0.39626607  0.13344423
   0.82579594  0.57477885  0.13254592
   0.14892528  0.23425467  0.13332978
   0.90764191  0.39644891  0.13337617
   0.56318771  0.39731716  0.13338530
   0.47903232  0.23244985  0.13315518
   0.73077622  0.39424110  0.13342770
   0.31020267  0.57344711  0.13207211
   0.65127104  0.23258359  0.13314607
   0.40225176  0.39918148  0.13383601
   0.81679262  0.90886559  0.13335995
   0.73935706  0.74117077  0.13233935
   0.97651986  0.89982487  0.13335957
   0.06541402  0.07640387  0.13332771
   0.90429411  0.73496441  0.13322214
   0.65383843  0.89935540  0.13352644
   0.31402880  0.90982100  0.13371627
   0.22664997  0.73361120  0.13360848
   0.47650772  0.90169797  0.13284118
   0.56574029  0.07803531  0.13348205
   0.38809818  0.74379997  0.13327574
   0.15463556  0.89860082  0.13342386
   0.98498171  0.45563846  0.13330608
   0.90219150  0.28861969  0.13336238
   0.14678344  0.45592452  0.13336653
   0.14729821  0.12684758  0.13338822
   0.98330964  0.12691589  0.13329138
   0.22888915  0.28845045  0.13335134
   0.06544953  0.29132617  0.13332643
   0.81894402  0.45616065  0.13321398
   0.48558460  0.45945130  0.13553676
   0.40182550  0.29189515  0.13311468
   0.64622752  0.44959576  0.13497426
   0.64851678  0.12668648  0.13356630
   0.48265895  0.12641039  0.13342379
   0.73127216  0.28705702  0.13282997
   0.56453543  0.28796601  0.13247734
   0.31401853  0.45609277  0.13352638
   0.73267339  0.95535803  0.13344223
   0.65488202  0.78604182  0.13422159
   0.89707845  0.95841882  0.13352156
   0.90541332  0.62704705  0.13332894
   0.74744472  0.63230858  0.13338573
   0.98130076  0.79235346  0.13358806
   0.81987111  0.79442198  0.13249324
   0.56609914  0.95843486  0.13339156
   0.23343539  0.95863297  0.13306580
   0.14957020  0.79080643  0.13315155
   0.39731587  0.95815271  0.13250905
   0.38848072  0.63369948  0.12804230
   0.23016345  0.62628231  0.13313199
   0.47363480  0.78956048  0.13110548
   0.30944458  0.79606391  0.13507950
   0.06541198  0.95833398  0.13330213
   0.50708958  0.63467933  0.15193116
   0.63342555  0.59238009  0.13674058
slab_Cel1-OPT                           
           1
    14.425502    0.000000    0.000000
     0.000000   12.273346    0.000000
     0.000000    0.000000   15.000000
   C    N    Fe   Co
    24    32     1     1
Direct configuration=    11
   0.06598342  0.40423125  0.13331276
   0.98231740  0.23411644  0.13333254
   0.22419782  0.39623547  0.13345235
   0.82812175  0.57378882  0.13248119
   0.14861591  0.23404718  0.13333517
   0.90784675  0.39631742  0.13336356
   0.56350763  0.39789892  0.13354902
   0.47860192  0.23228282  0.13313475
   0.73103944  0.39414408  0.13352190
   0.30940375  0.57368425  0.13184839
   0.65137357  0.23270637  0.13309445
   0.40214679  0.39927313  0.13393912
   0.81677626  0.90949432  0.13332986
   0.74001427  0.74073559  0.13226877
   0.97675019  0.90080360  0.13337539
   0.06543183  0.07635303  0.13332381
   0.90509742  0.73498602  0.13319188
   0.65386172  0.89935135  0.13355337
   0.31363660  0.91103693  0.13378140
   0.22571354  0.73388217  0.13368288
   0.47624897  0.90124553  0.13283948
   0.56565665  0.07754529  0.13350483
   0.38799267  0.74413510  0.13296919
   0.15419231  0.89911791  0.13344127
   0.98517408  0.45571865  0.13330348
   0.90230160  0.28834996  0.13337432
   0.14675607  0.45602450  0.13337510
   0.14721800  0.12656113  0.13340564
   0.98337211  0.12653051  0.13328082
   0.22889413  0.28799790  0.13336966
   0.06550062  0.29125119  0.13332147
   0.81885416  0.45631294  0.13319120
   0.48565201  0.46038292  0.13613751
   0.40176303  0.29204830  0.13304145
   0.64672167  0.45034763  0.13543508
   0.64883038  0.12578661  0.13360835
   0.48233185  0.12585279  0.13344771
   0.73135403  0.28667887  0.13269215
   0.56492678  0.28848065  0.13228156
   0.31389456  0.45650004  0.13350490
   0.73281751  0.95557014  0.13347084
   0.65571120  0.78488529  0.13440633
   0.89740356  0.95970673  0.13357987
   0.90578063  0.62747677  0.13325914
   0.74840396  0.63349977  0.13362910
   0.98199878  0.79243789  0.13365960
   0.82027559  0.79413929  0.13227854
   0.56574521  0.95767147  0.13337543
   0.23293763  0.95967272  0.13299957
   0.14883937  0.79089184  0.13308948
   0.39709856  0.95836114  0.13232506
   0.38732245  0.63377517  0.12723924
   0.22965808  0.62621688  0.13309544
   0.47321649  0.78863499  0.13117092
   0.30862605  0.79655293  0.13541032
   0.06541106  0.95840192  0.13329928
   0.50547985  0.63064529  0.15317098
   0.63342308  0.59291382  0.13547312
slab_Cel1-OPT                           
           1
    14.411301    0.000000    0.000000
     0.000000   12.253729    0.000000
     0.000000    0.000000   15.000000
   C    N    Fe   Co
    24    32     1     1
Direct configuration=    12
   0.06611192  0.40422346  0.13331279
   0.98239998  0.23366711  0.13334139
   0.22438139  0.39617687  0.13345280
   0.82840871  0.57344613  0.13253205
   0.14863591  0.23364116  0.13334650
   0.90783266  0.39604971  0.13333603
   0.56409009  0.39958179  0.13388486
   0.47867105  0.23236894  0.13310732
   0.73090438  0.39470874  0.13368699
   0.30812525  0.57402904  0.13157042
   0.65148563  0.23244976  0.13300779
   0.40221480  0.39976092  0.13406514
   0.81718137  0.90936713  0.13325072
   0.74105348  0.74091058  0.13235979
   0.97696342  0.90156689  0.13340929
   0.06545528  0.07616624  0.13331799
   0.90583057  0.73580185  0.13312887
   0.65429323  0.89859089  0.13356701
   0.31299094  0.91186062  0.13384753
   0.22504628  0.73439455  0.13377743
   0.47575591  0.90057062  0.13290675
   0.56559649  0.07664972  0.13353113
   0.38796105  0.74356203  0.13239556
   0.15375021  0.89978457  0.13344343
   0.98517042  0.45580420  0.13329922
   0.90247997  0.28835540  0.13339344
   0.14688807  0.45602354  0.13338268
   0.14715796  0.12645398  0.13343543
   0.98349392  0.12639325  0.13326069
   0.22893124  0.28794727  0.13340165
   0.06560136  0.29110078  0.13331147
   0.81918368  0.45630422  0.13316188
   0.48575433  0.46125068  0.13701138
   0.40167170  0.29213905  0.13292069
   0.64781160  0.45121772  0.13592184
   0.64867404  0.12516308  0.13363356
   0.48214419  0.12549303  0.13349317
   0.73121447  0.28672644  0.13253114
   0.56510592  0.28928007  0.13206138
   0.31382683  0.45699167  0.13343338
   0.73289649  0.95576241  0.13352247
   0.65598991  0.78422401  0.13458452
   0.89744402  0.96083034  0.13366696
   0.90703345  0.62783937  0.13312695
   0.74917722  0.63207987  0.13408616
   0.98243975  0.79270454  0.13376672
   0.82087105  0.79470518  0.13196050
   0.56533737  0.95635224  0.13335681
   0.23217296  0.96075297  0.13291448
   0.14795891  0.79131232  0.13299419
   0.39693437  0.95809519  0.13208374
   0.38661343  0.63327832  0.12634789
   0.22889425  0.62655934  0.13306980
   0.47323084  0.78758696  0.13154847
   0.30857759  0.79663694  0.13581321
   0.06536178  0.95882258  0.13330007
   0.50441109  0.62656869  0.15454871
   0.63262856  0.59360660  0.13340577
slab_Cel1-OPT                           
           1
    14.386874    0.000000    0.000000
     0.000000   12.219988    0.000000
     0.000000    0.000000   15.000000
   C    N    Fe   Co
    24    32     1     1
Direct configuration=    13
   0.06633317  0.40421005  0.13331283
   0.98254216  0.23289301  0.13335661
   0.22469744  0.39607591  0.13345358
   0.82890279  0.57285575  0.13261952
   0.14867036  0.23294167  0.13336598
   0.90780839  0.39558848  0.13328866
   0.56509295  0.40248105  0.13446252
   0.47879007  0.23251732  0.13306013
   0.73067185  0.39568154  0.13397095
   0.30592399  0.57462304  0.13109229