<?xml version="1.0" encoding="ISO-8859-1"?>
<modeling>
 <generator>
  <i name="program" type="string">vasp </i>
  <i name="version" type="string">6.3.2  </i>
  <i name="subversion" type="string">27Jun22 (build May 04 2024 18:40:40) complex                          parallel </i>
  <i name="platform" type="string">LinuxIFC </i>
  <i name="date" type="string">2024 09 02 </i>
  <i name="time" type="string">22:13:53 </i>
 </generator>
 <incar>
  <i type="string" name="SYSTEM">slab_Cel1-OPT</i>
  <i type="int" name="ISTART">     0</i>
  <i type="string" name="PREC">N</i>
  <i type="string" name="ALGO">N</i>
  <i type="int" name="ICHARG">     2</i>
  <i type="int" name="NELM">   200</i>
  <i type="int" name="IBRION">     2</i>
  <i name="EDIFF">      0.00001000</i>
  <i name="EDIFFG">     -0.05000000</i>
  <i type="int" name="NSW">  1000</i>
  <i type="int" name="ISIF">     3</i>
  <i name="ENCUT">    400.00000000</i>
  <i name="POTIM">      0.10000000</i>
  <i type="string" name="LREAL">AUTO</i>
  <i type="int" name="ISMEAR">     0</i>
  <i name="SIGMA">      0.10000000</i>
  <i type="logical" name="LWAVE"> F  </i>
  <i type="logical" name="LCHARG"> F  </i>
  <i type="logical" name="LELF"> F  </i>
  <i type="logical" name="LAECHG"> F  </i>
  <i type="logical" name="LDIPOL"> T  </i>
  <i type="int" name="IDIPOL">     3</i>
 </incar>
 <primitive_cell>
  <structure name="primitive_cell" >
   <crystal>
    <varray name="basis" >
     <v>      14.20606433       0.00000000       0.00000000 </v>
     <v>       0.00000000      12.30194432       0.00000000 </v>
     <v>       0.00000000       0.00000000      15.00000000 </v>
    </varray>
    <i name="volume">   2621.43318603 </i>
    <varray name="rec_basis" >
     <v>       0.07039247       0.00000000       0.00000000 </v>
     <v>       0.00000000       0.08128796       0.00000000 </v>
     <v>       0.00000000       0.00000000       0.06666667 </v>
    </varray>
   </crystal>
   <varray name="positions" >
    <v>       0.06552924       0.40428224       0.13332883 </v>
    <v>       0.98073506       0.23448653       0.13331251 </v>
    <v>       0.22596849       0.39800742       0.13332693 </v>
    <v>       0.81567713       0.57598150       0.13353271 </v>
    <v>       0.15032739       0.23448907       0.13330756 </v>
    <v>       0.90510567       0.39801215       0.13332888 </v>
    <v>       0.56563600       0.40060460       0.13329290 </v>
    <v>       0.48003275       0.23339915       0.13319118 </v>
    <v>       0.72699959       0.39816605       0.13349143 </v>
    <v>       0.31530345       0.57604443       0.13352705 </v>
    <v>       0.65113845       0.23332886       0.13318734 </v>
    <v>       0.40417946       0.39830929       0.13352891 </v>
    <v>       0.81593183       0.90524123       0.13322179 </v>
    <v>       0.73312683       0.73613388       0.13336762 </v>
    <v>       0.97653404       0.89849251       0.13330997 </v>
    <v>       0.90130094       0.73428418       0.13317397 </v>
    <v>       0.65436077       0.89869394       0.13351908 </v>
    <v>       0.31496386       0.90544683       0.13320054 </v>
    <v>       0.22958188       0.73436464       0.13316012 </v>
    <v>       0.47652118       0.89889576       0.13350049 </v>
    <v>       0.39765408       0.73641312       0.13329011 </v>
    <v>       0.15435104       0.89855068       0.13332563 </v>
    <v>       0.06547629       0.07689847       0.13331367 </v>
    <v>       0.56552517       0.07636274       0.13331407 </v>
    <v>       0.98386097       0.45673230       0.13331657 </v>
    <v>       0.90051323       0.29005212       0.13328011 </v>
    <v>       0.14721891       0.45673085       0.13330434 </v>
    <v>       0.14879978       0.12682943       0.13328696 </v>
    <v>       0.98217053       0.12681964       0.13329527 </v>
    <v>       0.23059373       0.29004466       0.13328360 </v>
    <v>       0.06553126       0.29123103       0.13334958 </v>
    <v>       0.81521451       0.45792350       0.13337048 </v>
    <v>       0.48537906       0.45596222       0.13372761 </v>
    <v>       0.40076577       0.29045513       0.13359709 </v>
    <v>       0.64589040       0.45583435       0.13368861 </v>
    <v>       0.64915874       0.12611856       0.13341956 </v>
    <v>       0.48192703       0.12618043       0.13340833 </v>
    <v>       0.73044688       0.29029081       0.13357859 </v>
    <v>       0.56559013       0.28963346       0.13259239 </v>
    <v>       0.31590167       0.45800614       0.13338786 </v>
    <v>       0.73355117       0.95613998       0.13361729 </v>
    <v>       0.65156945       0.78886389       0.13372214 </v>
    <v>       0.89721800       0.95709144       0.13344107 </v>
    <v>       0.89834841       0.62653391       0.13351279 </v>
    <v>       0.73194305       0.62829732       0.13384847 </v>
    <v>       0.98071775       0.78992791       0.13338564 </v>
    <v>       0.81644402       0.79170529       0.13265331 </v>
    <v>       0.56546383       0.95729815       0.13335126 </v>
    <v>       0.23365512       0.95719332       0.13346882 </v>
    <v>       0.15016184       0.78998079       0.13343866 </v>
    <v>       0.39733392       0.95635363       0.13363927 </v>
    <v>       0.39900206       0.62855329       0.13381154 </v>
    <v>       0.23263864       0.62660872       0.13355684 </v>
    <v>       0.47919533       0.78908611       0.13366660 </v>
    <v>       0.31441659       0.79189183       0.13253209 </v>
    <v>       0.06544380       0.95787743       0.13331123 </v>
    <v>       0.56413024       0.62436563       0.13731276 </v>
   </varray>
  </structure>
  <varray name="primitive_index" >
   <v type="int" >        1 </v>
   <v type="int" >        2 </v>
   <v type="int" >        3 </v>
   <v type="int" >        4 </v>
   <v type="int" >        5 </v>
   <v type="int" >        6 </v>
   <v type="int" >        7 </v>
   <v type="int" >        8 </v>
   <v type="int" >        9 </v>
   <v type="int" >       10 </v>
   <v type="int" >       11 </v>
   <v type="int" >       12 </v>
   <v type="int" >       13 </v>
   <v type="int" >       14 </v>
   <v type="int" >       15 </v>
   <v type="int" >       16 </v>
   <v type="int" >       17 </v>
   <v type="int" >       18 </v>
   <v type="int" >       19 </v>
   <v type="int" >       20 </v>
   <v type="int" >       21 </v>
   <v type="int" >       22 </v>
   <v type="int" >       23 </v>
   <v type="int" >       24 </v>
   <v type="int" >       25 </v>
   <v type="int" >       26 </v>
   <v type="int" >       27 </v>
   <v type="int" >       28 </v>
   <v type="int" >       29 </v>
   <v type="int" >       30 </v>
   <v type="int" >       31 </v>
   <v type="int" >       32 </v>
   <v type="int" >       33 </v>
   <v type="int" >       34 </v>
   <v type="int" >       35 </v>
   <v type="int" >       36 </v>
   <v type="int" >       37 </v>
   <v type="int" >       38 </v>
   <v type="int" >       39 </v>
   <v type="int" >       40 </v>
   <v type="int" >       41 </v>
   <v type="int" >       42 </v>
   <v type="int" >       43 </v>
   <v type="int" >       44 </v>
   <v type="int" >       45 </v>
   <v type="int" >       46 </v>
   <v type="int" >       47 </v>
   <v type="int" >       48 </v>
   <v type="int" >       49 </v>
   <v type="int" >       50 </v>
   <v type="int" >       51 </v>
   <v type="int" >       52 </v>
   <v type="int" >       53 </v>
   <v type="int" >       54 </v>
   <v type="int" >       55 </v>
   <v type="int" >       56 </v>
   <v type="int" >       57 </v>
  </varray>
 </primitive_cell>
 <kpoints>
  <generation param="Gamma">
   <v type="int" name="divisions">       2        2        1 </v>
   <v name="usershift">      0.00000000       0.00000000       0.00000000 </v>
   <v name="genvec1">      0.50000000       0.00000000       0.00000000 </v>
   <v name="genvec2">      0.00000000       0.50000000       0.00000000 </v>
   <v name="genvec3">      0.00000000       0.00000000       1.00000000 </v>
   <v name="shift">      0.00000000       0.00000000       0.00000000 </v>
  </generation>
  <varray name="kpointlist" >
   <v>       0.00000000       0.00000000       0.00000000 </v>
   <v>       0.50000000       0.00000000       0.00000000 </v>
   <v>       0.00000000       0.50000000       0.00000000 </v>
   <v>       0.50000000       0.50000000       0.00000000 </v>
  </varray>
  <varray name="weights" >
   <v>       0.25000000 </v>
   <v>       0.25000000 </v>
   <v>       0.25000000 </v>
   <v>       0.25000000 </v>
  </varray>
 </kpoints>
 <parameters>
  <separator name="general" >
   <i type="string" name="SYSTEM">slab_Cel1-OPT</i>
   <i type="logical" name="LCOMPAT"> F  </i>
  </separator>
  <separator name="electronic" >
   <i type="string" name="PREC">n</i>
   <i name="ENMAX">    400.00000000</i>
   <i name="ENAUG">    644.87300000</i>
   <i name="EDIFF">      0.00001000</i>
   <i type="int" name="IALGO">    38</i>
   <i type="int" name="IWAVPR">    11</i>
   <i type="int" name="NBANDS">   164</i>
   <i type="int" name="NBANDSLOW">    -1</i>
   <i type="int" name="NBANDSHIGH">    -1</i>
   <i name="NELECT">    267.00000000</i>
   <i type="int" name="TURBO">     0</i>
   <i type="int" name="IRESTART">     0</i>
   <i type="int" name="NREBOOT">     0</i>
   <i type="int" name="NMIN">     0</i>
   <i name="EREF">      0.00000000</i>
   <separator name="electronic smearing" >
    <i type="int" name="ISMEAR">     0</i>
    <i name="SIGMA">      0.10000000</i>
    <i name="KSPACING">      0.50000000</i>
    <i type="logical" name="KGAMMA"> T  </i>
    <i type="logical" name="KBLOWUP"> T  </i>
   </separator>
   <separator name="electronic projectors" >
    <i type="logical" name="LREAL"> T  </i>
    <v name="ROPT">     -0.00050000     -0.00050000     -0.00050000</v>
    <i type="int" name="LMAXPAW">  -100</i>
    <i type="int" name="LMAXMIX">     2</i>
    <i type="logical" name="NLSPLINE"> F  </i>
   </separator>
   <separator name="electronic startup" >
    <i type="int" name="ISTART">     0</i>
    <i type="int" name="ICHARG">     2</i>
    <i type="int" name="INIWAV">     1</i>
   </separator>
   <separator name="electronic spin" >
    <i type="int" name="ISPIN">     1</i>
    <i type="logical" name="LNONCOLLINEAR"> F  </i>
    <v name="MAGMOM">      1.00000000      1.00000000      1.00000000      1.00000000      1.00000000      1.00000000      1.00000000      1.00000000      1.00000000      1.00000000      1.00000000      1.00000000      1.00000000      1.00000000      1.00000000      1.00000000      1.00000000      1.00000000      1.00000000      1.00000000
      1.00000000      1.00000000      1.00000000      1.00000000      1.00000000      1.00000000      1.00000000      1.00000000      1.00000000      1.00000000      1.00000000      1.00000000      1.00000000      1.00000000      1.00000000      1.00000000      1.00000000      1.00000000      1.00000000      1.00000000
      1.00000000      1.00000000      1.00000000      1.00000000      1.00000000      1.00000000      1.00000000      1.00000000      1.00000000      1.00000000      1.00000000      1.00000000      1.00000000      1.00000000      1.00000000      1.00000000      1.00000000</v>
    <i name="NUPDOWN">     -1.00000000</i>
    <i type="logical" name="LSORBIT"> F  </i>
    <v name="SAXIS">      0.00000000      0.00000000      1.00000000</v>
    <i type="logical" name="LSPIRAL"> F  </i>
    <v name="QSPIRAL">      0.00000000      0.00000000      0.00000000</v>
    <i type="logical" name="LZEROZ"> F  </i>
   </separator>
   <separator name="electronic exchange-correlation" >
    <i type="logical" name="LASPH"> F  </i>
    <i type="logical" name="LMETAGGA"> F  </i>
   </separator>
   <separator name="electronic convergence" >
    <i type="int" name="NELM">   200</i>
    <i type="int" name="NELMDL">    -5</i>
    <i type="int" name="NELMIN">     2</i>
    <i name="ENINI">    400.00000000</i>
    <separator name="electronic convergence detail" >
     <i type="logical" name="LDIAG"> T  </i>
     <i type="logical" name="LSUBROT"> F  </i>
     <i name="WEIMIN">      0.00100000</i>
     <i name="EBREAK">      0.00000002</i>
     <i name="DEPER">      0.30000000</i>
     <i type="int" name="NRMM">     4</i>
     <i name="TIME">      0.40000000</i>
    </separator>
   </separator>
   <separator name="electronic mixer" >
    <i name="AMIX">      0.40000000</i>
    <i name="BMIX">      1.00000000</i>
    <i name="AMIN">      0.10000000</i>
    <i name="AMIX_MAG">      1.60000000</i>
    <i name="BMIX_MAG">      1.00000000</i>
    <separator name="electronic mixer details" >
     <i type="int" name="IMIX">     4</i>
     <i type="logical" name="MIXFIRST"> F  </i>
     <i type="int" name="MAXMIX">   -45</i>
     <i name="WC">    100.00000000</i>
     <i type="int" name="INIMIX">     1</i>
     <i type="int" name="MIXPRE">     1</i>
     <i type="int" name="MREMOVE">     5</i>
    </separator>
   </separator>
   <separator name="electronic dipolcorrection" >
    <i type="logical" name="LDIPOL"> T  </i>
    <i type="logical" name="LMONO"> F  </i>
    <i type="int" name="IDIPOL">     3</i>
    <i name="EPSILON">      1.00000000</i>
    <v name="DIPOL">   -100.00000000   -100.00000000   -100.00000000</v>
    <i name="EFIELD">      0.00000000</i>
   </separator>
  </separator>
  <separator name="grids" >
   <i type="int" name="NGX">    70</i>
   <i type="int" name="NGY">    60</i>
   <i type="int" name="NGZ">    80</i>
   <i type="int" name="NGXF">   140</i>
   <i type="int" name="NGYF">   120</i>
   <i type="int" name="NGZF">   160</i>
   <i type="logical" name="ADDGRID"> F  </i>
  </separator>
  <separator name="ionic" >
   <i type="int" name="NSW">  1000</i>
   <i type="int" name="IBRION">     2</i>
   <i type="int" name="MDALGO">     0</i>
   <i type="int" name="ISIF">     3</i>
   <i name="PSTRESS">      0.00000000</i>
   <i name="EDIFFG">     -0.05000000</i>
   <i type="int" name="NFREE">     1</i>
   <i name="POTIM">      0.10000000</i>
   <i name="SMASS">     -3.00000000</i>
   <i name="SCALEE">      1.00000000</i>
  </separator>
  <separator name="ionic md" >
   <i name="TEBEG">      0.00010000</i>
   <i name="TEEND">      0.00010000</i>
   <i type="int" name="NBLOCK">     1</i>
   <i type="int" name="KBLOCK">  1000</i>
   <i type="int" name="NPACO">   256</i>
   <i name="APACO">     10.00000000</i>
  </separator>
  <separator name="symmetry" >
   <i type="int" name="ISYM">     2</i>
   <i name="SYMPREC">      0.00001000</i>
  </separator>
  <separator name="dos" >
   <i type="int" name="LORBIT">     0</i>
   <v name="RWIGS">     -1.00000000     -1.00000000     -1.00000000</v>
   <i type="int" name="NEDOS">   301</i>
   <i name="EMIN">     10.00000000</i>
   <i name="EMAX">    -10.00000000</i>
   <i name="EFERMI">      0.00000000</i>
  </separator>
  <separator name="writing" >
   <i type="int" name="NWRITE">     2</i>
   <i type="logical" name="LWAVE"> F  </i>
   <i type="logical" name="LDOWNSAMPLE"> F  </i>
   <i type="logical" name="LCHARG"> F  </i>
   <i type="logical" name="LPARD"> F  </i>
   <i type="logical" name="LVTOT"> F  </i>
   <i type="logical" name="LVHAR"> F  </i>
   <i type="logical" name="LELF"> F  </i>
   <i type="logical" name="LOPTICS"> F  </i>
   <v name="STM">      0.00000000      0.00000000      0.00000000      0.00000000      0.00000000      0.00000000      0.00000000</v>
  </separator>
  <separator name="performance" >
   <i type="int" name="NPAR">     4</i>
   <i type="int" name="NSIM">     4</i>
   <i type="int" name="NBLK">    -1</i>
   <i type="logical" name="LPLANE"> T  </i>
   <i type="logical" name="LSCALAPACK"> T  </i>
   <i type="logical" name="LSCAAWARE"> F  </i>
   <i type="logical" name="LSCALU"> F  </i>
   <i type="logical" name="LASYNC"> F  </i>
   <i type="logical" name="LORBITALREAL"> F  </i>
  </separator>
  <separator name="miscellaneous" >
   <i type="int" name="IDIOT">     3</i>
   <i type="int" name="PHON_NSTRUCT">    -1</i>
   <i type="logical" name="LMUSIC"> F  </i>
   <v name="POMASS">     12.01100000     14.00100000    107.86800000</v>
   <v name="DARWINR">      0.00000000      0.00000000      0.00000000</v>
   <v name="DARWINV">      1.00000000      1.00000000      1.00000000</v>
   <i type="logical" name="LCORR"> T  </i>
  </separator>
  <i type="logical" name="GGA_COMPAT"> T  </i>
  <i type="logical" name="LBERRY"> F  </i>
  <i type="int" name="ICORELEVEL">     0</i>
  <i type="logical" name="LDAU"> F  </i>
  <i type="int" name="I_CONSTRAINED_M">     0</i>
  <separator name="electronic exchange-correlation" >
   <i type="string" name="GGA">--</i>
   <i type="int" name="VOSKOWN">     0</i>
   <i type="logical" name="LHFCALC"> F  </i>
   <i type="string" name="PRECFOCK"></i>
   <i type="logical" name="LSYMGRAD"> F  </i>
   <i type="logical" name="LHFONE"> F  </i>
   <i type="logical" name="LRHFCALC"> F  </i>
   <i type="logical" name="LTHOMAS"> F  </i>
   <i type="logical" name="LMODELHF"> F  </i>
   <i type="logical" name="LFOCKACE"> F  </i>
   <i name="ENCUT4O">     -1.00000000</i>
   <i type="int" name="EXXOEP">     0</i>
   <i type="int" name="FOURORBIT">     0</i>
   <i name="AEXX">      0.00000000</i>
   <i name="HFALPHA">      0.00000000</i>
   <i name="MCALPHA">      0.00000000</i>
   <i name="ALDAX">      1.00000000</i>
   <i name="AGGAX">      1.00000000</i>
   <i name="ALDAC">      1.00000000</i>
   <i name="AGGAC">      1.00000000</i>
   <i type="int" name="NKREDX">     1</i>
   <i type="int" name="NKREDY">     1</i>
   <i type="int" name="NKREDZ">     1</i>
   <i type="logical" name="SHIFTRED"> F  </i>
   <i type="logical" name="ODDONLY"> F  </i>
   <i type="logical" name="EVENONLY"> F  </i>
   <i type="int" name="LMAXFOCK">     0</i>
   <i type="int" name="NMAXFOCKAE">     0</i>
   <i type="logical" name="LFOCKAEDFT"> F  </i>
   <i name="HFSCREEN">      0.00000000</i>
   <i name="HFSCREENC">      0.00000000</i>
   <i type="int" name="NBANDSGWLOW">     0</i>
  </separator>
  <separator name="vdW DFT" >
   <i type="logical" name="LUSE_VDW"> F  </i>
   <i name="Zab_VDW">     -0.84910000</i>
   <i name="PARAM1">      0.12340000</i>
   <i name="PARAM2">      1.00000000</i>
   <i name="PARAM3">      0.00000000</i>
  </separator>
  <separator name="model GW" >
   <i type="int" name="MODEL_GW">     0</i>
   <i name="MODEL_EPS0">     27.59403354</i>
   <i name="MODEL_ALPHA">      1.00000000</i>
  </separator>
  <separator name="linear response parameters" >
   <i type="logical" name="LEPSILON"> F  </i>
   <i type="logical" name="LRPA"> F  </i>
   <i type="logical" name="LNABLA"> F  </i>
   <i type="logical" name="LVEL"> F  </i>
   <i name="CSHIFT">      0.10000000</i>
   <i name="OMEGAMAX">     -1.00000000</i>
   <i name="DEG_THRESHOLD">      0.00200000</i>
   <i name="RTIME">     -0.10000000</i>
   <i name="WPLASMAI">      0.00000000</i>
   <v name="DFIELD">      0.00000000      0.00000000      0.00000000</v>
   <v name="WPLASMA">      0.00000000      0.00000000      0.00000000      0.00000000      0.00000000      0.00000000      0.00000000      0.00000000      0.00000000</v>
  </separator>
  <separator name="orbital magnetization" >
   <i type="logical" name="NUCIND"> F  </i>
   <v name="MAGPOS">      0.00000000      0.00000000      0.00000000</v>
   <i type="logical" name="LNICSALL"> T  </i>
   <i type="logical" name="ORBITALMAG"> F  </i>
   <i type="logical" name="LMAGBLOCH"> F  </i>
   <i type="logical" name="LCHIMAG"> F  </i>
   <i type="logical" name="LGAUGE"> T  </i>
   <i type="int" name="MAGATOM">     0</i>
   <v name="MAGDIPOL">      0.00000000      0.00000000      0.00000000</v>
   <v name="AVECCONST">      0.00000000      0.00000000      0.00000000</v>
  </separator>
  <separator name="response functions" >
   <i type="logical" name="LFINITE_TEMPERATURE"> F  </i>
   <i type="logical" name="LADDER"> F  </i>
   <i type="logical" name="LRPAFORCE"> F  </i>
   <i type="logical" name="LFXC"> F  </i>
   <i type="logical" name="LHARTREE"> T  </i>
   <i type="int" name="IBSE">     0</i>
   <v type="int" name="KPOINT">    -1     0     0     0</v>
   <i type="logical" name="LTCTC"> F  </i>
   <i type="logical" name="LTCTE"> F  </i>
   <i type="logical" name="LTETE"> F  </i>
   <i type="logical" name="LTRIPLET"> F  </i>
   <i type="logical" name="LFXCEPS"> F  </i>
   <i type="logical" name="LFXHEG"> F  </i>
   <i type="int" name="NATURALO">     2</i>
   <i type="logical" name="LHOLEGF"> F  </i>
   <i type="logical" name="L2ORDER"> F  </i>
   <i type="logical" name="LDMP1"> F  </i>
   <i type="logical" name="LMP2LT"> F  </i>
   <i type="logical" name="LSMP2LT"> F  </i>
   <i type="logical" name="LGWLF"> F  </i>
   <i name="ENCUTGW">     -2.00000000</i>
   <i name="ENCUTGWSOFT">     -2.00000000</i>
   <i name="ENCUTLF">     -1.00000000</i>
   <i type="logical" name="LESF_SPLINES"> F  </i>
   <i type="int" name="LMAXMP2">    -1</i>
   <i name="SCISSOR">      0.00000000</i>
   <i type="int" name="NOMEGA">     0</i>
   <i type="int" name="NOMEGAR">     0</i>
   <i type="int" name="NBANDSGW">    -1</i>
   <i type="int" name="NBANDSO">    -1</i>
   <i type="int" name="NBANDSV">    -1</i>
   <i type="int" name="NELMGW">     1</i>
   <i type="int" name="NELMHF">     1</i>
   <i type="int" name="DIM">     3</i>
   <i type="int" name="IESPILON">     4</i>
   <i type="int" name="ANTIRES">     0</i>
   <i name="OMEGAMAX">    -30.00000000</i>
   <i name="OMEGAMIN">    -30.00000000</i>
   <i name="OMEGATL">   -200.00000000</i>
   <i type="int" name="OMEGAGRID">     0</i>
   <i name="CSHIFT">     -0.10000000</i>
   <i type="logical" name="LSELFENERGY"> F  </i>
   <i type="logical" name="LSPECTRAL"> F  </i>
   <i type="logical" name="LSPECTRALGW"> F  </i>
   <i type="logical" name="LSINGLES"> F  </i>
   <i type="logical" name="LFERMIGW"> F  </i>
   <i type="logical" name="ODDONLYGW"> F  </i>
   <i type="logical" name="EVENONLYGW"> F  </i>
   <i type="int" name="NKREDLFX">     1</i>
   <i type="int" name="NKREDLFY">     1</i>
   <i type="int" name="NKREDLFZ">     1</i>
   <i type="int" name="MAXMEM">  2800</i>
   <i type="int" name="TELESCOPE">     0</i>
   <i type="int" name="NTAUPAR">    -1</i>
   <i type="int" name="NOMEGAPAR">    -1</i>
   <i name="DAMP_NEWTON">      0.80000001</i>
   <i name="LAMBDA">      1.00000000</i>
  </separator>
  <separator name="External order field" >
   <i name="OFIELD_KAPPA">      0.00000000</i>
   <v name="OFIELD_K">      0.00000000      0.00000000      0.00000000</v>
   <i name="OFIELD_Q6_NEAR">      0.00000000</i>
   <i name="OFIELD_Q6_FAR">      0.00000000</i>
   <i name="OFIELD_A">      0.00000000</i>
  </separator>
  <separator name="optional k-points parameters" >
   <i type="int" name="KPOINTS_OPT_MODE">     1</i>
   <i type="logical" name="LKPOINTS_OPT"> F  </i>
  </separator>
  <separator name="solvation model" >
   <i type="logical" name="LSOL"> F  </i>
  </separator>
 </parameters>
 <atominfo>
  <atoms>      57 </atoms>
  <types>       3 </types>
  <array name="atoms" >
   <dimension dim="1">ion</dimension>
   <field type="string">element</field>
   <field type="int">atomtype</field>
   <set>
    <rc><c>C </c><c>   1</c></rc>
    <rc><c>C </c><c>   1</c></rc>
    <rc><c>C </c><c>   1</c></rc>
    <rc><c>C </c><c>   1</c></rc>
    <rc><c>C </c><c>   1</c></rc>
    <rc><c>C </c><c>   1</c></rc>
    <rc><c>C </c><c>   1</c></rc>
    <rc><c>C </c><c>   1</c></rc>
    <rc><c>C </c><c>   1</c></rc>
    <rc><c>C </c><c>   1</c></rc>
    <rc><c>C </c><c>   1</c></rc>
    <rc><c>C </c><c>   1</c></rc>
    <rc><c>C </c><c>   1</c></rc>
    <rc><c>C </c><c>   1</c></rc>
    <rc><c>C </c><c>   1</c></rc>
    <rc><c>C </c><c>   1</c></rc>
    <rc><c>C </c><c>   1</c></rc>
    <rc><c>C </c><c>   1</c></rc>
    <rc><c>C </c><c>   1</c></rc>
    <rc><c>C </c><c>   1</c></rc>
    <rc><c>C </c><c>   1</c></rc>
    <rc><c>C </c><c>   1</c></rc>
    <rc><c>C </c><c>   1</c></rc>
    <rc><c>C </c><c>   1</c></rc>
    <rc><c>N </c><c>   2</c></rc>
    <rc><c>N </c><c>   2</c></rc>
    <rc><c>N </c><c>   2</c></rc>
    <rc><c>N </c><c>   2</c></rc>
    <rc><c>N </c><c>   2</c></rc>
    <rc><c>N </c><c>   2</c></rc>
    <rc><c>N </c><c>   2</c></rc>
    <rc><c>N </c><c>   2</c></rc>
    <rc><c>N </c><c>   2</c></rc>
    <rc><c>N </c><c>   2</c></rc>
    <rc><c>N </c><c>   2</c></rc>
    <rc><c>N </c><c>   2</c></rc>
    <rc><c>N </c><c>   2</c></rc>
    <rc><c>N </c><c>   2</c></rc>
    <rc><c>N </c><c>   2</c></rc>
    <rc><c>N </c><c>   2</c></rc>
    <rc><c>N </c><c>   2</c></rc>
    <rc><c>N </c><c>   2</c></rc>
    <rc><c>N </c><c>   2</c></rc>
    <rc><c>N </c><c>   2</c></rc>
    <rc><c>N </c><c>   2</c></rc>
    <rc><c>N </c><c>   2</c></rc>
    <rc><c>N </c><c>   2</c></rc>
    <rc><c>N </c><c>   2</c></rc>
    <rc><c>N </c><c>   2</c></rc>
    <rc><c>N </c><c>   2</c></rc>
    <rc><c>N </c><c>   2</c></rc>
    <rc><c>N </c><c>   2</c></rc>
    <rc><c>N </c><c>   2</c></rc>
    <rc><c>N </c><c>   2</c></rc>
    <rc><c>N </c><c>   2</c></rc>
    <rc><c>N </c><c>   2</c></rc>
    <rc><c>Ag</c><c>   3</c></rc>
   </set>
  </array>
  <array name="atomtypes" >
   <dimension dim="1">type</dimension>
   <field type="int">atomspertype</field>
   <field type="string">element</field>
   <field>mass</field>
   <field>valence</field>
   <field type="string">pseudopotential</field>
   <set>
    <rc><c>  24</c><c>C </c><c>     12.01100000</c><c>      4.00000000</c><c>  PAW_PBE C 08Apr2002                   </c></rc>
    <rc><c>  32</c><c>N </c><c>     14.00100000</c><c>      5.00000000</c><c>  PAW_PBE N 08Apr2002                   </c></rc>
    <rc><c>   1</c><c>Ag</c><c>    107.86800000</c><c>     11.00000000</c><c>  PAW_PBE Ag 02Apr2005                  </c></rc>
   </set>
  </array>
 </atominfo>
 <structure name="initialpos" >
  <crystal>
   <varray name="basis" >
    <v>      14.20606433       0.00000000       0.00000000 </v>
    <v>       0.00000000      12.30194432       0.00000000 </v>
    <v>       0.00000000       0.00000000      15.00000000 </v>
   </varray>
   <i name="volume">   2621.43318603 </i>
   <varray name="rec_basis" >
    <v>       0.07039247       0.00000000       0.00000000 </v>
    <v>       0.00000000       0.08128796       0.00000000 </v>
    <v>       0.00000000       0.00000000       0.06666667 </v>
   </varray>
  </crystal>
  <varray name="positions" >
   <v>       0.06552924       0.40428224       0.13332883 </v>
   <v>       0.98073506       0.23448653       0.13331251 </v>
   <v>       0.22596849       0.39800742       0.13332693 </v>
   <v>       0.81567713       0.57598150       0.13353271 </v>
   <v>       0.15032739       0.23448907       0.13330756 </v>
   <v>       0.90510567       0.39801215       0.13332888 </v>
   <v>       0.56563600       0.40060460       0.13329290 </v>
   <v>       0.48003275       0.23339915       0.13319118 </v>
   <v>       0.72699959       0.39816605       0.13349143 </v>
   <v>       0.31530345       0.57604443       0.13352705 </v>
   <v>       0.65113845       0.23332886       0.13318734 </v>
   <v>       0.40417946       0.39830929       0.13352891 </v>
   <v>       0.81593183       0.90524123       0.13322179 </v>
   <v>       0.73312683       0.73613388       0.13336762 </v>
   <v>       0.97653404       0.89849251       0.13330997 </v>
   <v>       0.90130094       0.73428418       0.13317397 </v>
   <v>       0.65436077       0.89869394       0.13351908 </v>
   <v>       0.31496386       0.90544683       0.13320054 </v>
   <v>       0.22958188       0.73436464       0.13316012 </v>
   <v>       0.47652118       0.89889576       0.13350049 </v>
   <v>       0.39765408       0.73641312       0.13329011 </v>
   <v>       0.15435104       0.89855068       0.13332563 </v>
   <v>       0.06547629       0.07689847       0.13331367 </v>
   <v>       0.56552517       0.07636274       0.13331407 </v>
   <v>       0.98386097       0.45673230       0.13331657 </v>
   <v>       0.90051323       0.29005212       0.13328011 </v>
   <v>       0.14721891       0.45673085       0.13330434 </v>
   <v>       0.14879978       0.12682943       0.13328696 </v>
   <v>       0.98217053       0.12681964       0.13329527 </v>
   <v>       0.23059373       0.29004466       0.13328360 </v>
   <v>       0.06553126       0.29123103       0.13334958 </v>
   <v>       0.81521451       0.45792350       0.13337048 </v>
   <v>       0.48537906       0.45596222       0.13372761 </v>
   <v>       0.40076577       0.29045513       0.13359709 </v>
   <v>       0.64589040       0.45583435       0.13368861 </v>
   <v>       0.64915874       0.12611856       0.13341956 </v>
   <v>       0.48192703       0.12618043       0.13340833 </v>
   <v>       0.73044688       0.29029081       0.13357859 </v>
   <v>       0.56559013       0.28963346       0.13259239 </v>
   <v>       0.31590167       0.45800614       0.13338786 </v>
   <v>       0.73355117       0.95613998       0.13361729 </v>
   <v>       0.65156945       0.78886389       0.13372214 </v>
   <v>       0.89721800       0.95709144       0.13344107 </v>
   <v>       0.89834841       0.62653391       0.13351279 </v>
   <v>       0.73194305       0.62829732       0.13384847 </v>
   <v>       0.98071775       0.78992791       0.13338564 </v>
   <v>       0.81644402       0.79170529       0.13265331 </v>
   <v>       0.56546383       0.95729815       0.13335126 </v>
   <v>       0.23365512       0.95719332       0.13346882 </v>
   <v>       0.15016184       0.78998079       0.13343866 </v>
   <v>       0.39733392       0.95635363       0.13363927 </v>
   <v>       0.39900206       0.62855329       0.13381154 </v>
   <v>       0.23263864       0.62660872       0.13355684 </v>
   <v>       0.47919533       0.78908611       0.13366660 </v>
   <v>       0.31441659       0.79189183       0.13253209 </v>
   <v>       0.06544380       0.95787743       0.13331123 </v>
   <v>       0.56413024       0.62436563       0.13731276 </v>
  </varray>
 </structure>
 <calculation>
  <scstep>
   <time name="dav">    1.68    1.69</time>
   <time name="total">    1.72    1.74</time>
   <dipole>
    <v name="dipole">      0.00000000       0.00000000       0.00014829 </v>
    <i name="Tr[quadrupol]">  -8075.46851364 </i>
    <i name="Echarged">      0.00000000 </i>
    <i name="Edipol_quadrupol">      0.00000000 </i>
    <i name="Eion">      0.00000000 </i>
   </dipole>
   <energy>
    <i name="alphaZ">    128.31266621 </i>
    <i name="ewald">  28039.58296201 </i>
    <i name="hartreedc"> -38454.34676803 </i>
    <i name="XCdc">    945.33950056 </i>
    <i name="pawpsdc">  10165.83867403 </i>
    <i name="pawaedc"> -10171.50302928 </i>
    <i name="eentropy">     -0.09473245 </i>
    <i name="bandstr">  -1231.68005125 </i>
    <i name="atom">  13031.51187854 </i>
    <i name="e_fr_energy">   2452.96110034 </i>
    <i name="e_wo_entrp">   2453.05583279 </i>
    <i name="e_0_energy">   2453.00846656 </i>
   </energy>
  </scstep>
  <scstep>
   <time name="dav">    1.93    1.95</time>
   <time name="total">    1.93    1.95</time>
   <dipole>
    <v name="dipole">      0.00000000       0.00000000       0.00014829 </v>
    <i name="Tr[quadrupol]">  -8075.46851364 </i>
    <i name="Echarged">      0.00000000 </i>
    <i name="Edipol_quadrupol">      0.00000000 </i>
    <i name="Eion">      0.00000000 </i>
   </dipole>
   <energy>
    <i name="e_fr_energy">     16.91316049 </i>
    <i name="e_wo_entrp">     16.94482327 </i>
    <i name="e_0_energy">     16.92899188 </i>
   </energy>
  </scstep>
  <scstep>
   <time name="dav">    1.68    1.70</time>
   <time name="total">    1.68    1.70</time>
   <dipole>
    <v name="dipole">      0.00000000       0.00000000       0.00014829 </v>
    <i name="Tr[quadrupol]">  -8075.46851364 </i>
    <i name="Echarged">      0.00000000 </i>
    <i name="Edipol_quadrupol">      0.00000000 </i>
    <i name="Eion">      0.00000000 </i>
   </dipole>
   <energy>
    <i name="e_fr_energy">   -491.41956432 </i>
    <i name="e_wo_entrp">   -491.37324688 </i>
    <i name="e_0_energy">   -491.39640560 </i>
   </energy>
  </scstep>
  <scstep>
   <time name="dav">    1.65    1.67</time>
   <time name="total">    1.65    1.67</time>
   <dipole>
    <v name="dipole">      0.00000000       0.00000000       0.00014829 </v>
    <i name="Tr[quadrupol]">  -8075.46851364 </i>
    <i name="Echarged">      0.00000000 </i>
    <i name="Edipol_quadrupol">      0.00000000 </i>
    <i name="Eion">      0.00000000 </i>
   </dipole>
   <energy>
    <i name="e_fr_energy">   -509.10783518 </i>
    <i name="e_wo_entrp">   -509.02826257 </i>
    <i name="e_0_energy">   -509.06804887 </i>
   </energy>
  </scstep>
  <scstep>
   <time name="dav">    1.82    1.83</time>
   <time name="total">    1.87    1.88</time>
   <dipole>
    <v name="dipole">      0.00000000       0.00000000       0.00014829 </v>
    <i name="Tr[quadrupol]">  -8075.46851364 </i>
    <i name="Echarged">      0.00000000 </i>
    <i name="Edipol_quadrupol">      0.00000000 </i>
    <i name="Eion">      0.00000000 </i>
   </dipole>
   <energy>
    <i name="e_fr_energy">   -509.74088013 </i>
    <i name="e_wo_entrp">   -509.66067499 </i>
    <i name="e_0_energy">   -509.70077756 </i>
   </energy>
  </scstep>
  <scstep>
   <time name="dav">    1.60    1.62</time>
   <time name="total">    1.68    1.70</time>
   <dipole>
    <v name="dipole">      0.00000000       0.00000000      -0.04313119 </v>
    <i name="Tr[quadrupol]">  -8076.81842605 </i>
    <i name="Echarged">      0.00000000 </i>
    <i name="Edipol_quadrupol">      0.00000000 </i>
    <i name="Eion">      0.00000000 </i>
   </dipole>
   <energy>
    <i name="e_fr_energy">   -477.73710864 </i>
    <i name="e_wo_entrp">   -477.66310314 </i>
    <i name="e_0_energy">   -477.70010589 </i>
   </energy>
  </scstep>
  <scstep>
   <time name="dav">    1.62    1.64</time>
   <time name="total">    1.69    1.71</time>
   <dipole>
    <v name="dipole">      0.00000000       0.00000000      -0.00739391 </v>
    <i name="Tr[quadrupol]">  -8077.97235780 </i>
    <i name="Echarged">      0.00000000 </i>
    <i name="Edipol_quadrupol">      0.00000000 </i>
    <i name="Eion">      0.00000000 </i>
   </dipole>
   <energy>
    <i name="e_fr_energy">   -474.13802256 </i>
    <i name="e_wo_entrp">   -474.06436465 </i>
    <i name="e_0_energy">   -474.10119361 </i>
   </energy>
  </scstep>
  <scstep>
   <time name="dav">    1.62    1.63</time>
   <time name="total">    1.70    1.72</time>
   <dipole>
    <v name="dipole">      0.00000000       0.00000000      -0.04143000 </v>
    <i name="Tr[quadrupol]">  -8079.60850353 </i>
    <i name="Echarged">      0.00000000 </i>
    <i name="Edipol_quadrupol">      0.00000000 </i>
    <i name="Eion">      0.00000000 </i>
   </dipole>
   <energy>
    <i name="e_fr_energy">   -472.92628502 </i>
    <i name="e_wo_entrp">   -472.85553401 </i>
    <i name="e_0_energy">   -472.89090952 </i>
   </energy>
  </scstep>
  <scstep>
   <time name="dav">    1.73    1.74</time>
   <time name="total">    1.81    1.82</time>
   <dipole>
    <v name="dipole">      0.00000000       0.00000000      -0.03538352 </v>
    <i name="Tr[quadrupol]">  -8080.36243752 </i>
    <i name="Echarged">      0.00000000 </i>
    <i name="Edipol_quadrupol">      0.00000000 </i>
    <i name="Eion">      0.00000000 </i>
   </dipole>
   <energy>
    <i name="e_fr_energy">   -472.79726256 </i>
    <i name="e_wo_entrp">   -472.72429997 </i>
    <i name="e_0_energy">   -472.76078126 </i>
   </energy>
  </scstep>
  <scstep>
   <time name="dav">    1.69    1.71</time>
   <time name="total">    1.77    1.79</time>
   <dipole>
    <v name="dipole">      0.00000000       0.00000000      -0.00021009 </v>
    <i name="Tr[quadrupol]">  -8081.04999332 </i>
    <i name="Echarged">      0.00000000 </i>
    <i name="Edipol_quadrupol">      0.00000000 </i>
    <i name="Eion">      0.00000000 </i>
   </dipole>
   <energy>
    <i name="e_fr_energy">   -472.77224574 </i>
    <i name="e_wo_entrp">   -472.70144035 </i>
    <i name="e_0_energy">   -472.73684304 </i>
   </energy>
  </scstep>
  <scstep>
   <time name="dav">    1.64    1.66</time>
   <time name="total">    1.72    1.74</time>
   <dipole>
    <v name="dipole">      0.00000000       0.00000000      -0.00016098 </v>
    <i name="Tr[quadrupol]">  -8081.61279599 </i>
    <i name="Echarged">      0.00000000 </i>
    <i name="Edipol_quadrupol">      0.00000000 </i>
    <i name="Eion">      0.00000000 </i>
   </dipole>
   <energy>
    <i name="e_fr_energy">   -472.75897145 </i>
    <i name="e_wo_entrp">   -472.68591044 </i>
    <i name="e_0_energy">   -472.72244094 </i>
   </energy>
  </scstep>
  <scstep>
   <time name="dav">    1.62    1.64</time>
   <time name="total">    1.70    1.72</time>
   <dipole>
    <v name="dipole">      0.00000000       0.00000000       0.00435569 </v>
    <i name="Tr[quadrupol]">  -8082.54732988 </i>
    <i name="Echarged">      0.00000000 </i>
    <i name="Edipol_quadrupol">      0.00000000 </i>
    <i name="Eion">      0.00000000 </i>
   </dipole>
   <energy>
    <i name="e_fr_energy">   -472.75334826 </i>
    <i name="e_wo_entrp">   -472.68033769 </i>
    <i name="e_0_energy">   -472.71684298 </i>
   </energy>
  </scstep>
  <scstep>
   <time name="dav">    1.59    1.60</time>
   <time name="total">    1.67    1.68</time>
   <dipole>
    <v name="dipole">      0.00000000       0.00000000       0.00789812 </v>
    <i name="Tr[quadrupol]">  -8083.72409774 </i>
    <i name="Echarged">      0.00000000 </i>
    <i name="Edipol_quadrupol">      0.00000000 </i>
    <i name="Eion">      0.00000000 </i>
   </dipole>
   <energy>
    <i name="e_fr_energy">   -472.75230181 </i>
    <i name="e_wo_entrp">   -472.67970410 </i>
    <i name="e_0_energy">   -472.71600296 </i>
   </energy>
  </scstep>
  <scstep>
   <time name="dav">    1.55    1.57</time>
   <time name="total">    1.63    1.65</time>
   <dipole>
    <v name="dipole">      0.00000000       0.00000000       0.16771324 </v>
    <i name="Tr[quadrupol]">  -8085.00588012 </i>
    <i name="Echarged">      0.00000000 </i>
    <i name="Edipol_quadrupol">      0.00000000 </i>
    <i name="Eion">      0.00000000 </i>
   </dipole>
   <energy>
    <i name="e_fr_energy">   -472.75417962 </i>
    <i name="e_wo_entrp">   -472.68143743 </i>
    <i name="e_0_energy">   -472.71780853 </i>
   </energy>
  </scstep>
  <scstep>
   <time name="dav">    1.65    1.67</time>
   <time name="total">    1.73    1.75</time>
   <dipole>
    <v name="dipole">      0.00000000       0.00000000       0.24214941 </v>
    <i name="Tr[quadrupol]">  -8085.58339428 </i>
    <i name="Echarged">      0.00000000 </i>
    <i name="Edipol_quadrupol">      0.00000000 </i>
    <i name="Eion">      0.00000000 </i>
   </dipole>
   <energy>
    <i name="e_fr_energy">   -472.75678414 </i>
    <i name="e_wo_entrp">   -472.68402647 </i>
    <i name="e_0_energy">   -472.72040530 </i>
   </energy>
  </scstep>
  <scstep>
   <time name="dav">    1.55    1.56</time>
   <time name="total">    1.63    1.64</time>
   <dipole>
    <v name="dipole">      0.00000000       0.00000000       0.19620443 </v>
    <i name="Tr[quadrupol]">  -8086.15201782 </i>
    <i name="Echarged">      0.00000000 </i>
    <i name="Edipol_quadrupol">      0.00000000 </i>
    <i name="Eion">      0.00000000 </i>
   </dipole>
   <energy>
    <i name="e_fr_energy">   -472.76093205 </i>
    <i name="e_wo_entrp">   -472.68817156 </i>
    <i name="e_0_energy">   -472.72455180 </i>
   </energy>
  </scstep>
  <scstep>
   <time name="dav">    1.64    1.66</time>
   <time name="total">    1.72    1.74</time>
   <dipole>
    <v name="dipole">      0.00000000       0.00000000       0.16009325 </v>
    <i name="Tr[quadrupol]">  -8086.37630519 </i>
    <i name="Echarged">      0.00000000 </i>
    <i name="Edipol_quadrupol">      0.00000000 </i>
    <i name="Eion">      0.00000000 </i>
   </dipole>
   <energy>
    <i name="e_fr_energy">   -472.76275726 </i>
    <i name="e_wo_entrp">   -472.68997164 </i>
    <i name="e_0_energy">   -472.72636445 </i>
   </energy>
  </scstep>
  <scstep>
   <time name="dav">    1.51    1.53</time>
   <time name="total">    1.59    1.62</time>
   <dipole>
    <v name="dipole">      0.00000000       0.00000000       0.12487656 </v>
    <i name="Tr[quadrupol]">  -8086.52522533 </i>
    <i name="Echarged">      0.00000000 </i>
    <i name="Edipol_quadrupol">      0.00000000 </i>
    <i name="Eion">      0.00000000 </i>
   </dipole>
   <energy>
    <i name="e_fr_energy">   -472.76484755 </i>
    <i name="e_wo_entrp">   -472.69206377 </i>
    <i name="e_0_energy">   -472.72845566 </i>
   </energy>
  </scstep>
  <scstep>
   <time name="dav">    1.55    1.56</time>
   <time name="total">    1.63    1.64</time>
   <dipole>
    <v name="dipole">      0.00000000       0.00000000       0.07217496 </v>
    <i name="Tr[quadrupol]">  -8086.77527759 </i>
    <i name="Echarged">      0.00000000 </i>
    <i name="Edipol_quadrupol">      0.00000000 </i>
    <i name="Eion">      0.00000000 </i>
   </dipole>
   <energy>
    <i name="e_fr_energy">   -472.76835076 </i>
    <i name="e_wo_entrp">   -472.69557592 </i>
    <i name="e_0_energy">   -472.73196334 </i>
   </energy>
  </scstep>
  <scstep>
   <time name="dav">    1.47    1.49</time>
   <time name="total">    1.55    1.57</time>
   <dipole>
    <v name="dipole">      0.00000000       0.00000000       0.04424608 </v>
    <i name="Tr[quadrupol]">  -8086.86244350 </i>
    <i name="Echarged">      0.00000000 </i>
    <i name="Edipol_quadrupol">      0.00000000 </i>
    <i name="Eion">      0.00000000 </i>
   </dipole>
   <energy>
    <i name="e_fr_energy">   -472.76980250 </i>
    <i name="e_wo_entrp">   -472.69701986 </i>
    <i name="e_0_energy">   -472.73341118 </i>
   </energy>
  </scstep>
  <scstep>
   <time name="dav">    1.35    1.36</time>
   <time name="total">    1.43    1.44</time>
   <dipole>
    <v name="dipole">      0.00000000       0.00000000       0.01104002 </v>
    <i name="Tr[quadrupol]">  -8086.97996979 </i>
    <i name="Echarged">      0.00000000 </i>
    <i name="Edipol_quadrupol">      0.00000000 </i>
    <i name="Eion">      0.00000000 </i>
   </dipole>
   <energy>
    <i name="e_fr_energy">   -472.77125779 </i>
    <i name="e_wo_entrp">   -472.69847169 </i>
    <i name="e_0_energy">   -472.73486474 </i>
   </energy>
  </scstep>
  <scstep>
   <time name="dav">    1.21    1.22</time>
   <time name="total">    1.29    1.31</time>
   <dipole>
    <v name="dipole">      0.00000000       0.00000000       0.00363462 </v>
    <i name="Tr[quadrupol]">  -8087.00643331 </i>
    <i name="Echarged">      0.00000000 </i>
    <i name="Edipol_quadrupol">      0.00000000 </i>
    <i name="Eion">      0.00000000 </i>
   </dipole>
   <energy>
    <i name="e_fr_energy">   -472.77148971 </i>
    <i name="e_wo_entrp">   -472.69869983 </i>
    <i name="e_0_energy">   -472.73509477 </i>
   </energy>
  </scstep>
  <scstep>
   <time name="dav">    1.13    1.14</time>
   <time name="total">    1.21    1.22</time>
   <dipole>
    <v name="dipole">      0.00000000       0.00000000      -0.00095086 </v>
    <i name="Tr[quadrupol]">  -8087.02555209 </i>
    <i name="Echarged">      0.00000000 </i>
    <i name="Edipol_quadrupol">      0.00000000 </i>
    <i name="Eion">      0.00000000 </i>
   </dipole>
   <energy>
    <i name="e_fr_energy">   -472.77166023 </i>
    <i name="e_wo_entrp">   -472.69887561 </i>
    <i name="e_0_energy">   -472.73526792 </i>
   </energy>
  </scstep>
  <scstep>
   <time name="dav">    1.14    1.15</time>
   <time name="total">    1.21    1.22</time>
   <dipole>
    <v name="dipole">      0.00000000       0.00000000      -0.00227259 </v>
    <i name="Tr[quadrupol]">  -8087.03500286 </i>
    <i name="Echarged">      0.00000000 </i>
    <i name="Edipol_quadrupol">      0.00000000 </i>
    <i name="Eion">      0.00000000 </i>
   </dipole>
   <energy>
    <i name="e_fr_energy">   -472.77167797 </i>
    <i name="e_wo_entrp">   -472.69889251 </i>
    <i name="e_0_energy">   -472.73528524 </i>
   </energy>
  </scstep>
  <scstep>
   <time name="dav">    1.08    1.09</time>
   <time name="total">    1.16    1.17</time>
   <dipole>
    <v name="dipole">      0.00000000       0.00000000      -0.00083838 </v>
    <i name="Tr[quadrupol]">  -8087.04031650 </i>
    <i name="Echarged">      0.00000000 </i>
    <i name="Edipol_quadrupol">      0.00000000 </i>
    <i name="Eion">      0.00000000 </i>
   </dipole>
   <energy>
    <i name="e_fr_energy">   -472.77168918 </i>
    <i name="e_wo_entrp">   -472.69890246 </i>
    <i name="e_0_energy">   -472.73529582 </i>
   </energy>
  </scstep>
  <scstep>
   <time name="dav">    1.08    1.09</time>
   <time name="total">    1.11    1.12</time>
   <dipole>
    <v name="dipole">      0.00000000       0.00000000       0.00049608 </v>
    <i name="Tr[quadrupol]">  -8087.04205440 </i>
    <i name="Echarged">      0.00000000 </i>
    <i name="Edipol_quadrupol">      0.00000000 </i>
    <i name="Eion">      0.00000000 </i>
   </dipole>
   <energy>
    <i name="alphaZ">    128.31974623 </i>
    <i name="ewald">  28039.58296201 </i>
    <i name="hartreedc"> -39290.42142212 </i>
    <i name="XCdc">    978.83827337 </i>
    <i name="pawpsdc">  28721.22716295 </i>
    <i name="pawaedc"> -28738.04339459 </i>
    <i name="eentropy">     -0.07278699 </i>
    <i name="bandstr">  -3343.71411821 </i>
    <i name="atom">  13031.51187854 </i>
    <i name="e_fr_energy">   -472.77169881 </i>
    <i name="e_wo_entrp">   -472.69891182 </i>
    <i name="e_0_energy">   -472.73530531 </i>
   </energy>
  </scstep>
  <structure>
   <crystal>
    <varray name="basis" >
     <v>      14.20606433       0.00000000       0.00000000 </v>
     <v>       0.00000000      12.30194432       0.00000000 </v>
     <v>       0.00000000       0.00000000      15.00000000 </v>
    </varray>
    <i name="volume">   2621.43318603 </i>
    <varray name="rec_basis" >
     <v>       0.07039247       0.00000000       0.00000000 </v>
     <v>       0.00000000       0.08128796       0.00000000 </v>
     <v>       0.00000000       0.00000000       0.06666667 </v>
    </varray>
   </crystal>
   <varray name="positions" >
    <v>       0.06552924       0.40428224       0.13332883 </v>
    <v>       0.98073506       0.23448653       0.13331251 </v>
    <v>       0.22596849       0.39800742       0.13332693 </v>
    <v>       0.81567713       0.57598150       0.13353271 </v>
    <v>       0.15032739       0.23448907       0.13330756 </v>
    <v>       0.90510567       0.39801215       0.13332888 </v>
    <v>       0.56563600       0.40060460       0.13329290 </v>
    <v>       0.48003275       0.23339915       0.13319118 </v>
    <v>       0.72699959       0.39816605       0.13349143 </v>
    <v>       0.31530345       0.57604443       0.13352705 </v>
    <v>       0.65113845       0.23332886       0.13318734 </v>
    <v>       0.40417946       0.39830929       0.13352891 </v>
    <v>       0.81593183       0.90524123       0.13322179 </v>
    <v>       0.73312683       0.73613388       0.13336762 </v>
    <v>       0.97653404       0.89849251       0.13330997 </v>
    <v>       0.90130094       0.73428418       0.13317397 </v>
    <v>       0.65436077       0.89869394       0.13351908 </v>
    <v>       0.31496386       0.90544683       0.13320054 </v>
    <v>       0.22958188       0.73436464       0.13316012 </v>
    <v>       0.47652118       0.89889576       0.13350049 </v>
    <v>       0.39765408       0.73641312       0.13329011 </v>
    <v>       0.15435104       0.89855068       0.13332563 </v>
    <v>       0.06547629       0.07689847       0.13331367 </v>
    <v>       0.56552517       0.07636274       0.13331407 </v>
    <v>       0.98386097       0.45673230       0.13331657 </v>
    <v>       0.90051323       0.29005212       0.13328011 </v>
    <v>       0.14721891       0.45673085       0.13330434 </v>
    <v>       0.14879978       0.12682943       0.13328696 </v>
    <v>       0.98217053       0.12681964       0.13329527 </v>
    <v>       0.23059373       0.29004466       0.13328360 </v>
    <v>       0.06553126       0.29123103       0.13334958 </v>
    <v>       0.81521451       0.45792350       0.13337048 </v>
    <v>       0.48537906       0.45596222       0.13372761 </v>
    <v>       0.40076577       0.29045513       0.13359709 </v>
    <v>       0.64589040       0.45583435       0.13368861 </v>
    <v>       0.64915874       0.12611856       0.13341956 </v>
    <v>       0.48192703       0.12618043       0.13340833 </v>
    <v>       0.73044688       0.29029081       0.13357859 </v>
    <v>       0.56559013       0.28963346       0.13259239 </v>
    <v>       0.31590167       0.45800614       0.13338786 </v>
    <v>       0.73355117       0.95613998       0.13361729 </v>
    <v>       0.65156945       0.78886389       0.13372214 </v>
    <v>       0.89721800       0.95709144       0.13344107 </v>
    <v>       0.89834841       0.62653391       0.13351279 </v>
    <v>       0.73194305       0.62829732       0.13384847 </v>
    <v>       0.98071775       0.78992791       0.13338564 </v>
    <v>       0.81644402       0.79170529       0.13265331 </v>
    <v>       0.56546383       0.95729815       0.13335126 </v>
    <v>       0.23365512       0.95719332       0.13346882 </v>
    <v>       0.15016184       0.78998079       0.13343866 </v>
    <v>       0.39733392       0.95635363       0.13363927 </v>
    <v>       0.39900206       0.62855329       0.13381154 </v>
    <v>       0.23263864       0.62660872       0.13355684 </v>
    <v>       0.47919533       0.78908611       0.13366660 </v>
    <v>       0.31441659       0.79189183       0.13253209 </v>
    <v>       0.06544380       0.95787743       0.13331123 </v>
    <v>       0.56413024       0.62436563       0.13731276 </v>
   </varray>
  </structure>
  <varray name="forces" >
   <v>       0.00352582      -0.00446047      -0.00149754 </v>
   <v>       0.01263075       0.01616498      -0.00155089 </v>
   <v>       0.00780525       0.00380639       0.00058589 </v>
   <v>       0.03258640       0.07931860       0.00495396 </v>
   <v>      -0.01176349       0.00968822      -0.00242459 </v>
   <v>      -0.00280861       0.00399659       0.00023485 </v>
   <v>       0.00309935      -0.11837507      -0.00696971 </v>
   <v>       0.00407013       0.03857306      -0.00247535 </v>
   <v>      -0.05123400      -0.07381187       0.00289633 </v>
   <v>      -0.03177696       0.09020881       0.00472282 </v>
   <v>      -0.00870839       0.04128123      -0.00251363 </v>
   <v>       0.05909301      -0.06808696       0.00265679 </v>
   <v>      -0.03107456      -0.02566073       0.00021492 </v>
   <v>       0.09426980       0.04382930      -0.00426920 </v>
   <v>      -0.02718913       0.00381796       0.00234081 </v>
   <v>      -0.03269060      -0.01151500      -0.00299705 </v>
   <v>       0.08113690      -0.03116366       0.00297950 </v>
   <v>       0.02524522      -0.02963024      -0.00072236 </v>
   <v>       0.03445487      -0.01397072      -0.00218541 </v>
   <v>      -0.09392902      -0.02587750       0.00284754 </v>
   <v>      -0.11105827       0.05316549      -0.00827868 </v>
   <v>       0.02350874       0.00094035       0.00295965 </v>
   <v>       0.00014096      -0.00741150      -0.00210813 </v>
   <v>       0.00120637       0.02975513       0.00427383 </v>
   <v>       0.00101318      -0.00660449      -0.00240725 </v>
   <v>       0.02630811       0.01533446      -0.00469839 </v>
   <v>       0.00115997      -0.01238096      -0.00323949 </v>
   <v>      -0.01389710       0.00966639      -0.00473337 </v>
   <v>       0.01060067       0.01230664      -0.00394221 </v>
   <v>      -0.02430633       0.01020024      -0.00466151 </v>
   <v>       0.00014879       0.00080210       0.00598095 </v>
   <v>      -0.01852009       0.00606871       0.00909801 </v>
   <v>      -0.42764264      -0.64248872      -0.01308856 </v>
   <v>      -0.04258523      -0.02874035       0.00270976 </v>
   <v>       0.40465539      -0.58677491      -0.01274569 </v>
   <v>       0.00455664       0.00100001       0.00205050 </v>
   <v>      -0.01046952       0.01093664       0.00258152 </v>
   <v>       0.04630611      -0.02664663       0.00359372 </v>
   <v>      -0.00322939      -0.02046619      -0.01408702 </v>
   <v>       0.02742125       0.01040038       0.00875692 </v>
   <v>      -0.01044225       0.03864728       0.00112973 </v>
   <v>       0.32608867       0.61702640      -0.00860615 </v>
   <v>      -0.02046154       0.01363041       0.00753523 </v>
   <v>       0.04174091      -0.01133229       0.00061679 </v>
   <v>       0.67873240      -0.06154855      -0.00599436 </v>
   <v>       0.00903761       0.00447029       0.00182988 </v>
   <v>       0.01686279       0.01038422      -0.01581104 </v>
   <v>      -0.00211632      -0.00386592       0.00784185 </v>
   <v>       0.00931998       0.01096157       0.00772613 </v>
   <v>      -0.01174328      -0.00598123       0.00355765 </v>
   <v>       0.00221004       0.04657229       0.00241490 </v>
   <v>      -0.78577904      -0.07486363      -0.01146646 </v>
   <v>      -0.04668614      -0.01248048       0.00153043 </v>
   <v>      -0.33333191       0.66483404      -0.01293777 </v>
   <v>      -0.02215617       0.00542036      -0.01928644 </v>
   <v>       0.00037147      -0.01130950      -0.00162392 </v>
   <v>       0.18629244       0.01223904       0.07670130 </v>
  </varray>
  <varray name="stress" >
   <v>       3.08640736      -0.12133153       0.00970639 </v>
   <v>      -0.12133151       3.06482297      -0.00020627 </v>
   <v>       0.00970639      -0.00020629     -12.35784385 </v>
  </varray>
  <energy>
   <i name="e_fr_energy">   -472.77169881 </i>
   <i name="e_wo_entrp">   -472.69891182 </i>
   <i name="e_0_energy">   -472.73530531 </i>
  </energy>
  <time name="totalsc">   42.76   43.22</time>
 </calculation>
 <calculation>
  <scstep>
   <time name="dav">    1.43    1.44</time>
   <time name="total">    1.51    1.52</time>
   <dipole>
    <v name="dipole">      0.00000000       0.00000000       0.00186262 </v>
    <i name="Tr[quadrupol]">  -8097.82303304 </i>
    <i name="Echarged">      0.00000000 </i>
    <i name="Edipol_quadrupol">      0.00000000 </i>
    <i name="Eion">      0.00000000 </i>
   </dipole>
   <energy>
    <i name="alphaZ">    128.12622881 </i>
    <i name="ewald">  27978.88159576 </i>
    <i name="hartreedc"> -39227.32019766 </i>
    <i name="XCdc">    978.35122327 </i>
    <i name="pawpsdc">  28721.27910893 </i>
    <i name="pawaedc"> -28738.09538526 </i>
    <i name="eentropy">     -0.07333567 </i>
    <i name="bandstr">  -3345.46490599 </i>
    <i name="atom">  13031.51187854 </i>
    <i name="e_fr_energy">   -472.80378927 </i>
    <i name="e_wo_entrp">   -472.73045360 </i>
    <i name="e_0_energy">   -472.76712143 </i>
   </energy>
  </scstep>
  <scstep>
   <time name="dav">    1.62    1.64</time>
   <time name="total">    1.69    1.72</time>
   <dipole>
    <v name="dipole">      0.00000000       0.00000000       0.00208280 </v>
    <i name="Tr[quadrupol]">  -8097.82344644 </i>
    <i name="Echarged">      0.00000000 </i>
    <i name="Edipol_quadrupol">      0.00000000 </i>
    <i name="Eion">      0.00000000 </i>
   </dipole>
   <energy>
    <i name="e_fr_energy">   -472.80425788 </i>
    <i name="e_wo_entrp">   -472.73125144 </i>
    <i name="e_0_energy">   -472.76775466 </i>
   </energy>
  </scstep>
  <scstep>
   <time name="dav">    1.53    1.54</time>
   <time name="total">    1.61    1.62</time>
   <dipole>
    <v name="dipole">      0.00000000       0.00000000       0.00235534 </v>
    <i name="Tr[quadrupol]">  -8097.82276467 </i>
    <i name="Echarged">      0.00000000 </i>
    <i name="Edipol_quadrupol">      0.00000000 </i>
    <i name="Eion">      0.00000000 </i>
   </dipole>
   <energy>
    <i name="e_fr_energy">   -472.80357569 </i>
    <i name="e_wo_entrp">   -472.73047702 </i>
    <i name="e_0_energy">   -472.76702636 </i>
   </energy>
  </scstep>
  <scstep>
   <time name="dav">    1.58    1.60</time>
   <time name="total">    1.65    1.67</time>
   <dipole>
    <v name="dipole">      0.00000000       0.00000000       0.00295699 </v>
    <i name="Tr[quadrupol]">  -8097.82161087 </i>
    <i name="Echarged">      0.00000000 </i>
    <i name="Edipol_quadrupol">      0.00000000 </i>
    <i name="Eion">      0.00000000 </i>
   </dipole>
   <energy>
    <i name="e_fr_energy">   -472.80339251 </i>
    <i name="e_wo_entrp">   -472.73036318 </i>
    <i name="e_0_energy">   -472.76687785 </i>
   </energy>
  </scstep>
  <scstep>
   <time name="dav">    1.54    1.56</time>
   <time name="total">    1.62    1.64</time>
   <dipole>
    <v name="dipole">      0.00000000       0.00000000       0.00313004 </v>
    <i name="Tr[quadrupol]">  -8097.82026760 </i>
    <i name="Echarged">      0.00000000 </i>
    <i name="Edipol_quadrupol">      0.00000000 </i>
    <i name="Eion">      0.00000000 </i>
   </dipole>
   <energy>
    <i name="e_fr_energy">   -472.80338157 </i>
    <i name="e_wo_entrp">   -472.73039526 </i>
    <i name="e_0_energy">   -472.76688842 </i>
   </energy>
  </scstep>
  <scstep>
   <time name="dav">    1.11    1.12</time>
   <time name="total">    1.14    1.15</time>
   <dipole>
    <v name="dipole">      0.00000000       0.00000000       0.00322345 </v>
    <i name="Tr[quadrupol]">  -8097.81899151 </i>
    <i name="Echarged">      0.00000000 </i>
    <i name="Edipol_quadrupol">      0.00000000 </i>
    <i name="Eion">      0.00000000 </i>
   </dipole>
   <energy>
    <i name="alphaZ">    128.15589422 </i>
    <i name="ewald">  27978.88159576 </i>
    <i name="hartreedc"> -39229.24057054 </i>
    <i name="XCdc">    978.51986113 </i>
    <i name="pawpsdc">  28656.24077589 </i>
    <i name="pawaedc"> -28672.98265372 </i>
    <i name="eentropy">     -0.07300665 </i>
    <i name="bandstr">  -3343.81715463 </i>
    <i name="atom">  13031.51187854 </i>
    <i name="e_fr_energy">   -472.80338000 </i>
    <i name="e_wo_entrp">   -472.73037335 </i>
    <i name="e_0_energy">   -472.76687668 </i>
   </energy>
  </scstep>
  <structure>
   <crystal>
    <varray name="basis" >
     <v>      14.21820777       0.00000000       0.00000000 </v>
     <v>       0.00000000      12.31238656       0.00000000 </v>
     <v>       0.00000000       0.00000000      15.00000000 </v>
    </varray>
    <i name="volume">   2625.90105321 </i>
    <varray name="rec_basis" >
     <v>       0.07033235       0.00000000       0.00000000 </v>
     <v>       0.00000000       0.08121902       0.00000000 </v>
     <v>       0.00000000       0.00000000       0.06666667 </v>
    </varray>
   </crystal>
   <varray name="positions" >
    <v>       0.06553163       0.40427874       0.13332787 </v>
    <v>       0.98074364       0.23449921       0.13331151 </v>
    <v>       0.22597379       0.39801041       0.13332730 </v>
    <v>       0.81569927       0.57604371       0.13353589 </v>
    <v>       0.15031940       0.23449667       0.13330600 </v>
    <v>       0.90510376       0.39801529       0.13332903 </v>
    <v>       0.56563811       0.40051175       0.13328842 </v>
    <v>       0.48003551       0.23342940       0.13318959 </v>
    <v>       0.72696480       0.39810816       0.13349329 </v>
    <v>       0.31528187       0.57611518       0.13353008 </v>
    <v>       0.65113254       0.23336123       0.13318572 </v>
    <v>       0.40421960       0.39825589       0.13353062 </v>
    <v>       0.81591073       0.90522110       0.13322192 </v>
    <v>       0.73319086       0.73616826       0.13336487 </v>
    <v>       0.97651558       0.89849550       0.13331148 </v>
    <v>       0.90127874       0.73427515       0.13317204 </v>
    <v>       0.65441587       0.89866950       0.13352100 </v>
    <v>       0.31498101       0.90542359       0.13320008 </v>
    <v>       0.22960528       0.73435369       0.13315871 </v>
    <v>       0.47645738       0.89887547       0.13350232 </v>
    <v>       0.39757865       0.73645481       0.13328479 </v>
    <v>       0.15436700       0.89855142       0.13332753 </v>
    <v>       0.06547639       0.07689266       0.13331231 </v>
    <v>       0.56552599       0.07638607       0.13331682 </v>
    <v>       0.98386166       0.45672712       0.13331502 </v>
    <v>       0.90053110       0.29006415       0.13327709 </v>
    <v>       0.14721970       0.45672114       0.13330226 </v>
    <v>       0.14879034       0.12683702       0.13328392 </v>
    <v>       0.98217773       0.12682930       0.13329273 </v>
    <v>       0.23057722       0.29005266       0.13328060 </v>
    <v>       0.06553136       0.29123166       0.13335343 </v>
    <v>       0.81520193       0.45792826       0.13337633 </v>
    <v>       0.48508861       0.45545831       0.13371919 </v>
    <v>       0.40073685       0.29043259       0.13359883 </v>
    <v>       0.64616523       0.45537414       0.13368042 </v>
    <v>       0.64916184       0.12611934       0.13342088 </v>
    <v>       0.48191992       0.12618901       0.13340999 </v>
    <v>       0.73047833       0.29026992       0.13358090 </v>
    <v>       0.56558794       0.28961741       0.13258333 </v>
    <v>       0.31592030       0.45801430       0.13339349 </v>
    <v>       0.73354408       0.95617029       0.13361801 </v>
    <v>       0.65179092       0.78934783       0.13371661 </v>
    <v>       0.89720410       0.95710213       0.13344591 </v>
    <v>       0.89837676       0.62652503       0.13351319 </v>
    <v>       0.73240403       0.62824904       0.13384461 </v>
    <v>       0.98072389       0.78993142       0.13338681 </v>
    <v>       0.81645547       0.79171344       0.13264313 </v>
    <v>       0.56546239       0.95729512       0.13335631 </v>
    <v>       0.23366145       0.95720192       0.13347379 </v>
    <v>       0.15015387       0.78997610       0.13344095 </v>
    <v>       0.39733543       0.95639016       0.13364082 </v>
    <v>       0.39846838       0.62849457       0.13380416 </v>
    <v>       0.23260693       0.62659893       0.13355783 </v>
    <v>       0.47896893       0.78960754       0.13365828 </v>
    <v>       0.31440154       0.79189608       0.13251969 </v>
    <v>       0.06544405       0.95786856       0.13331019 </v>
    <v>       0.56425677       0.62437523       0.13736210 </v>
   </varray>
  </structure>
  <varray name="forces" >
   <v>       0.00104757      -0.00453683      -0.00082405 </v>
   <v>       0.01427287       0.01131258      -0.00135169 </v>
   <v>      -0.01181828      -0.00642968       0.00066089 </v>
   <v>       0.18425453      -0.00137485       0.00336803 </v>
   <v>      -0.01466825       0.00970253      -0.00186261 </v>
   <v>       0.01871817      -0.00382256       0.00016819 </v>
   <v>       0.00036310      -0.10758594      -0.00744458 </v>
   <v>      -0.02167883       0.00891469      -0.00203670 </v>
   <v>       0.09796560      -0.16715208       0.00243299 </v>
   <v>      -0.20452462      -0.00080877       0.00287957 </v>
   <v>       0.01753761       0.00486488      -0.00219777 </v>
   <v>      -0.09680307      -0.17360331       0.00248557 </v>
   <v>      -0.02109163       0.00929081       0.00054311 </v>
   <v>       0.09596871       0.04008229      -0.00507367 </v>
   <v>      -0.04662683      -0.01442129       0.00260052 </v>
   <v>       0.00708712      -0.01356769      -0.00368605 </v>
   <v>       0.08964080       0.14979272       0.00176592 </v>
   <v>       0.01508098       0.00857695      -0.00060787 </v>
   <v>      -0.00835160      -0.01849720      -0.00230794 </v>
   <v>      -0.09935936       0.16549902       0.00204217 </v>
   <v>      -0.09740823       0.03895129      -0.00839835 </v>
   <v>       0.04245752      -0.02115706       0.00282908 </v>
   <v>      -0.00086584       0.02837585      -0.00255106 </v>
   <v>      -0.00139753       0.04218144       0.00425440 </v>
   <v>       0.00574593      -0.04901459      -0.00249820 </v>
   <v>       0.06001219       0.03099606      -0.00464443 </v>
   <v>      -0.00139739      -0.05313303      -0.00322833 </v>
   <v>      -0.04718397       0.03095047      -0.00486619 </v>
   <v>       0.04562861       0.03351734      -0.00388720 </v>
   <v>      -0.05768177       0.02718199      -0.00464155 </v>
   <v>       0.00076760       0.00260494       0.00590891 </v>
   <v>      -0.00003378      -0.00108197       0.00884747 </v>
   <v>      -0.09139259      -0.43912123      -0.01102592 </v>
   <v>      -0.00217231      -0.06706268       0.00245677 </v>
   <v>       0.08011616      -0.41219890      -0.01068511 </v>
   <v>      -0.03386067       0.04296032       0.00204774 </v>
   <v>       0.03195271       0.04441482       0.00252404 </v>
   <v>       0.00077010      -0.06437462       0.00319883 </v>
   <v>       0.00118441      -0.03548760      -0.01304499 </v>
   <v>       0.00452151       0.00081600       0.00855459 </v>
   <v>       0.04534930       0.01854100       0.00089256 </v>
   <v>       0.31827597       0.26366371      -0.00552784 </v>
   <v>      -0.02650744      -0.03806267       0.00748850 </v>
   <v>       0.04990976       0.03996932       0.00043933 </v>
   <v>       0.38391995       0.12339540      -0.00446551 </v>
   <v>      -0.04650211       0.02157705       0.00159690 </v>
   <v>       0.03087414       0.01655363      -0.01460663 </v>
   <v>      -0.00269338       0.00822518       0.00765191 </v>
   <v>       0.01933020      -0.04101614       0.00759027 </v>
   <v>       0.04318703       0.01494338       0.00328198 </v>
   <v>      -0.05920579       0.02715872       0.00227085 </v>
   <v>      -0.43143864       0.13312741      -0.00822368 </v>
   <v>      -0.06369534       0.04098833       0.00160207 </v>
   <v>      -0.33434991       0.27354836      -0.01029589 </v>
   <v>      -0.03904966       0.01931952      -0.01808520 </v>
   <v>      -0.00018792      -0.00607145      -0.00133506 </v>
   <v>       0.15600657       0.00758416       0.06702090 </v>
  </varray>
  <varray name="stress" >
   <v>       1.44294045      -0.11106775       0.00758791 </v>
   <v>      -0.11106776       1.41959904       0.00006025 </v>
   <v>       0.00758790       0.00006027     -12.45260950 </v>
  </varray>
  <energy>
   <i name="e_fr_energy">   -472.80338000 </i>
   <i name="e_wo_entrp">   -472.73037335 </i>
   <i name="e_0_energy">   -472.76687668 </i>
  </energy>
  <time name="totalsc">   10.48   10.59</time>
 </calculation>
 <calculation>
  <scstep>
   <time name="dav">    1.43    1.45</time>
   <time name="total">    1.50    1.52</time>
   <dipole>
    <v name="dipole">      0.00000000       0.00000000       0.00326631 </v>
    <i name="Tr[quadrupol]">  -8110.08031799 </i>
    <i name="Echarged">      0.00000000 </i>
    <i name="Edipol_quadrupol">      0.00000000 </i>
    <i name="Eion">      0.00000000 </i>
   </dipole>
   <energy>
    <i name="alphaZ">    127.90912741 </i>
    <i name="ewald">  27910.25099224 </i>
    <i name="hartreedc"> -39157.73633303 </i>
    <i name="XCdc">    977.96652734 </i>
    <i name="pawpsdc">  28657.40457437 </i>
    <i name="pawaedc"> -28674.14621547 </i>
    <i name="eentropy">     -0.07360898 </i>
    <i name="bandstr">  -3345.90336151 </i>
    <i name="atom">  13031.51187854 </i>
    <i name="e_fr_energy">   -472.81641909 </i>
    <i name="e_wo_entrp">   -472.74281011 </i>
    <i name="e_0_energy">   -472.77961460 </i>
   </energy>
  </scstep>
  <scstep>
   <time name="dav">    1.63    1.64</time>
   <time name="total">    1.71    1.72</time>
   <dipole>
    <v name="dipole">      0.00000000       0.00000000       0.00303696 </v>
    <i name="Tr[quadrupol]">  -8110.07923090 </i>
    <i name="Echarged">      0.00000000 </i>
    <i name="Edipol_quadrupol">      0.00000000 </i>
    <i name="Eion">      0.00000000 </i>
   </dipole>
   <energy>
    <i name="e_fr_energy">   -472.81702917 </i>
    <i name="e_wo_entrp">   -472.74378075 </i>
    <i name="e_0_energy">   -472.78040496 </i>
   </energy>
  </scstep>
  <scstep>
   <time name="dav">    1.53    1.55</time>
   <time name="total">    1.61    1.63</time>
   <dipole>
    <v name="dipole">      0.00000000       0.00000000       0.00309150 </v>
    <i name="Tr[quadrupol]">  -8110.07728439 </i>
    <i name="Echarged">      0.00000000 </i>
    <i name="Edipol_quadrupol">      0.00000000 </i>
    <i name="Eion">      0.00000000 </i>
   </dipole>
   <energy>
    <i name="e_fr_energy">   -472.81613190 </i>
    <i name="e_wo_entrp">   -472.74278631 </i>
    <i name="e_0_energy">   -472.77945911 </i>
   </energy>
  </scstep>
  <scstep>
   <time name="dav">    1.58    1.60</time>
   <time name="total">    1.65    1.68</time>
   <dipole>
    <v name="dipole">      0.00000000       0.00000000       0.00334891 </v>
    <i name="Tr[quadrupol]">  -8110.07415693 </i>
    <i name="Echarged">      0.00000000 </i>
    <i name="Edipol_quadrupol">      0.00000000 </i>
    <i name="Eion">      0.00000000 </i>
   </dipole>
   <energy>
    <i name="e_fr_energy">   -472.81588346 </i>
    <i name="e_wo_entrp">   -472.74261240 </i>
    <i name="e_0_energy">   -472.77924793 </i>
   </energy>
  </scstep>
  <scstep>
   <time name="dav">    1.52    1.53</time>
   <time name="total">    1.60    1.61</time>
   <dipole>
    <v name="dipole">      0.00000000       0.00000000       0.00335945 </v>
    <i name="Tr[quadrupol]">  -8110.07152018 </i>
    <i name="Echarged">      0.00000000 </i>
    <i name="Edipol_quadrupol">      0.00000000 </i>
    <i name="Eion">      0.00000000 </i>
   </dipole>
   <energy>
    <i name="e_fr_energy">   -472.81587251 </i>
    <i name="e_wo_entrp">   -472.74265614 </i>
    <i name="e_0_energy">   -472.77926433 </i>
   </energy>
  </scstep>
  <scstep>
   <time name="dav">    1.15    1.16</time>
   <time name="total">    1.18    1.19</time>
   <dipole>
    <v name="dipole">      0.00000000       0.00000000       0.00332131 </v>
    <i name="Tr[quadrupol]">  -8110.06912931 </i>
    <i name="Echarged">      0.00000000 </i>
    <i name="Edipol_quadrupol">      0.00000000 </i>
    <i name="Eion">      0.00000000 </i>
   </dipole>
   <energy>
    <i name="alphaZ">    127.91018783 </i>
    <i name="ewald">  27910.25099224 </i>
    <i name="hartreedc"> -39159.79551971 </i>
    <i name="XCdc">    978.15726332 </i>
    <i name="pawpsdc">  28586.11162666 </i>
    <i name="pawaedc"> -28602.77159016 </i>
    <i name="eentropy">     -0.07324369 </i>
    <i name="bandstr">  -3344.11746970 </i>
    <i name="atom">  13031.51187854 </i>
    <i name="e_fr_energy">   -472.81587466 </i>
    <i name="e_wo_entrp">   -472.74263097 </i>
    <i name="e_0_energy">   -472.77925282 </i>
   </energy>
  </scstep>
  <structure>
   <crystal>
    <varray name="basis" >
     <v>      14.23201147       0.00000000       0.00000000 </v>
     <v>       0.00000000      12.32425648       0.00000000 </v>
     <v>       0.00000000       0.00000000      15.00000000 </v>
    </varray>
    <i name="volume">   2630.98439247 </i>
    <varray name="rec_basis" >
     <v>       0.07026414       0.00000000       0.00000000 </v>
     <v>       0.00000000       0.08114080       0.00000000 </v>
     <v>       0.00000000       0.00000000       0.06666667 </v>
    </varray>
   </crystal>
   <varray name="positions" >
    <v>       0.06553435       0.40427477       0.13332677 </v>
    <v>       0.98075338       0.23451361       0.13331037 </v>
    <v>       0.22597981       0.39801380       0.13332773 </v>
    <v>       0.81572440       0.57611437       0.13353952 </v>
    <v>       0.15031033       0.23450530       0.13330422 </v>
    <v>       0.90510159       0.39801885       0.13332921 </v>
    <v>       0.56564050       0.40040631       0.13328332 </v>
    <v>       0.48003865       0.23346376       0.13318778 </v>
    <v>       0.72692528       0.39804241       0.13349541 </v>
    <v>       0.31525735       0.57619554       0.13353354 </v>
    <v>       0.65112582       0.23339801       0.13318388 </v>
    <v>       0.40426518       0.39819523       0.13353256 </v>
    <v>       0.81588676       0.90519824       0.13322208 </v>
    <v>       0.73326358       0.73620730       0.13336175 </v>
    <v>       0.97649460       0.89849890       0.13331319 </v>
    <v>       0.90125352       0.73426489       0.13316985 </v>
    <v>       0.65447846       0.89864174       0.13352317 </v>
    <v>       0.31500048       0.90539720       0.13319955 </v>
    <v>       0.22963186       0.73434124       0.13315712 </v>
    <v>       0.47638493       0.89885241       0.13350440 </v>
    <v>       0.39749298       0.73650217       0.13327874 </v>
    <v>       0.15438514       0.89855226       0.13332970 </v>
    <v>       0.06547650       0.07688606       0.13331077 </v>
    <v>       0.56552692       0.07641258       0.13331994 </v>
    <v>       0.98386244       0.45672124       0.13331326 </v>
    <v>       0.90055140       0.29007781       0.13327366 </v>
    <v>       0.14722060       0.45671011       0.13329989 </v>
    <v>       0.14877962       0.12684563       0.13328046 </v>
    <v>       0.98218591       0.12684026       0.13328985 </v>
    <v>       0.23055847       0.29006175       0.13327719 </v>
    <v>       0.06553148       0.29123237       0.13335780 </v>
    <v>       0.81518764       0.45793367       0.13338298 </v>
    <v>       0.48475873       0.45488599       0.13370962 </v>
    <v>       0.40070400       0.29040699       0.13360081 </v>
    <v>       0.64647738       0.45485145       0.13367110 </v>
    <v>       0.64916535       0.12612023       0.13342238 </v>
    <v>       0.48191185       0.12619875       0.13341188 </v>
    <v>       0.73051405       0.29024618       0.13358353 </v>
    <v>       0.56558545       0.28959918       0.13257303 </v>
    <v>       0.31594145       0.45802357       0.13339989 </v>
    <v>       0.73353603       0.95620472       0.13361884 </v>
    <v>       0.65204246       0.78989747       0.13371032 </v>
    <v>       0.89718832       0.95711427       0.13345142 </v>
    <v>       0.89840895       0.62651493       0.13351364 </v>
    <v>       0.73292759       0.62819422       0.13384023 </v>
    <v>       0.98073086       0.78993540       0.13338815 </v>
    <v>       0.81646848       0.79172269       0.13263157 </v>
    <v>       0.56546076       0.95729167       0.13336204 </v>
    <v>       0.23366864       0.95721168       0.13347944 </v>
    <v>       0.15014481       0.78997078       0.13344355 </v>
    <v>       0.39733713       0.95643164       0.13364259 </v>
    <v>       0.39786224       0.62842789       0.13379578 </v>
    <v>       0.23257092       0.62658782       0.13355894 </v>
    <v>       0.47871181       0.79019977       0.13364882 </v>
    <v>       0.31438445       0.79190091       0.13250559 </v>
    <v>       0.06544434       0.95785848       0.13330900 </v>
    <v>       0.56440047       0.62438613       0.13741818 </v>
   </varray>
  </structure>
  <varray name="forces" >
   <v>      -0.00034077      -0.00298378      -0.00103270 </v>
   <v>       0.01662493       0.00635604      -0.00079932 </v>
   <v>      -0.03486391      -0.01686773       0.00026614 </v>
   <v>       0.36193162      -0.09767730       0.00157084 </v>
   <v>      -0.01605143       0.01155870      -0.00130545 </v>
   <v>       0.04287483      -0.01381096       0.00033037 </v>
   <v>      -0.00408720      -0.09890633      -0.00813630 </v>
   <v>      -0.05120425      -0.02609724      -0.00185766 </v>
   <v>       0.27386764      -0.27557521       0.00132806 </v>
   <v>      -0.40962105      -0.11067644       0.00147872 </v>
   <v>       0.04808032      -0.03596096      -0.00226055 </v>
   <v>      -0.28325890      -0.29856678       0.00060658 </v>
   <v>      -0.00960298       0.04954160       0.00075642 </v>
   <v>       0.10057752       0.03646408      -0.00601618 </v>
   <v>      -0.06979991      -0.03667270       0.00221063 </v>
   <v>       0.05239579      -0.01466750      -0.00413219 </v>
   <v>       0.10066076       0.36095406       0.00035200 </v>
   <v>       0.00342117       0.05350417      -0.00103354 </v>
   <v>      -0.05751055      -0.02471785      -0.00292889 </v>
   <v>      -0.10494024       0.39175424       0.00050926 </v>
   <v>      -0.08422352       0.02596736      -0.00875450 </v>
   <v>       0.06233763      -0.04604089       0.00230025 </v>
   <v>      -0.00261520       0.06950676      -0.00182142 </v>
   <v>      -0.00407438       0.05628984       0.00439841 </v>
   <v>       0.01080080      -0.09733855      -0.00244381 </v>
   <v>       0.09847778       0.04891412      -0.00449983 </v>
   <v>      -0.00448815      -0.09971529      -0.00308706 </v>
   <v>      -0.08546244       0.05475634      -0.00491801 </v>
   <v>       0.08559391       0.05720378      -0.00377495 </v>
   <v>      -0.09619786       0.04661319      -0.00448432 </v>
   <v>       0.00138556       0.00433050       0.00575254 </v>
   <v>       0.02169691      -0.00967062       0.00862192 </v>
   <v>       0.29753293      -0.20447861      -0.00801780 </v>
   <v>       0.04308418      -0.11190552       0.00228591 </v>
   <v>      -0.29298041      -0.21046855      -0.00730738 </v>
   <v>      -0.07775689       0.09056075       0.00208034 </v>
   <v>       0.07991914       0.08271785       0.00256414 </v>
   <v>      -0.05072884      -0.10839349       0.00294579 </v>
   <v>       0.00590884      -0.05162892      -0.01194200 </v>
   <v>      -0.02281483      -0.01113463       0.00837949 </v>
   <v>       0.10961774      -0.00333042       0.00075021 </v>
   <v>       0.30983264      -0.14212479      -0.00407715 </v>
   <v>      -0.03332422      -0.09667197       0.00752666 </v>
   <v>       0.06047593       0.09905701       0.00048572 </v>
   <v>       0.04550387       0.33360825      -0.00268058 </v>
   <v>      -0.10936846       0.04111528       0.00147405 </v>
   <v>       0.04630619       0.02340058      -0.01335521 </v>
   <v>      -0.00316173       0.02348405       0.00742193 </v>
   <v>       0.02953958      -0.10018574       0.00752566 </v>
   <v>       0.10495127       0.03952513       0.00304704 </v>
   <v>      -0.12959643       0.00609278       0.00216770 </v>
   <v>      -0.02275487       0.37102591      -0.00656677 </v>
   <v>      -0.08429683       0.10189193       0.00177993 </v>
   <v>      -0.33296688      -0.17807573      -0.00706105 </v>
   <v>      -0.05799343       0.03462443      -0.01669991 </v>
   <v>      -0.00099923      -0.00041288      -0.00095609 </v>
   <v>       0.12368629       0.00393865       0.06103391 </v>
  </varray>
  <varray name="stress" >
   <v>      -0.36924051      -0.10023142       0.00774413 </v>
   <v>      -0.10023141      -0.39586489      -0.00010979 </v>
   <v>       0.00774413      -0.00010979     -12.51762299 </v>
  </varray>
  <energy>
   <i name="e_fr_energy">   -472.81587466 </i>
   <i name="e_wo_entrp">   -472.74263097 </i>
   <i name="e_0_energy">   -472.77925282 </i>
  </energy>
  <time name="totalsc">   10.51   10.63</time>
 </calculation>
 <calculation>
  <scstep>
   <time name="dav">    1.43    1.44</time>
   <time name="total">    1.50    1.51</time>
   <dipole>
    <v name="dipole">      0.00000000       0.00000000       0.00326721 </v>
    <i name="Tr[quadrupol]">  -8112.00761420 </i>
    <i name="Echarged">      0.00000000 </i>
    <i name="Edipol_quadrupol">      0.00000000 </i>
    <i name="Eion">      0.00000000 </i>
   </dipole>
   <energy>
    <i name="alphaZ">    127.81327981 </i>
    <i name="ewald">  27887.63681643 </i>
    <i name="hartreedc"> -39133.89509059 </i>
    <i name="XCdc">    978.02877569 </i>
    <i name="pawpsdc">  28587.35387293 </i>
    <i name="pawaedc"> -28604.01361794 </i>
    <i name="eentropy">     -0.07243438 </i>
    <i name="bandstr">  -3347.19617630 </i>
    <i name="atom">  13031.51187854 </i>
    <i name="e_fr_energy">   -472.83269580 </i>
[...]
   <i name="e_0_energy">   -476.19895185 </i>
  </energy>
  <time name="totalsc">   18.44   18.63</time>
 </calculation>
 <calculation>
  <scstep>
   <time name="dav">    1.47    1.49</time>
   <time name="total">    1.55    1.57</time>
   <dipole>
    <v name="dipole">      0.00000000       0.00000000       0.11347631 </v>
    <i name="Tr[quadrupol]">  -7371.34323636 </i>
    <i name="Echarged">      0.00000000 </i>
    <i name="Edipol_quadrupol">      0.00000000 </i>
    <i name="Eion">      0.00000000 </i>
   </dipole>
   <energy>
    <i name="alphaZ">    138.70215377 </i>
    <i name="ewald">  27555.16115208 </i>
    <i name="hartreedc"> -38733.99337814 </i>
    <i name="XCdc">    976.92127563 </i>
    <i name="pawpsdc">  28550.65296158 </i>
    <i name="pawaedc"> -28566.28207345 </i>
    <i name="eentropy">     -0.06037033 </i>
    <i name="bandstr">  -3428.83197108 </i>
    <i name="atom">  13031.51187854 </i>
    <i name="e_fr_energy">   -476.21837140 </i>
    <i name="e_wo_entrp">   -476.15800107 </i>
    <i name="e_0_energy">   -476.18818623 </i>
   </energy>
  </scstep>
  <scstep>
   <time name="dav">    1.59    1.60</time>
   <time name="total">    1.67    1.69</time>
   <dipole>
    <v name="dipole">      0.00000000       0.00000000       0.11550869 </v>
    <i name="Tr[quadrupol]">  -7371.38766725 </i>
    <i name="Echarged">      0.00000000 </i>
    <i name="Edipol_quadrupol">      0.00000000 </i>
    <i name="Eion">      0.00000000 </i>
   </dipole>
   <energy>
    <i name="e_fr_energy">   -476.25014603 </i>
    <i name="e_wo_entrp">   -476.19336741 </i>
    <i name="e_0_energy">   -476.22175672 </i>
   </energy>
  </scstep>
  <scstep>
   <time name="dav">    1.69    1.70</time>
   <time name="total">    1.77    1.78</time>
   <dipole>
    <v name="dipole">      0.00000000       0.00000000       0.11659437 </v>
    <i name="Tr[quadrupol]">  -7371.41063964 </i>
    <i name="Echarged">      0.00000000 </i>
    <i name="Edipol_quadrupol">      0.00000000 </i>
    <i name="Eion">      0.00000000 </i>
   </dipole>
   <energy>
    <i name="e_fr_energy">   -476.24833163 </i>
    <i name="e_wo_entrp">   -476.19024847 </i>
    <i name="e_0_energy">   -476.21929005 </i>
   </energy>
  </scstep>
  <scstep>
   <time name="dav">    1.60    1.62</time>
   <time name="total">    1.68    1.70</time>
   <dipole>
    <v name="dipole">      0.00000000       0.00000000       0.11691285 </v>
    <i name="Tr[quadrupol]">  -7371.41386681 </i>
    <i name="Echarged">      0.00000000 </i>
    <i name="Edipol_quadrupol">      0.00000000 </i>
    <i name="Eion">      0.00000000 </i>
   </dipole>
   <energy>
    <i name="e_fr_energy">   -476.24833799 </i>
    <i name="e_wo_entrp">   -476.19137266 </i>
    <i name="e_0_energy">   -476.21985532 </i>
   </energy>
  </scstep>
  <scstep>
   <time name="dav">    1.60    1.62</time>
   <time name="total">    1.68    1.70</time>
   <dipole>
    <v name="dipole">      0.00000000       0.00000000       0.11758186 </v>
    <i name="Tr[quadrupol]">  -7371.41592633 </i>
    <i name="Echarged">      0.00000000 </i>
    <i name="Edipol_quadrupol">      0.00000000 </i>
    <i name="Eion">      0.00000000 </i>
   </dipole>
   <energy>
    <i name="e_fr_energy">   -476.24862263 </i>
    <i name="e_wo_entrp">   -476.19054591 </i>
    <i name="e_0_energy">   -476.21958427 </i>
   </energy>
  </scstep>
  <scstep>
   <time name="dav">    1.59    1.60</time>
   <time name="total">    1.67    1.68</time>
   <dipole>
    <v name="dipole">      0.00000000       0.00000000       0.11777548 </v>
    <i name="Tr[quadrupol]">  -7371.39522562 </i>
    <i name="Echarged">      0.00000000 </i>
    <i name="Edipol_quadrupol">      0.00000000 </i>
    <i name="Eion">      0.00000000 </i>
   </dipole>
   <energy>
    <i name="e_fr_energy">   -476.24868901 </i>
    <i name="e_wo_entrp">   -476.19113949 </i>
    <i name="e_0_energy">   -476.21991425 </i>
   </energy>
  </scstep>
  <scstep>
   <time name="dav">    1.37    1.39</time>
   <time name="total">    1.45    1.47</time>
   <dipole>
    <v name="dipole">      0.00000000       0.00000000       0.11792034 </v>
    <i name="Tr[quadrupol]">  -7371.37405152 </i>
    <i name="Echarged">      0.00000000 </i>
    <i name="Edipol_quadrupol">      0.00000000 </i>
    <i name="Eion">      0.00000000 </i>
   </dipole>
   <energy>
    <i name="e_fr_energy">   -476.24870665 </i>
    <i name="e_wo_entrp">   -476.19104183 </i>
    <i name="e_0_energy">   -476.21987424 </i>
   </energy>
  </scstep>
  <scstep>
   <time name="dav">    1.11    1.12</time>
   <time name="total">    1.19    1.21</time>
   <dipole>
    <v name="dipole">      0.00000000       0.00000000       0.11820090 </v>
    <i name="Tr[quadrupol]">  -7371.37561667 </i>
    <i name="Echarged">      0.00000000 </i>
    <i name="Edipol_quadrupol">      0.00000000 </i>
    <i name="Eion">      0.00000000 </i>
   </dipole>
   <energy>
    <i name="e_fr_energy">   -476.24873047 </i>
    <i name="e_wo_entrp">   -476.19105561 </i>
    <i name="e_0_energy">   -476.21989304 </i>
   </energy>
  </scstep>
  <scstep>
   <time name="dav">    1.10    1.11</time>
   <time name="total">    1.17    1.18</time>
   <dipole>
    <v name="dipole">      0.00000000       0.00000000       0.11839454 </v>
    <i name="Tr[quadrupol]">  -7371.37660244 </i>
    <i name="Echarged">      0.00000000 </i>
    <i name="Edipol_quadrupol">      0.00000000 </i>
    <i name="Eion">      0.00000000 </i>
   </dipole>
   <energy>
    <i name="e_fr_energy">   -476.24874530 </i>
    <i name="e_wo_entrp">   -476.19107130 </i>
    <i name="e_0_energy">   -476.21990830 </i>
   </energy>
  </scstep>
  <scstep>
   <time name="dav">    1.07    1.08</time>
   <time name="total">    1.15    1.16</time>
   <dipole>
    <v name="dipole">      0.00000000       0.00000000       0.11859582 </v>
    <i name="Tr[quadrupol]">  -7371.37768622 </i>
    <i name="Echarged">      0.00000000 </i>
    <i name="Edipol_quadrupol">      0.00000000 </i>
    <i name="Eion">      0.00000000 </i>
   </dipole>
   <energy>
    <i name="e_fr_energy">   -476.24876197 </i>
    <i name="e_wo_entrp">   -476.19109300 </i>
    <i name="e_0_energy">   -476.21992749 </i>
   </energy>
  </scstep>
  <scstep>
   <time name="dav">    1.13    1.14</time>
   <time name="total">    1.21    1.23</time>
   <dipole>
    <v name="dipole">      0.00000000       0.00000000       0.11886564 </v>
    <i name="Tr[quadrupol]">  -7371.37923689 </i>
    <i name="Echarged">      0.00000000 </i>
    <i name="Edipol_quadrupol">      0.00000000 </i>
    <i name="Eion">      0.00000000 </i>
   </dipole>
   <energy>
    <i name="e_fr_energy">   -476.24878168 </i>
    <i name="e_wo_entrp">   -476.19110621 </i>
    <i name="e_0_energy">   -476.21994395 </i>
   </energy>
  </scstep>
  <scstep>
   <time name="dav">    1.08    1.09</time>
   <time name="total">    1.15    1.16</time>
   <dipole>
    <v name="dipole">      0.00000000       0.00000000       0.11902136 </v>
    <i name="Tr[quadrupol]">  -7371.38021088 </i>
    <i name="Echarged">      0.00000000 </i>
    <i name="Edipol_quadrupol">      0.00000000 </i>
    <i name="Eion">      0.00000000 </i>
   </dipole>
   <energy>
    <i name="e_fr_energy">   -476.24879176 </i>
    <i name="e_wo_entrp">   -476.19112292 </i>
    <i name="e_0_energy">   -476.21995734 </i>
   </energy>
  </scstep>
  <scstep>
   <time name="dav">    1.10    1.11</time>
   <time name="total">    1.18    1.19</time>
   <dipole>
    <v name="dipole">      0.00000000       0.00000000       0.11922130 </v>
    <i name="Tr[quadrupol]">  -7371.38153057 </i>
    <i name="Echarged">      0.00000000 </i>
    <i name="Edipol_quadrupol">      0.00000000 </i>
    <i name="Eion">      0.00000000 </i>
   </dipole>
   <energy>
    <i name="e_fr_energy">   -476.24880246 </i>
    <i name="e_wo_entrp">   -476.19113258 </i>
    <i name="e_0_energy">   -476.21996752 </i>
   </energy>
  </scstep>
  <scstep>
   <time name="dav">    1.08    1.09</time>
   <time name="total">    1.12    1.13</time>
   <dipole>
    <v name="dipole">      0.00000000       0.00000000       0.11934488 </v>
    <i name="Tr[quadrupol]">  -7371.38241807 </i>
    <i name="Echarged">      0.00000000 </i>
    <i name="Edipol_quadrupol">      0.00000000 </i>
    <i name="Eion">      0.00000000 </i>
   </dipole>
   <energy>
    <i name="alphaZ">    138.92142683 </i>
    <i name="ewald">  27555.16115208 </i>
    <i name="hartreedc"> -38736.28895582 </i>
    <i name="XCdc">    977.01038327 </i>
    <i name="pawpsdc">  28547.76550914 </i>
    <i name="pawaedc"> -28563.41416985 </i>
    <i name="eentropy">     -0.05766924 </i>
    <i name="bandstr">  -3426.85836240 </i>
    <i name="atom">  13031.51187854 </i>
    <i name="e_fr_energy">   -476.24880745 </i>
    <i name="e_wo_entrp">   -476.19113822 </i>
    <i name="e_0_energy">   -476.21997284 </i>
   </energy>
  </scstep>
  <structure>
   <crystal>
    <varray name="basis" >
     <v>      13.76284534       0.00000000       0.00000000 </v>
     <v>       0.00000000      11.72507613       0.00000000 </v>
     <v>       0.00000000       0.00000000      15.00000000 </v>
    </varray>
    <i name="volume">   2420.55614135 </i>
    <varray name="rec_basis" >
     <v>       0.07265939       0.00000000       0.00000000 </v>
     <v>       0.00000000       0.08528729       0.00000000 </v>
     <v>       0.00000000       0.00000000       0.06666667 </v>
    </varray>
   </crystal>
   <varray name="positions" >
    <v>       0.06902846       0.39517770       0.12437963 </v>
    <v>       0.98350392       0.22778457       0.07143971 </v>
    <v>       0.23040103       0.40001793       0.10019144 </v>
    <v>       0.81658175       0.56867234       0.12550628 </v>
    <v>       0.15899902       0.23235407       0.07074206 </v>
    <v>       0.90650980       0.38958447       0.11149884 </v>
    <v>       0.57040477       0.38726749       0.09610462 </v>
    <v>       0.47468939       0.23830262       0.15935504 </v>
    <v>       0.73027051       0.38937623       0.13004105 </v>
    <v>       0.31152760       0.58589872       0.11485779 </v>
    <v>       0.64815328       0.23902363       0.18558925 </v>
    <v>       0.40593721       0.40094160       0.10650868 </v>
    <v>       0.81901231       0.90588670       0.16528493 </v>
    <v>       0.73604302       0.72678063       0.17202143 </v>
    <v>       0.97723706       0.90226949       0.12920198 </v>
    <v>       0.89929358       0.73417727       0.11213328 </v>
    <v>       0.65423919       0.89677389       0.17648706 </v>
    <v>       0.31081039       0.91261324       0.18537030 </v>
    <v>       0.22366766       0.73878315       0.16354035 </v>
    <v>       0.47343948       0.90035009       0.16811184 </v>
    <v>       0.38746708       0.75604233       0.10837320 </v>
    <v>       0.14923364       0.90757099       0.16937283 </v>
    <v>       0.07385185       0.06943950       0.08741492 </v>
    <v>       0.55963744       0.07773988       0.19210282 </v>
    <v>       0.98392239       0.44280657       0.14452040 </v>
    <v>       0.90051107       0.28800145       0.07086036 </v>
    <v>       0.15299380       0.44511770       0.14007848 </v>
    <v>       0.16067226       0.11806964       0.07345556 </v>
    <v>       0.98813775       0.11494798       0.06405612 </v>
    <v>       0.23663229       0.29801732       0.05942381 </v>
    <v>       0.06992497       0.28616065       0.08780226 </v>
    <v>       0.81834508       0.44991897       0.12196463 </v>
    <v>       0.48833428       0.43891252       0.06689436 </v>
    <v>       0.39657185       0.30458040       0.15269311 </v>
    <v>       0.65717878       0.43202354       0.07959450 </v>
    <v>       0.64104006       0.13301657       0.21544895 </v>
    <v>       0.47416619       0.12780093       0.17346144 </v>
    <v>       0.73007313       0.30070074       0.18554752 </v>
    <v>       0.56505338       0.28990164       0.14730123 </v>
    <v>       0.31751320       0.46544180       0.10108444 </v>
    <v>       0.73457551       0.95953099       0.16602697 </v>
    <v>       0.65147451       0.78168375       0.18159887 </v>
    <v>       0.90384584       0.96137352       0.16228635 </v>
    <v>       0.88892311       0.62667013       0.08624156 </v>
    <v>       0.73722091       0.61308881       0.16509625 </v>
    <v>       0.97628968       0.79828407       0.09257750 </v>
    <v>       0.82335532       0.78550476       0.16443808 </v>
    <v>       0.56421484       0.95631959       0.18317173 </v>
    <v>       0.22783142       0.96901861       0.19302262 </v>
    <v>       0.14236131       0.79335227       0.18199752 </v>
    <v>       0.39877145       0.94435902       0.21281044 </v>
    <v>       0.38587975       0.64773621       0.08061616 </v>
    <v>       0.23652769       0.62590578       0.16070606 </v>
    <v>       0.47142038       0.81432665       0.10780601 </v>
    <v>       0.30590342       0.80521409       0.14291204 </v>
    <v>       0.06968064       0.96141615       0.12954977 </v>
    <v>       0.56287071       0.62947123       0.08553558 </v>
   </varray>
  </structure>
  <varray name="forces" >
   <v>      -0.37578041      -0.20333238       0.00339652 </v>
   <v>      -0.08209768      -0.32461020       0.06446918 </v>
   <v>      -0.21439938      -0.27122755      -0.03463460 </v>
   <v>      -0.13729739       0.27604703       0.03725345 </v>
   <v>      -0.25648196      -0.52407561       0.02696329 </v>
   <v>      -0.12119548      -0.15835813      -0.17016695 </v>
   <v>      -0.13848459       0.09626530       0.02519692 </v>
   <v>       0.15543475      -0.03133953      -0.07401765 </v>
   <v>      -0.02826071       0.00774881      -0.14489080 </v>
   <v>       0.12498136       0.02026782       0.03328610 </v>
   <v>      -0.09757764      -0.01700516      -0.10809961 </v>
   <v>       0.04001934      -0.10426191       0.14793393 </v>
   <v>       0.05550431       0.21156203      -0.04561090 </v>
   <v>      -0.20389589      -0.16286936      -0.05743573 </v>
   <v>      -0.05509355      -0.08811751       0.03408757 </v>
   <v>       0.01894546       0.08012590      -0.00743201 </v>
   <v>       0.03792740       0.15455098       0.11269995 </v>
   <v>       0.05147996      -0.16979546      -0.01241689 </v>
   <v>       0.02706711      -0.12055638      -0.20499470 </v>
   <v>      -0.06951872       0.14404850      -0.03629954 </v>
   <v>       0.21945201       0.15027059       0.02617833 </v>
   <v>       0.21385122       0.14451399      -0.13993085 </v>
   <v>       0.12894636       0.07965209       0.00784449 </v>
   <v>      -0.08448616       0.15945019      -0.05753337 </v>
   <v>       0.34048429      -0.01163017       0.11287757 </v>
   <v>      -0.05277030       0.06255309       0.12113335 </v>
   <v>       0.31027006      -0.02504866      -0.08927097 </v>
   <v>       0.07861348       0.20263870       0.05673124 </v>
   <v>      -0.32509005       0.18061060       0.04816687 </v>
   <v>       0.18509989       0.25774298       0.06808477 </v>
   <v>       0.03176003       0.01956732       0.05908444 </v>
   <v>       0.15397840      -0.22177855      -0.18287563 </v>
   <v>      -0.01188242       0.05736039       0.40645661 </v>
   <v>      -0.14593108       0.06341354      -0.06830177 </v>
   <v>      -0.01566736      -0.07375200       0.07944276 </v>
   <v>       0.16465035       0.11812622       0.16132189 </v>
   <v>       0.06606157      -0.22868576       0.04210429 </v>
   <v>       0.02253927      -0.00840431      -0.15291549 </v>
   <v>       0.12493483       0.13012909      -0.32519156 </v>
   <v>      -0.05201871      -0.05265376       0.09673993 </v>
   <v>       0.00355080      -0.14600218       0.13282069 </v>
   <v>      -0.05970302      -0.04892463       0.27663454 </v>
   <v>      -0.14164926      -0.07468762       0.12621912 </v>
   <v>       0.19174322      -0.06108297       0.25708032 </v>
   <v>      -0.00207967       0.32953962      -0.06062179 </v>
   <v>       0.03308744      -0.08934777      -0.17113933 </v>
   <v>      -0.24725053       0.02605167      -0.33119494 </v>
   <v>       0.02418592       0.09689183      -0.00021465 </v>
   <v>       0.01857898      -0.03262287      -0.01392774 </v>
   <v>       0.03695967      -0.19908650      -0.18207815 </v>
   <v>      -0.01610581       0.03291412       0.07690764 </v>
   <v>      -0.04658585      -0.10518858       0.12832780 </v>
   <v>      -0.01914568       0.03553027      -0.10144612 </v>
   <v>      -0.01786780       0.22119269       0.18418304 </v>
   <v>       0.08228771       0.09945401      -0.01928851 </v>
   <v>       0.01170873       0.04564717      -0.16011762 </v>
   <v>       0.06421315       0.05057898      -0.00157872 </v>
  </varray>
  <varray name="stress" >
   <v>      -0.36022458       5.41278261       0.23458529 </v>
   <v>       5.41278260       0.32755517       0.36260510 </v>
   <v>       0.23458527       0.36260506     -11.08830019 </v>
  </varray>
  <energy>
   <i name="e_fr_energy">   -476.24880745 </i>
   <i name="e_wo_entrp">   -476.19113822 </i>
   <i name="e_0_energy">   -476.21997284 </i>
  </energy>
  <time name="totalsc">   20.89   21.12</time>
 </calculation>
 <calculation>
  <scstep>
   <time name="dav">    1.48    1.50</time>
   <time name="total">    1.56    1.58</time>
   <dipole>
    <v name="dipole">      0.00000000       0.00000000       0.11939147 </v>
    <i name="Tr[quadrupol]">  -7372.80633364 </i>
    <i name="Echarged">      0.00000000 </i>
    <i name="Edipol_quadrupol">      0.00000000 </i>
    <i name="Eion">      0.00000000 </i>
   </dipole>
   <energy>
    <i name="alphaZ">    138.86074803 </i>
    <i name="ewald">  27548.94408209 </i>
    <i name="hartreedc"> -38727.94851654 </i>
    <i name="XCdc">    976.95608517 </i>
    <i name="pawpsdc">  28547.76353578 </i>
    <i name="pawaedc"> -28563.41220679 </i>
    <i name="eentropy">     -0.06303268 </i>
    <i name="bandstr">  -3428.88160735 </i>
    <i name="atom">  13031.51187854 </i>
    <i name="e_fr_energy">   -476.26903376 </i>
    <i name="e_wo_entrp">   -476.20600107 </i>
    <i name="e_0_energy">   -476.23751742 </i>
   </energy>
  </scstep>
  <scstep>
   <time name="dav">    1.62    1.62</time>
   <time name="total">    1.69    1.71</time>
   <dipole>
    <v name="dipole">      0.00000000       0.00000000       0.12238512 </v>
    <i name="Tr[quadrupol]">  -7372.85519568 </i>
    <i name="Echarged">      0.00000000 </i>
    <i name="Edipol_quadrupol">      0.00000000 </i>
    <i name="Eion">      0.00000000 </i>
   </dipole>
   <energy>
    <i name="e_fr_energy">   -476.29710906 </i>
    <i name="e_wo_entrp">   -476.23890673 </i>
    <i name="e_0_energy">   -476.26800789 </i>
   </energy>
  </scstep>
  <scstep>
   <time name="dav">    1.66    1.67</time>
   <time name="total">    1.74    1.75</time>
   <dipole>
    <v name="dipole">      0.00000000       0.00000000       0.12417812 </v>
    <i name="Tr[quadrupol]">  -7372.85715964 </i>
    <i name="Echarged">      0.00000000 </i>
    <i name="Edipol_quadrupol">      0.00000000 </i>
    <i name="Eion">      0.00000000 </i>
   </dipole>
   <energy>
    <i name="e_fr_energy">   -476.29529550 </i>
    <i name="e_wo_entrp">   -476.23459214 </i>
    <i name="e_0_energy">   -476.26494382 </i>
   </energy>
  </scstep>
  <scstep>
   <time name="dav">    1.61    1.63</time>
   <time name="total">    1.69    1.71</time>
   <dipole>
    <v name="dipole">      0.00000000       0.00000000       0.12530142 </v>
    <i name="Tr[quadrupol]">  -7372.86067094 </i>
    <i name="Echarged">      0.00000000 </i>
    <i name="Edipol_quadrupol">      0.00000000 </i>
    <i name="Eion">      0.00000000 </i>
   </dipole>
   <energy>
    <i name="e_fr_energy">   -476.29524908 </i>
    <i name="e_wo_entrp">   -476.23649453 </i>
    <i name="e_0_energy">   -476.26587181 </i>
   </energy>
  </scstep>
  <scstep>
