slab_Cel1-OPT                           
           1
    14.206064    0.000000    0.000000
     0.000000   12.301944    0.000000
     0.000000    0.000000   15.000000
   C    N    Ag
    24    32     1
Direct configuration=     1
   0.06552924  0.40428224  0.13332883
   0.98073506  0.23448653  0.13331251
   0.22596849  0.39800742  0.13332693
   0.81567713  0.57598150  0.13353271
   0.15032739  0.23448907  0.13330756
   0.90510567  0.39801215  0.13332888
   0.56563600  0.40060460  0.13329290
   0.48003275  0.23339915  0.13319118
   0.72699959  0.39816605  0.13349143
   0.31530345  0.57604443  0.13352705
   0.65113845  0.23332886  0.13318734
   0.40417946  0.39830929  0.13352891
   0.81593183  0.90524123  0.13322179
   0.73312683  0.73613388  0.13336762
   0.97653404  0.89849251  0.13330997
   0.90130094  0.73428418  0.13317397
   0.65436077  0.89869394  0.13351908
   0.31496386  0.90544683  0.13320054
   0.22958188  0.73436464  0.13316012
   0.47652118  0.89889576  0.13350049
   0.39765408  0.73641312  0.13329011
   0.15435104  0.89855068  0.13332563
   0.06547629  0.07689847  0.13331367
   0.56552517  0.07636274  0.13331407
   0.98386097  0.45673230  0.13331657
   0.90051323  0.29005212  0.13328011
   0.14721891  0.45673085  0.13330434
   0.14879978  0.12682943  0.13328696
   0.98217053  0.12681964  0.13329527
   0.23059373  0.29004466  0.13328360
   0.06553126  0.29123103  0.13334958
   0.81521451  0.45792350  0.13337048
   0.48537906  0.45596222  0.13372761
   0.40076577  0.29045513  0.13359709
   0.64589040  0.45583435  0.13368861
   0.64915874  0.12611856  0.13341956
   0.48192703  0.12618043  0.13340833
   0.73044688  0.29029081  0.13357859
   0.56559013  0.28963346  0.13259239
   0.31590167  0.45800614  0.13338786
   0.73355117  0.95613998  0.13361729
   0.65156945  0.78886389  0.13372214
   0.89721800  0.95709144  0.13344107
   0.89834841  0.62653391  0.13351279
   0.73194305  0.62829732  0.13384847
   0.98071775  0.78992791  0.13338564
   0.81644402  0.79170529  0.13265331
   0.56546383  0.95729815  0.13335126
   0.23365512  0.95719332  0.13346882
   0.15016184  0.78998079  0.13343866
   0.39733392  0.95635363  0.13363927
   0.39900206  0.62855329  0.13381154
   0.23263864  0.62660872  0.13355684
   0.47919533  0.78908611  0.13366660
   0.31441659  0.79189183  0.13253209
   0.06544380  0.95787743  0.13331123
   0.56413024  0.62436563  0.13731276
slab_Cel1-OPT                           
           1
    14.218208    0.000000    0.000000
     0.000000   12.312387    0.000000
     0.000000    0.000000   15.000000
   C    N    Ag
    24    32     1
Direct configuration=     2
   0.06553163  0.40427874  0.13332787
   0.98074364  0.23449921  0.13331151
   0.22597379  0.39801041  0.13332730
   0.81569927  0.57604371  0.13353589
   0.15031940  0.23449667  0.13330600
   0.90510376  0.39801529  0.13332903
   0.56563811  0.40051175  0.13328842
   0.48003551  0.23342940  0.13318959
   0.72696480  0.39810816  0.13349329
   0.31528187  0.57611518  0.13353008
   0.65113254  0.23336123  0.13318572
   0.40421960  0.39825589  0.13353062
   0.81591073  0.90522110  0.13322192
   0.73319086  0.73616826  0.13336487
   0.97651558  0.89849550  0.13331148
   0.90127874  0.73427515  0.13317204
   0.65441587  0.89866950  0.13352100
   0.31498101  0.90542359  0.13320008
   0.22960528  0.73435369  0.13315871
   0.47645738  0.89887547  0.13350232
   0.39757865  0.73645481  0.13328479
   0.15436700  0.89855142  0.13332753
   0.06547639  0.07689266  0.13331231
   0.56552599  0.07638607  0.13331682
   0.98386166  0.45672712  0.13331502
   0.90053110  0.29006415  0.13327709
   0.14721970  0.45672114  0.13330226
   0.14879034  0.12683702  0.13328392
   0.98217773  0.12682930  0.13329273
   0.23057722  0.29005266  0.13328060
   0.06553136  0.29123166  0.13335343
   0.81520193  0.45792826  0.13337633
   0.48508861  0.45545831  0.13371919
   0.40073685  0.29043259  0.13359883
   0.64616523  0.45537414  0.13368042
   0.64916184  0.12611934  0.13342088
   0.48191992  0.12618901  0.13340999
   0.73047833  0.29026992  0.13358090
   0.56558794  0.28961741  0.13258333
   0.31592030  0.45801430  0.13339349
   0.73354408  0.95617029  0.13361801
   0.65179092  0.78934783  0.13371661
   0.89720410  0.95710213  0.13344591
   0.89837676  0.62652503  0.13351319
   0.73240403  0.62824904  0.13384461
   0.98072389  0.78993142  0.13338681
   0.81645547  0.79171344  0.13264313
   0.56546239  0.95729512  0.13335631
   0.23366145  0.95720192  0.13347379
   0.15015387  0.78997610  0.13344095
   0.39733543  0.95639016  0.13364082
   0.39846838  0.62849457  0.13380416
   0.23260693  0.62659893  0.13355783
   0.47896893  0.78960754  0.13365828
   0.31440154  0.79189608  0.13251969
   0.06544405  0.95786856  0.13331019
   0.56425677  0.62437523  0.13736210
slab_Cel1-OPT                           
           1
    14.232011    0.000000    0.000000
     0.000000   12.324256    0.000000
     0.000000    0.000000   15.000000
   C    N    Ag
    24    32     1
Direct configuration=     3
   0.06553435  0.40427477  0.13332677
   0.98075338  0.23451361  0.13331037
   0.22597981  0.39801380  0.13332773
   0.81572440  0.57611437  0.13353952
   0.15031033  0.23450530  0.13330422
   0.90510159  0.39801885  0.13332921
   0.56564050  0.40040631  0.13328332
   0.48003865  0.23346376  0.13318778
   0.72692528  0.39804241  0.13349541
   0.31525735  0.57619554  0.13353354
   0.65112582  0.23339801  0.13318388
   0.40426518  0.39819523  0.13353256
   0.81588676  0.90519824  0.13322208
   0.73326358  0.73620730  0.13336175
   0.97649460  0.89849890  0.13331319
   0.90125352  0.73426489  0.13316985
   0.65447846  0.89864174  0.13352317
   0.31500048  0.90539720  0.13319955
   0.22963186  0.73434124  0.13315712
   0.47638493  0.89885241  0.13350440
   0.39749298  0.73650217  0.13327874
   0.15438514  0.89855226  0.13332970
   0.06547650  0.07688606  0.13331077
   0.56552692  0.07641258  0.13331994
   0.98386244  0.45672124  0.13331326
   0.90055140  0.29007781  0.13327366
   0.14722060  0.45671011  0.13329989
   0.14877962  0.12684563  0.13328046
   0.98218591  0.12684026  0.13328985
   0.23055847  0.29006175  0.13327719
   0.06553148  0.29123237  0.13335780
   0.81518764  0.45793367  0.13338298
   0.48475873  0.45488599  0.13370962
   0.40070400  0.29040699  0.13360081
   0.64647738  0.45485145  0.13367110
   0.64916535  0.12612023  0.13342238
   0.48191185  0.12619875  0.13341188
   0.73051405  0.29024618  0.13358353
   0.56558545  0.28959918  0.13257303
   0.31594145  0.45802357  0.13339989
   0.73353603  0.95620472  0.13361884
   0.65204246  0.78989747  0.13371032
   0.89718832  0.95711427  0.13345142
   0.89840895  0.62651493  0.13351364
   0.73292759  0.62819422  0.13384023
   0.98073086  0.78993540  0.13338815
   0.81646848  0.79172269  0.13263157
   0.56546076  0.95729167  0.13336204
   0.23366864  0.95721168  0.13347944
   0.15014481  0.78997078  0.13344355
   0.39733713  0.95643164  0.13364259
   0.39786224  0.62842789  0.13379578
   0.23257092  0.62658782  0.13355894
   0.47871181  0.79019977  0.13364882
   0.31438445  0.79190091  0.13250559
   0.06544434  0.95785848  0.13330900
   0.56440047  0.62438613  0.13741818
slab_Cel1-OPT                           
           1
    14.237438    0.000000    0.000000
     0.000000   12.328800    0.000000
     0.000000    0.000000   15.000000
   C    N    Ag
    24    32     1
Direct configuration=     4
   0.06553548  0.40426983  0.13332539
   0.98077230  0.23452723  0.13330915
   0.22595394  0.39799936  0.13332817
   0.81603867  0.57605736  0.13354265
   0.15029224  0.23452091  0.13330227
   0.90513614  0.39800743  0.13332956
   0.56563834  0.40025627  0.13327424
   0.47999768  0.23345661  0.13318537
   0.72713254  0.39774333  0.13349756
   0.31490374  0.57613110  0.13353651
   0.65116232  0.23338263  0.13318114
   0.40405326  0.39787672  0.13353406
   0.81586626  0.90523393  0.13322276
   0.73338519  0.73626270  0.13335537
   0.97642559  0.89846544  0.13331583
   0.90128397  0.73424544  0.13316545
   0.65459486  0.89897409  0.13352459
   0.31501348  0.90543484  0.13319846
   0.22959787  0.73431100  0.13315397
   0.47625982  0.89921682  0.13350589
   0.39737822  0.73655182  0.13326866
   0.15444646  0.89850846  0.13333264
   0.06547438  0.07694940  0.13330853
   0.56552402  0.07648049  0.13332505
   0.98387183  0.45662464  0.13331041
   0.90064392  0.29013193  0.13326831
   0.14721733  0.45660855  0.13329621
   0.14870292  0.12690273  0.13327477
   0.98226139  0.12690094  0.13328537
   0.23046865  0.29011128  0.13327187
   0.06553269  0.29123691  0.13336463
   0.81519824  0.45792719  0.13339326
   0.48483426  0.45439103  0.13369829
   0.40072272  0.29028611  0.13360365
   0.64639639  0.45437661  0.13366046
   0.64910249  0.12620771  0.13342480
   0.48197413  0.12628332  0.13341489
   0.73049047  0.29012965  0.13358723
   0.56558907  0.28954006  0.13255822
   0.31593350  0.45801770  0.13340985
   0.73362303  0.95621947  0.13361986
   0.65243145  0.79004756  0.13370381
   0.89715236  0.95702771  0.13346024
   0.89847607  0.62660485  0.13351426
   0.73323851  0.62848618  0.13383583
   0.98064349  0.78997699  0.13339001
   0.81651380  0.79174999  0.13261500
   0.56545728  0.95731244  0.13337090
   0.23369697  0.95712051  0.13348833
   0.15022741  0.79000598  0.13344731
   0.39723019  0.95645913  0.13364522
   0.39752718  0.62874961  0.13378622
   0.23248200  0.62667992  0.13356093
   0.47830065  0.79033753  0.13363830
   0.31432728  0.79193670  0.13248504
   0.06544366  0.95785283  0.13330762
   0.56457833  0.62439560  0.13749564
slab_Cel1-OPT                           
           1
    14.241835    0.000000    0.000000
     0.000000   12.332482    0.000000
     0.000000    0.000000   15.000000
   C    N    Ag
    24    32     1
Direct configuration=     5
   0.06553640  0.40426583  0.13332426
   0.98078762  0.23453826  0.13330816
   0.22593299  0.39798766  0.13332852
   0.81629322  0.57601119  0.13354518
   0.15027759  0.23453355  0.13330068
   0.90516412  0.39799819  0.13332984
   0.56563660  0.40013475  0.13326688
   0.47996450  0.23345081  0.13318341
   0.72730043  0.39750106  0.13349931
   0.31461730  0.57607890  0.13353891
   0.65119189  0.23337018  0.13317892
   0.40388160  0.39761871  0.13353526
   0.81584966  0.90526283  0.13322331
   0.73348370  0.73630758  0.13335020
   0.97636968  0.89843833  0.13331796
   0.90130863  0.73422970  0.13316188
   0.65468915  0.89924331  0.13352574
   0.31502402  0.90546534  0.13319758
   0.22957033  0.73428650  0.13315142
   0.47615848  0.89951200  0.13350710
   0.39728526  0.73659204  0.13326050
   0.15449614  0.89847297  0.13333503
   0.06547266  0.07700071  0.13330671
   0.56552166  0.07653550  0.13332918
   0.98387944  0.45654639  0.13330810
   0.90071887  0.29017578  0.13326398
   0.14721468  0.45652627  0.13329324
   0.14864079  0.12694899  0.13327016
   0.98232254  0.12695010  0.13328173
   0.23039589  0.29015140  0.13326756
   0.06553367  0.29124058  0.13337016
   0.81520683  0.45792195  0.13340159
   0.48489544  0.45399009  0.13368911
   0.40073788  0.29018820  0.13360595
   0.64633079  0.45399198  0.13365185
   0.64905156  0.12627858  0.13342677
   0.48202459  0.12635181  0.13341732
   0.73047137  0.29003525  0.13359022
   0.56559200  0.28949218  0.13254622
   0.31592706  0.45801295  0.13341792
   0.73369351  0.95623143  0.13362069
   0.65274654  0.79016914  0.13369854
   0.89712323  0.95695760  0.13346739
   0.89853043  0.62667768  0.13351476
   0.73349036  0.62872267  0.13383226
   0.98057272  0.79001067  0.13339152
   0.81655050  0.79177212  0.13260156
   0.56545445  0.95732926  0.13337807
   0.23371992  0.95704666  0.13349554
   0.15029432  0.79003449  0.13345036
   0.39714356  0.95648140  0.13364735
   0.39725578  0.62901022  0.13377847
   0.23240997  0.62675453  0.13356255
   0.47796761  0.79044912  0.13362978
   0.31428097  0.79196568  0.13246839
   0.06544311  0.95784825  0.13330651
   0.56472240  0.62440328  0.13755841
slab_Cel1-OPT                           
           1
    14.240746    0.000000    0.000000
     0.000000   12.331595    0.000000
     0.000000    0.000000   15.000000
   C    N    Ag
    24    32     1
Direct configuration=     6
   0.06554021  0.40420101  0.13332306
   0.98085100  0.23456817  0.13330706
   0.22587211  0.39794667  0.13332887
   0.81646349  0.57605336  0.13354895
   0.15021489  0.23456204  0.13329873
   0.90523378  0.39796155  0.13333028
   0.56562957  0.39974175  0.13325139
   0.48003713  0.23340650  0.13317915
   0.72734126  0.39731404  0.13350163
   0.31442932  0.57613134  0.13354146
   0.65112237  0.23332814  0.13317413
   0.40383824  0.39742590  0.13353705
   0.81591532  0.90521714  0.13322280
   0.73378217  0.73650271  0.13333787
   0.97631597  0.89841960  0.13332125
   0.90131837  0.73433781  0.13315494
   0.65479520  0.89937206  0.13352590
   0.31493775  0.90540937  0.13319423
   0.22955790  0.73440662  0.13314555
   0.47603182  0.89964128  0.13350740
   0.39697410  0.73678478  0.13324350
   0.15454686  0.89844309  0.13333857
   0.06547256  0.07703199  0.13330356
   0.56551996  0.07665296  0.13333567
   0.98389912  0.45646097  0.13330435
   0.90080564  0.29022661  0.13325734
   0.14720364  0.45643432  0.13328866
   0.14858551  0.12702948  0.13326232
   0.98237679  0.12703001  0.13327579
   0.23031366  0.29019811  0.13326121
   0.06553514  0.29125703  0.13337867
   0.81534707  0.45783477  0.13341329
   0.48486254  0.45380415  0.13367893
   0.40063242  0.28990842  0.13361075
   0.64636727  0.45378715  0.13364232
   0.64897633  0.12630067  0.13343116
   0.48209916  0.12637594  0.13342194
   0.73056584  0.28977515  0.13359602
   0.56559316  0.28927566  0.13252787
   0.31577594  0.45791630  0.13342923
   0.73382801  0.95643475  0.13362342
   0.65287552  0.79028236  0.13369467
   0.89711647  0.95689035  0.13347907
   0.89875592  0.62671533  0.13351641
   0.73366490  0.62877438  0.13383052
   0.98051102  0.79006547  0.13339363
   0.81670281  0.79186556  0.13258112
   0.56544841  0.95750947  0.13338833
   0.23370911  0.95697541  0.13350733
   0.15034425  0.79008747  0.13345538
   0.39699794  0.95670591  0.13365219
   0.39709712  0.62904710  0.13377232
   0.23214515  0.62677955  0.13356660
   0.47784468  0.79056747  0.13362164
   0.31411684  0.79206558  0.13244338
   0.06543724  0.95785296  0.13330561
   0.56488048  0.62440884  0.13764557
slab_Cel1-OPT                           
           1
    14.239588    0.000000    0.000000
     0.000000   12.330652    0.000000
     0.000000    0.000000   15.000000
   C    N    Ag
    24    32     1
Direct configuration=     7
   0.06554425  0.40413212  0.13332179
   0.98091836  0.23459997  0.13330588
   0.22580741  0.39790310  0.13332924
   0.81664445  0.57609818  0.13355295
   0.15014825  0.23459231  0.13329665
   0.90530780  0.39792261  0.13333075
   0.56562210  0.39932410  0.13323493
   0.48011432  0.23335940  0.13317462
   0.72738465  0.39711528  0.13350409
   0.31422953  0.57618708  0.13354416
   0.65104849  0.23328346  0.13316903
   0.40379216  0.39722098  0.13353894
   0.81598510  0.90516858  0.13322225
   0.73409938  0.73671008  0.13332477
   0.97625888  0.89839969  0.13332473
   0.90132872  0.73445271  0.13314757
   0.65490792  0.89950890  0.13352608
   0.31484607  0.90534989  0.13319068
   0.22954468  0.73453427  0.13313931
   0.47589720  0.89977868  0.13350771
   0.39664341  0.73698960  0.13322543
   0.15460077  0.89841133  0.13334233
   0.06547245  0.07706523  0.13330022
   0.56551814  0.07677778  0.13334257
   0.98392003  0.45637018  0.13330037
   0.90089785  0.29028063  0.13325028
   0.14719190  0.45633660  0.13328379
   0.14852675  0.12711503  0.13325399
   0.98243445  0.12711494  0.13326948
   0.23022626  0.29024775  0.13325446
   0.06553669  0.29127452  0.13338771
   0.81549611  0.45774212  0.13342571
   0.48482758  0.45360655  0.13366811
   0.40052033  0.28961109  0.13361584
   0.64640605  0.45356947  0.13363220
   0.64889637  0.12632416  0.13343583
   0.48217842  0.12640157  0.13342684
   0.73066625  0.28949872  0.13360219
   0.56559439  0.28904555  0.13250836
   0.31561533  0.45781359  0.13344125
   0.73397095  0.95665084  0.13362632
   0.65301259  0.79040269  0.13369055
   0.89710928  0.95681888  0.13349148
   0.89899557  0.62675535  0.13351817
   0.73385039  0.62882933  0.13382867
   0.98044544  0.79012370  0.13339587
   0.81686468  0.79196488  0.13255939
   0.56544199  0.95770098  0.13339923
   0.23369763  0.95689969  0.13351986
   0.15039732  0.79014377  0.13346072
   0.39684319  0.95694451  0.13365733
   0.39692849  0.62908629  0.13376578
   0.23186371  0.62680615  0.13357092
   0.47771403  0.79069325  0.13361298
   0.31394240  0.79217174  0.13241679
   0.06543101  0.95785796  0.13330466
   0.56504849  0.62441475  0.13773819
slab_Cel1-OPT                           
           1
    14.240727    0.000000    0.000000
     0.000000   12.331600    0.000000
     0.000000    0.000000   15.000000
   C    N    Ag
    24    32     1
Direct configuration=     8
   0.06555072  0.40409362  0.13332164
   0.98095338  0.23466915  0.13330482
   0.22576919  0.39788564  0.13332921
   0.81677563  0.57610748  0.13355682
   0.15011530  0.23466168  0.13329393
   0.90535169  0.39791402  0.13333102
   0.56561999  0.39925169  0.13321593
   0.48005173  0.23319182  0.13316917
   0.72743606  0.39698482  0.13350652
   0.31411022  0.57621118  0.13354560
   0.65111102  0.23312094  0.13316275
   0.40374190  0.39709287  0.13354030
   0.81605025  0.90530485  0.13321951
   0.73415610  0.73673854  0.13331081
   0.97634567  0.89848707  0.13332866
   0.90145992  0.73443895  0.13313979
   0.65496079  0.89961455  0.13352536
   0.31477781  0.90550191  0.13318649
   0.22939148  0.73451372  0.13313258
   0.47582495  0.89986478  0.13350672
   0.39661353  0.73699349  0.13320568
   0.15448856  0.89849984  0.13334670
   0.06547123  0.07702417  0.13329556
   0.56551752  0.07673027  0.13334964
   0.98401230  0.45638956  0.13329565
   0.90095136  0.29019029  0.13324207
   0.14710380  0.45634680  0.13327796
   0.14855188  0.12711246  0.13324293
   0.98240940  0.12711449  0.13326138
   0.23017373  0.29014677  0.13324687
   0.06553735  0.29126789  0.13339889
   0.81561568  0.45766110  0.13343805
   0.48481827  0.45348644  0.13365759
   0.40041961  0.28936253  0.13362305
   0.64640468  0.45341919  0.13362162
   0.64892545  0.12627076  0.13344309
   0.48215109  0.12634753  0.13343403
   0.73076412  0.28925269  0.13361079
   0.56558738  0.28883802  0.13248267
   0.31548888  0.45772735  0.13345309
   0.73410412  0.95685143  0.13362928
   0.65311617  0.79045830  0.13368823
   0.89719118  0.95690275  0.13350778
   0.89924075  0.62680720  0.13352069
   0.73396921  0.62891002  0.13382890
   0.98054669  0.79018571  0.13339809
   0.81702918  0.79207753  0.13253079
   0.56543449  0.95783822  0.13340992
   0.23360015  0.95697931  0.13353618
   0.15028454  0.79020266  0.13346765
   0.39667881  0.95714628  0.13366428
   0.39682743  0.62914247  0.13376099
   0.23160001  0.62686523  0.13357732
   0.47760788  0.79074244  0.13360490
   0.31376592  0.79227462  0.13238230
   0.06542602  0.95786867  0.13330455
   0.56517432  0.62441879  0.13784321
slab_Cel1-OPT                           
           1
    14.241516    0.000000    0.000000
     0.000000   12.332255    0.000000
     0.000000    0.000000   15.000000
   C    N    Ag
    24    32     1
Direct configuration=     9
   0.06555520  0.40406698  0.13332154
   0.98097760  0.23471703  0.13330408
   0.22574274  0.39787357  0.13332918
   0.81686639  0.57611392  0.13355949
   0.15009251  0.23470967  0.13329205
   0.90538206  0.39790807  0.13333120
   0.56561853  0.39920160  0.13320277
   0.48000842  0.23307588  0.13316540
   0.72747163  0.39689456  0.13350820
   0.31402766  0.57622786  0.13354660
   0.65115428  0.23300850  0.13315840
   0.40370712  0.39700423  0.13354124
   0.81609532  0.90539914  0.13321762
   0.73419534  0.73675823  0.13330115
   0.97640571  0.89854753  0.13333137
   0.90155070  0.73442943  0.13313441
   0.65499738  0.89968765  0.13352486
   0.31473059  0.90560708  0.13318359
   0.22928548  0.73449950  0.13312792
   0.47577496  0.89992435  0.13350603
   0.39659286  0.73699617  0.13319201
   0.15441093  0.89856108  0.13334973
   0.06547038  0.07699576  0.13329233
   0.56551710  0.07669740  0.13335454
   0.98407613  0.45640297  0.13329239
   0.90098839  0.29012779  0.13323638
   0.14704285  0.45635385  0.13327392
   0.14856927  0.12711069  0.13323528
   0.98239207  0.12711417  0.13325578
   0.23013738  0.29007690  0.13324161
   0.06553780  0.29126331  0.13340663
   0.81569840  0.45760505  0.13344659
   0.48481183  0.45340335  0.13365032
   0.40034992  0.28919055  0.13362803
   0.64640374  0.45331521  0.13361430
   0.64894556  0.12623381  0.13344811
   0.48213217  0.12631014  0.13343900
   0.73083183  0.28908246  0.13361674
   0.56558253  0.28869443  0.13246490
   0.31540139  0.45766768  0.13346128
   0.73419626  0.95699022  0.13363133
   0.65318783  0.79049677  0.13368663
   0.89724784  0.95696078  0.13351906
   0.89941038  0.62684307  0.13352244
   0.73405141  0.62896585  0.13382906
   0.98061675  0.79022861  0.13339963
   0.81714299  0.79215547  0.13251099
   0.56542931  0.95793318  0.13341732
   0.23353270  0.95703440  0.13354748
   0.15020650  0.79024340  0.13347244
   0.39656507  0.95728588  0.13366909
   0.39675751  0.62918135  0.13375769
   0.23141756  0.62690611  0.13358176
   0.47753443  0.79077648  0.13359931
   0.31364381  0.79234581  0.13235843
   0.06542256  0.95787609  0.13330447
   0.56526138  0.62442158  0.13791588
slab_Cel1-OPT                           
           1
    14.240076    0.000000    0.000000
     0.000000   12.330878    0.000000
     0.000000    0.000000   15.000000
   C    N    Ag
    24    32     1
Direct configuration=    10
   0.06555641  0.40403402  0.13332180
   0.98102402  0.23467320  0.13330256
   0.22568228  0.39783833  0.13332890
   0.81701900  0.57614955  0.13356269
   0.15004618  0.23466321  0.13328921
   0.90544867  0.39788073  0.13333140
   0.56560778  0.39912609  0.13318190
   0.47993799  0.23293587  0.13315975
   0.72751967  0.39672337  0.13351091
   0.31387977  0.57627032  0.13354799
   0.65121876  0.23286887  0.13315271
   0.40365861  0.39683791  0.13354215
   0.81621017  0.90554326  0.13321391
   0.73426482  0.73681153  0.13328602
   0.97648740  0.89861404  0.13333588
   0.90172377  0.73449182  0.13312618
   0.65508500  0.89979513  0.13352454
   0.31459545  0.90574929  0.13317873
   0.22909810  0.73455959  0.13311992
   0.47566870  0.90002450  0.13350489
   0.39653396  0.73702178  0.13317036
   0.15431074  0.89862868  0.13335453
   0.06547040  0.07701623  0.13328658
   0.56551727  0.07663588  0.13336160
   0.98409495  0.45642519  0.13328763
   0.90099460  0.29011305  0.13322786
   0.14703047  0.45636932  0.13326751
   0.14857604  0.12709791  0.13322261
   0.98238305  0.12710491  0.13324656
   0.23013301  0.29005235  0.13323351
   0.06553815  0.29126782  0.13341901
   0.81576179  0.45757160  0.13345785
   0.48476481  0.45330808  0.13364008
   0.40026283  0.28910018  0.13363714
   0.64644701  0.45320039  0.13360350
   0.64898099  0.12606839  0.13345685
   0.48209714  0.12613949  0.13344777
   0.73092231  0.28898554  0.13362679
   0.56557702  0.28861888  0.13243619
   0.31533659  0.45763443  0.13347169
   0.73422110  0.95710857  0.13363474
   0.65324412  0.79059415  0.13368513
   0.89737633  0.95710046  0.13353753
   0.89954563  0.62680118  0.13352593
   0.73418213  0.62897021  0.13383084
   0.98076715  0.79031473  0.13340158
   0.81720970  0.79220112  0.13247992
   0.56541924  0.95794640  0.13342664
   0.23338530  0.95717074  0.13356573
   0.15003499  0.79033088  0.13347973
   0.39653138  0.95740019  0.13367770
   0.39665003  0.62916746  0.13375346
   0.23128980  0.62686135  0.13358999
   0.47748270  0.79086099  0.13359149
   0.31358115  0.79237359  0.13232117
   0.06541373  0.95792812  0.13330481
   0.56535626  0.62442173  0.13802598
slab_Cel1-OPT                           
           1
    14.238179    0.000000    0.000000
     0.000000   12.329063    0.000000
     0.000000    0.000000   15.000000
   C    N    Ag
    24    32     1
Direct configuration=    11
   0.06555801  0.40399057  0.13332215
   0.98108521  0.23461543  0.13330056
   0.22560257  0.39779189  0.13332853
   0.81722017  0.57619652  0.13356691
   0.14998511  0.23460198  0.13328545
   0.90553647  0.39784468  0.13333167
   0.56559361  0.39902655  0.13315440
   0.47984514  0.23275131  0.13315230
   0.72758301  0.39649771  0.13351448
   0.31368483  0.57632629  0.13354981
   0.65130375  0.23268481  0.13314520
   0.40359467  0.39661868  0.13354335
   0.81636157  0.90573323  0.13320902
   0.73435641  0.73688178  0.13326607
   0.97659508  0.89870171  0.13334183
   0.90195191  0.73457407  0.13311533
   0.65520050  0.89993680  0.13352413
   0.31441732  0.90593676  0.13317232
   0.22885111  0.73463880  0.13310937
   0.47552865  0.90015652  0.13350339
   0.39645630  0.73705555  0.13314183
   0.15417868  0.89871778  0.13336087
   0.06547041  0.07704321  0.13327900
   0.56551749  0.07655480  0.13337091
   0.98411974  0.45645448  0.13328135
   0.90100279  0.29009362  0.13321662
   0.14701416  0.45638970  0.13325906
   0.14858497  0.12708107  0.13320591
   0.98237115  0.12709271  0.13323442
   0.23012724  0.29001998  0.13322283
   0.06553861  0.29127378  0.13343532
   0.81584535  0.45752752  0.13347268
   0.48470283  0.45318251  0.13362657
   0.40014804  0.28898107  0.13364913
   0.64650405  0.45304903  0.13358926
   0.64902768  0.12585032  0.13346837
   0.48205096  0.12591454  0.13345932
   0.73104157  0.28885778  0.13364003
   0.56556976  0.28851928  0.13239834
   0.31525118  0.45759060  0.13348541
   0.73425385  0.95726458  0.13363924
   0.65331832  0.79072251  0.13368315
   0.89754569  0.95728459  0.13356186
   0.89972391  0.62674596  0.13353052
   0.73435443  0.62897597  0.13383320
   0.98096541  0.79042826  0.13340415
   0.81729764  0.79226129  0.13243897
   0.56540597  0.95796383  0.13343892
   0.23319099  0.95735045  0.13358978
   0.14980892  0.79044619  0.13348935
   0.39648697  0.95755086  0.13368904
   0.39650836  0.62914916  0.13374790
   0.23112141  0.62680234  0.13360085
   0.47741452  0.79097239  0.13358118
   0.31349856  0.79241020  0.13227206
   0.06540209  0.95799670  0.13330524
   0.56548134  0.62442191  0.13817109
slab_Cel1-OPT                           
           1
    14.235014    0.000000    0.000000
     0.000000   12.326470    0.000000
     0.000000    0.000000   15.000000
   C    N    Ag
    24    32     1
Direct configuration=    12
   0.06555786  0.40404472  0.13332229
   0.98102820  0.23457690  0.13329890
   0.22561347  0.39777787  0.13332814
   0.81727617  0.57617555  0.13356823
   0.15003692  0.23455630  0.13328254
   0.90552620  0.39783391  0.13333144
   0.56558859  0.39895899  0.13313634
   0.47982466  0.23268953  0.13314765
   0.72762412  0.39651066  0.13351709
   0.31363561  0.57629372  0.13355091
   0.65131805  0.23262841  0.13314168
   0.40355231  0.39664642  0.13354331
   0.81641299  0.90581755  0.13320534
   0.73442079  0.73692096  0.13325446
   0.97666667  0.89878380  0.13334646
   0.90203809  0.73459317  0.13310906
   0.65520636  0.89995507  0.13352474
   0.31435509  0.90598704  0.13316834
   0.22877094  0.73466375  0.13310076
   0.47551527  0.90017112  0.13350327
   0.39638569  0.73708708  0.13312468
   0.15409543  0.89879594  0.13336636
   0.06546540  0.07706673  0.13327277
   0.56551493  0.07641762  0.13337570
   0.98410865  0.45643974  0.13327762
   0.90103422  0.29009936  0.13320932
   0.14703048  0.45637180  0.13325322
   0.14855357  0.12705803  0.13319322
   0.98239987  0.12707290  0.13322519
   0.23009999  0.29002107  0.13321553
   0.06553890  0.29123210  0.13344701
   0.81585415  0.45752412  0.13347879
   0.48465165  0.45312239  0.13361856
   0.40014583  0.28892414  0.13365928
   0.64655511  0.45298979  0.13358025
   0.64905591  0.12576662  0.13347660
   0.48201685  0.12583320  0.13346845
   0.73104386  0.28878840  0.13365021
   0.56556809  0.28847305  0.13237110
   0.31524873  0.45758831  0.13349023
   0.73433143  0.95726191  0.13364327
   0.65335160  0.79076485  0.13368279
   0.89759202  0.95738090  0.13357960
   0.89979752  0.62681594  0.13353526
   0.73442902  0.62897836  0.13383604
   0.98103844  0.79045543  0.13340481
   0.81736071  0.79230055  0.13241021
   0.56540416  0.95787593  0.13344284
   0.23313536  0.95744111  0.13360701
   0.14972509  0.79046848  0.13349477
   0.39640487  0.95753786  0.13369785
   0.39644878  0.62913534  0.13374475
   0.23107016  0.62686696  0.13360984
   0.47739142  0.79100564  0.13357469
   0.31343604  0.79244155  0.13223814
   0.06539457  0.95809569  0.13330598
   0.56550957  0.62441819  0.13826712
slab_Cel1-OPT                           
           1
    14.233342    0.000000    0.000000
     0.000000   12.325100    0.000000
     0.000000    0.000000   15.000000
   C    N    Ag
    24    32     1
Direct configuration=    13
   0.06555778  0.40407333  0.13332236
   0.98099807  0.23455654  0.13329802
   0.22561923  0.39777046  0.13332793
   0.81730576  0.57616447  0.13356893
   0.15006429  0.23453217  0.13328100
   0.90552078  0.39782822  0.13333131
   0.56558593  0.39892331  0.13312681
   0.47981385  0.23265689  0.13314520
   0.72764584  0.39651751  0.13351847
   0.31360961  0.57627651  0.13355149
   0.65132561  0.23259862  0.13313981
   0.40352993  0.39666108  0.13354329
   0.81644016  0.90586210  0.13320339
   0.73445481  0.73694166  0.13324832
   0.97670450  0.89882718  0.13334890
   0.90208362  0.73460327  0.13310575
   0.65520946  0.89996472  0.13352506
   0.31432221  0.90601361  0.13316623
   0.22872857  0.73467693  0.13309622
   0.47550820  0.90017884  0.13350320
   0.39634838  0.73710374  0.13311562
   0.15405144  0.89883724  0.13336926
   0.06546275  0.07707916  0.13326949
   0.56551358  0.07634515  0.13337824
   0.98410278  0.45643195  0.13327565
   0.90105082  0.29010238  0.13320546