  59  59   0   0
  0.3948347E+02  0.1375970E-08  0.1128670E-08  0.1500000E-08  0.1000000E-15
  1.000000000000000E-004
  CAR 
 slab_Cel1-OPT                           
      4.19404070    -27.71407281  301     -1.94292948      1.00000000
    -27.714  0.0000E+00  0.0000E+00
    -27.608  0.0000E+00  0.0000E+00
    -27.501  0.0000E+00  0.0000E+00
    -27.395  0.0000E+00  0.0000E+00
    -27.289  0.0000E+00  0.0000E+00
    -27.182  0.0000E+00  0.0000E+00
    -27.076  0.0000E+00  0.0000E+00
    -26.970  0.0000E+00  0.0000E+00
    -26.863  0.0000E+00  0.0000E+00
    -26.757  0.7429E-14  0.7902E-15
    -26.650  0.1120E-09  0.1191E-10
    -26.544  0.1948E-06  0.2073E-07
    -26.438  0.4283E-04  0.4576E-05
    -26.331  0.1432E-02  0.1569E-03
    -26.225  0.1017E-01  0.1239E-02
    -26.119  0.2265E-01  0.3648E-02
    -26.012  0.2011E-01  0.5787E-02
    -25.906  0.1359E-01  0.7233E-02
    -25.800  0.6529E-02  0.7927E-02
    -25.693  0.6755E-03  0.7999E-02
    -25.587  0.1002E-04  0.8000E-02
    -25.481  0.2295E-07  0.8000E-02
    -25.374  0.3046E-05  0.8000E-02
    -25.268  0.2820E-03  0.8030E-02
    -25.161  0.4355E-02  0.8493E-02
    -25.055  0.1441E-01  0.1003E-01
    -24.949  0.1539E-01  0.1166E-01
    -24.842  0.1146E-01  0.1288E-01
    -24.736  0.8515E-02  0.1379E-01
    -24.630  0.9311E-02  0.1478E-01
    -24.523  0.5960E-02  0.1541E-01
    -24.417  0.8130E-03  0.1550E-01
    -24.311  0.3057E-04  0.1550E-01
    -24.204  0.4805E-03  0.1555E-01
    -24.098  0.2824E-02  0.1585E-01
    -23.991  0.9895E-02  0.1691E-01
    -23.885  0.2644E-01  0.1972E-01
    -23.779  0.2834E-01  0.2273E-01
    -23.672  0.1418E-01  0.2424E-01
    -23.566  0.2350E-02  0.2449E-01
    -23.460  0.1076E-03  0.2450E-01
    -23.353  0.7204E-03  0.2458E-01
    -23.247  0.5665E-02  0.2518E-01
    -23.141  0.1003E-01  0.2625E-01
    -23.034  0.7895E-02  0.2709E-01
    -22.928  0.9878E-02  0.2814E-01
    -22.821  0.1339E-01  0.2956E-01
    -22.715  0.1269E-01  0.3091E-01
    -22.609  0.8283E-02  0.3179E-01
    -22.502  0.1868E-02  0.3199E-01
    -22.396  0.7905E-04  0.3200E-01
    -22.290  0.1461E-05  0.3200E-01
    -22.183  0.1461E-03  0.3202E-01
    -22.077  0.3460E-02  0.3238E-01
    -21.971  0.1979E-01  0.3449E-01
    -21.864  0.3810E-01  0.3854E-01
    -21.758  0.3419E-01  0.4218E-01
    -21.652  0.2884E-01  0.4524E-01
    -21.545  0.2090E-01  0.4747E-01
    -21.439  0.4777E-02  0.4798E-01
    -21.332  0.2848E-03  0.4801E-01
    -21.226  0.1242E-02  0.4814E-01
    -21.120  0.7490E-02  0.4893E-01
    -21.013  0.1897E-01  0.5095E-01
    -20.907  0.2129E-01  0.5322E-01
    -20.801  0.1731E-01  0.5506E-01
    -20.694  0.7611E-02  0.5587E-01
    -20.588  0.3727E-02  0.5626E-01
    -20.482  0.1611E-01  0.5798E-01
    -20.375  0.2424E-01  0.6055E-01
    -20.269  0.1466E-01  0.6211E-01
    -20.162  0.1140E-01  0.6333E-01
    -20.056  0.5786E-02  0.6394E-01
    -19.950  0.5391E-03  0.6400E-01
    -19.843  0.7266E-05  0.6400E-01
    -19.737  0.1278E-07  0.6400E-01
    -19.631  0.2724E-11  0.6400E-01
    -19.524  0.6681E-16  0.6400E-01
    -19.418  0.0000E+00  0.6400E-01
    -19.312  0.0000E+00  0.6400E-01
    -19.205  0.0000E+00  0.6400E-01
    -19.099  0.0000E+00  0.6400E-01
    -18.993  0.0000E+00  0.6400E-01
    -18.886  0.0000E+00  0.6400E-01
    -18.780  0.0000E+00  0.6400E-01
    -18.673  0.0000E+00  0.6400E-01
    -18.567  0.0000E+00  0.6400E-01
    -18.461  0.0000E+00  0.6400E-01
    -18.354  0.0000E+00  0.6400E-01
    -18.248  0.0000E+00  0.6400E-01
    -18.142  0.0000E+00  0.6400E-01
    -18.035  0.5282E-14  0.6400E-01
    -17.929  0.9489E-10  0.6400E-01
    -17.823  0.1913E-06  0.6400E-01
    -17.716  0.4592E-04  0.6400E-01
    -17.610  0.1501E-02  0.6416E-01
    -17.503  0.8761E-02  0.6510E-01
    -17.397  0.1438E-01  0.6663E-01
    -17.291  0.1313E-01  0.6802E-01
    -17.184  0.1223E-01  0.6932E-01
    -17.078  0.1893E-01  0.7134E-01
    -16.972  0.2200E-01  0.7368E-01
    -16.865  0.1829E-01  0.7562E-01
    -16.759  0.1196E-01  0.7689E-01
    -16.653  0.1224E-01  0.7820E-01
    -16.546  0.9640E-02  0.7922E-01
    -16.440  0.2490E-02  0.7949E-01
    -16.334  0.2050E-03  0.7951E-01
    -16.227  0.1150E-02  0.7963E-01
    -16.121  0.2563E-02  0.7990E-01
    -16.014  0.8715E-03  0.8000E-01
    -15.908  0.4269E-04  0.8000E-01
    -15.802  0.1197E-03  0.8001E-01
    -15.695  0.3062E-02  0.8034E-01
    -15.589  0.1617E-01  0.8206E-01
    -15.483  0.2866E-01  0.8511E-01
    -15.376  0.1926E-01  0.8716E-01
    -15.270  0.5618E-02  0.8775E-01
    -15.164  0.2195E-02  0.8799E-01
    -15.057  0.1755E-02  0.8817E-01
    -14.951  0.2837E-02  0.8847E-01
    -14.844  0.2802E-02  0.8877E-01
    -14.738  0.1897E-02  0.8897E-01
    -14.632  0.5945E-03  0.8904E-01
    -14.525  0.4864E-02  0.8956E-01
    -14.419  0.1405E-01  0.9105E-01
    -14.313  0.1192E-01  0.9232E-01
    -14.206  0.1172E-01  0.9356E-01
    -14.100  0.1521E-01  0.9518E-01
    -13.994  0.1839E-01  0.9714E-01
    -13.887  0.2261E-01  0.9954E-01
    -13.781  0.2363E-01  0.1021E+00
    -13.675  0.2647E-01  0.1049E+00
    -13.568  0.2644E-01  0.1077E+00
    -13.462  0.2269E-01  0.1101E+00
    -13.355  0.2145E-01  0.1124E+00
    -13.249  0.1586E-01  0.1141E+00
    -13.143  0.6728E-02  0.1148E+00
    -13.036  0.6215E-02  0.1154E+00
    -12.930  0.7820E-02  0.1163E+00
    -12.824  0.9393E-02  0.1173E+00
    -12.717  0.7271E-02  0.1180E+00
    -12.611  0.4485E-02  0.1185E+00
    -12.505  0.5146E-02  0.1191E+00
    -12.398  0.6598E-02  0.1198E+00
    -12.292  0.7504E-02  0.1206E+00
    -12.185  0.8100E-02  0.1214E+00
    -12.079  0.1019E-01  0.1225E+00
    -11.973  0.1542E-01  0.1242E+00
    -11.866  0.1884E-01  0.1262E+00
    -11.760  0.2043E-01  0.1283E+00
    -11.654  0.2091E-01  0.1306E+00
    -11.547  0.1817E-01  0.1325E+00
    -11.441  0.1851E-01  0.1345E+00
    -11.335  0.1820E-01  0.1364E+00
    -11.228  0.1660E-01  0.1382E+00
    -11.122  0.1292E-01  0.1395E+00
    -11.015  0.9494E-02  0.1405E+00
    -10.909  0.4832E-02  0.1411E+00
    -10.803  0.7966E-02  0.1419E+00
    -10.696  0.1767E-01  0.1438E+00
    -10.590  0.1760E-01  0.1457E+00
    -10.484  0.1345E-01  0.1471E+00
    -10.377  0.1340E-01  0.1485E+00
    -10.271  0.1482E-01  0.1501E+00
    -10.165  0.1319E-01  0.1515E+00
    -10.058  0.4625E-02  0.1520E+00
     -9.952  0.2242E-02  0.1522E+00
     -9.846  0.4493E-02  0.1527E+00
     -9.739  0.9712E-02  0.1537E+00
     -9.633  0.1348E-01  0.1552E+00
     -9.526  0.2016E-01  0.1573E+00
     -9.420  0.2102E-01  0.1595E+00
     -9.314  0.1963E-01  0.1616E+00
     -9.207  0.2004E-01  0.1638E+00
     -9.101  0.2430E-01  0.1663E+00
     -8.995  0.2479E-01  0.1690E+00
     -8.888  0.8857E-02  0.1699E+00
     -8.782  0.1328E-02  0.1701E+00
     -8.676  0.5724E-02  0.1707E+00
     -8.569  0.1059E-01  0.1718E+00
     -8.463  0.7174E-02  0.1726E+00
     -8.356  0.1160E-01  0.1738E+00
     -8.250  0.2046E-01  0.1760E+00
     -8.144  0.2308E-01  0.1784E+00
     -8.037  0.2150E-01  0.1807E+00
     -7.931  0.1877E-01  0.1827E+00
     -7.825  0.1051E-01  0.1838E+00
     -7.718  0.2254E-02  0.1841E+00
     -7.612  0.9011E-02  0.1850E+00
     -7.506  0.2332E-01  0.1875E+00
     -7.399  0.2569E-01  0.1902E+00
     -7.293  0.2932E-01  0.1934E+00
     -7.187  0.3462E-01  0.1970E+00
     -7.080  0.3237E-01  0.2005E+00
     -6.974  0.2857E-01  0.2035E+00
     -6.867  0.2051E-01  0.2057E+00
     -6.761  0.1148E-01  0.2069E+00
     -6.655  0.1543E-01  0.2086E+00
     -6.548  0.1894E-01  0.2106E+00
     -6.442  0.1562E-01  0.2122E+00
     -6.336  0.1383E-01  0.2137E+00
     -6.229  0.1182E-01  0.2150E+00
     -6.123  0.9471E-02  0.2160E+00
     -6.017  0.8541E-02  0.2169E+00
     -5.910  0.1335E-01  0.2183E+00
     -5.804  0.1427E-01  0.2198E+00
     -5.697  0.1954E-01  0.2219E+00
     -5.591  0.3012E-01  0.2251E+00
     -5.485  0.3494E-01  0.2288E+00
     -5.378  0.2351E-01  0.2313E+00
     -5.272  0.2143E-01  0.2336E+00
     -5.166  0.2932E-01  0.2367E+00
     -5.059  0.3322E-01  0.2403E+00
     -4.953  0.2645E-01  0.2431E+00
     -4.847  0.2105E-01  0.2453E+00
     -4.740  0.2461E-01  0.2479E+00
     -4.634  0.2193E-01  0.2503E+00
     -4.528  0.1830E-01  0.2522E+00
     -4.421  0.2180E-01  0.2545E+00
     -4.315  0.2434E-01  0.2571E+00
     -4.208  0.2363E-01  0.2596E+00
     -4.102  0.2169E-01  0.2619E+00
     -3.996  0.1689E-01  0.2637E+00
     -3.889  0.1058E-01  0.2649E+00
     -3.783  0.9208E-02  0.2658E+00
     -3.677  0.4757E-02  0.2663E+00
     -3.570  0.1119E-01  0.2675E+00
     -3.464  0.1914E-01  0.2696E+00
     -3.358  0.3308E-01  0.2731E+00
     -3.251  0.2539E-01  0.2758E+00
     -3.145  0.2432E-01  0.2784E+00
     -3.038  0.2626E-01  0.2812E+00
     -2.932  0.1632E-01  0.2829E+00
     -2.826  0.9090E-02  0.2839E+00
     -2.719  0.4072E-02  0.2843E+00
     -2.613  0.9812E-02  0.2853E+00
     -2.507  0.6240E-02  0.2860E+00
     -2.400  0.6602E-02  0.2867E+00
     -2.294  0.9718E-02  0.2877E+00
     -2.188  0.2365E-02  0.2880E+00
     -2.081  0.5980E-03  0.2881E+00
     -1.975  0.5357E-02  0.2886E+00
     -1.869  0.1368E-01  0.2901E+00
     -1.762  0.1344E-01  0.2915E+00
     -1.656  0.1367E-01  0.2930E+00
     -1.549  0.1159E-01  0.2942E+00
     -1.443  0.7542E-02  0.2950E+00
     -1.337  0.8541E-02  0.2959E+00
     -1.230  0.1771E-01  0.2978E+00
     -1.124  0.2561E-01  0.3005E+00
     -1.018  0.2152E-01  0.3028E+00
     -0.911  0.1108E-01  0.3040E+00
     -0.805  0.9991E-02  0.3050E+00
     -0.699  0.1286E-01  0.3064E+00
     -0.592  0.9981E-02  0.3075E+00
     -0.486  0.1861E-01  0.3095E+00
     -0.379  0.1752E-01  0.3113E+00
     -0.273  0.5866E-02  0.3119E+00
     -0.167  0.5420E-03  0.3120E+00
     -0.060  0.8491E-05  0.3120E+00
      0.046  0.2159E-05  0.3120E+00
      0.152  0.2666E-03  0.3120E+00
      0.259  0.4324E-02  0.3125E+00
      0.365  0.1026E-01  0.3136E+00
      0.471  0.4548E-02  0.3141E+00
      0.578  0.7974E-02  0.3149E+00
      0.684  0.1664E-01  0.3167E+00
      0.791  0.1060E-01  0.3178E+00
      0.897  0.2523E-02  0.3181E+00
      1.003  0.5413E-02  0.3187E+00
      1.110  0.1283E-01  0.3200E+00
      1.216  0.1502E-01  0.3216E+00
      1.322  0.1790E-01  0.3235E+00
      1.429  0.2219E-01  0.3259E+00
      1.535  0.1988E-01  0.3280E+00
      1.641  0.2244E-01  0.3304E+00
      1.748  0.2734E-01  0.3333E+00
      1.854  0.2415E-01  0.3359E+00
      1.960  0.1816E-01  0.3378E+00
      2.067  0.1888E-01  0.3398E+00
      2.173  0.1460E-01  0.3414E+00
      2.280  0.1163E-01  0.3426E+00
      2.386  0.1539E-01  0.3442E+00
      2.492  0.1795E-01  0.3461E+00
      2.599  0.1876E-01  0.3481E+00
      2.705  0.2047E-01  0.3503E+00
      2.811  0.1308E-01  0.3517E+00
      2.918  0.2754E-02  0.3520E+00
      3.024  0.1016E-03  0.3520E+00
      3.130  0.4940E-06  0.3520E+00
      3.237  0.2834E-09  0.3520E+00
      3.343  0.1826E-13  0.3520E+00
      3.450  0.0000E+00  0.3520E+00
      3.556  0.0000E+00  0.3520E+00
      3.662  0.0000E+00  0.3520E+00
      3.769  0.0000E+00  0.3520E+00
      3.875  0.0000E+00  0.3520E+00
      3.981  0.0000E+00  0.3520E+00
      4.088  0.0000E+00  0.3520E+00
      4.194  0.0000E+00  0.3520E+00
