 running on   48 total cores
 distrk:  each k-point on   48 cores,    1 groups
 distr:  one band on   12 cores,    4 groups
 vasp.6.3.2 27Jun22 (build May 04 2024 18:40:40) complex                        
  
 POSCAR found type information on POSCAR C N Cu
 POSCAR found :  3 types and      59 ions
 Reading from existing POTCAR
 scaLAPACK will be used
 Reading from existing POTCAR
 LDA part: xc-table for Pade appr. of Perdew
 POSCAR found type information on POSCAR C N Cu
 POSCAR found :  3 types and      59 ions
 POSCAR, INCAR and KPOINTS ok, starting setup
 FFT: planning ... GRIDC
 FFT: planning ... GRID_SOFT
 FFT: planning ... GRID
 WAVECAR not read
 entering main loop
       N       E                     dE             d eps       ncg     rms          rms(c)
DAV:   1     0.284882191597E+04    0.28488E+04   -0.10041E+05  1464   0.106E+03
DAV:   2     0.130825335820E+03   -0.27180E+04   -0.25003E+04  1856   0.307E+02
DAV:   3    -0.475238811690E+03   -0.60606E+03   -0.59642E+03  1832   0.166E+02
DAV:   4    -0.522291694861E+03   -0.47053E+02   -0.44223E+02  2192   0.659E+01
DAV:   5    -0.524124180477E+03   -0.18325E+01   -0.16481E+01  2288   0.122E+01    0.763E+01
DAV:   6    -0.663624454056E+03   -0.13950E+03   -0.82999E+02  2360   0.249E+02    0.576E+01
DAV:   7    -0.522095818060E+03    0.14153E+03   -0.33435E+02  2104   0.824E+01    0.353E+01
DAV:   8    -0.494974946220E+03    0.27121E+02   -0.70750E+01  2056   0.702E+01    0.221E+01
DAV:   9    -0.500688830900E+03   -0.57139E+01   -0.14249E+02  2288   0.174E+02    0.784E+01
DAV:  10    -0.484323486599E+03    0.16365E+02   -0.54990E+01  2216   0.296E+01    0.991E+00
DAV:  11    -0.483794152834E+03    0.52933E+00   -0.13041E+01  2184   0.298E+01    0.593E+00
DAV:  12    -0.482933879732E+03    0.86027E+00   -0.32708E+00  2256   0.182E+01    0.331E+00
DAV:  13    -0.482996600172E+03   -0.62720E-01   -0.91527E-01  2144   0.447E+00    0.435E+00
DAV:  14    -0.482912723407E+03    0.83877E-01   -0.78135E-02  2144   0.179E+00    0.432E+00
DAV:  15    -0.482767951837E+03    0.14477E+00   -0.44054E-02  2312   0.276E+00    0.404E+00
DAV:  16    -0.482515192837E+03    0.25276E+00   -0.97466E-02  2408   0.516E+00    0.317E+00
DAV:  17    -0.482352717810E+03    0.16248E+00   -0.10285E-01  2424   0.374E+00    0.244E+00
DAV:  18    -0.482322683405E+03    0.30034E-01   -0.40722E-02  2280   0.830E-01    0.231E+00
DAV:  19    -0.482294334370E+03    0.28349E-01   -0.34297E-03  2488   0.728E-01    0.217E+00
DAV:  20    -0.482190858745E+03    0.10348E+00   -0.33751E-02  2448   0.297E+00    0.176E+00
DAV:  21    -0.482110135961E+03    0.80723E-01   -0.83718E-02  2416   0.332E+00    0.943E-01
DAV:  22    -0.482111307604E+03   -0.11716E-02   -0.35201E-02  1936   0.378E-01    0.867E-01
DAV:  23    -0.482110920755E+03    0.38685E-03   -0.18233E-03  2224   0.125E-01    0.826E-01
DAV:  24    -0.482111914123E+03   -0.99337E-03   -0.83376E-04  2016   0.200E-01    0.813E-01
DAV:  25    -0.482102736354E+03    0.91778E-02   -0.95136E-03  2288   0.990E-01    0.529E-01
DAV:  26    -0.482102691378E+03    0.44976E-04   -0.45773E-03  2192   0.233E-01    0.497E-01
DAV:  27    -0.482101191764E+03    0.14996E-02   -0.45164E-04  2040   0.184E-01    0.427E-01
DAV:  28    -0.482100760004E+03    0.43176E-03   -0.41312E-04  2080   0.104E-01    0.377E-01
DAV:  29    -0.482099106653E+03    0.16534E-02   -0.15211E-03  2296   0.451E-01    0.220E-01
DAV:  30    -0.482099288862E+03   -0.18221E-03   -0.22563E-03  2304   0.307E-01    0.137E-01
DAV:  31    -0.482099459255E+03   -0.17039E-03   -0.61932E-04  2000   0.836E-02    0.961E-02
DAV:  32    -0.482099606094E+03   -0.14684E-03   -0.15269E-04  2104   0.797E-02    0.754E-02
DAV:  33    -0.482099889235E+03   -0.28314E-03   -0.25143E-04  1856   0.612E-02    0.401E-02
DAV:  34    -0.482099991198E+03   -0.10196E-03   -0.34780E-05  1176   0.573E-02    0.588E-02
DAV:  35    -0.482100098244E+03   -0.10705E-03   -0.88800E-05  1616   0.299E-02    0.738E-02
DAV:  36    -0.482100057493E+03    0.40751E-04   -0.21071E-05  1144   0.528E-02    0.536E-02
DAV:  37    -0.482100045622E+03    0.11871E-04   -0.28377E-05  1264   0.354E-02    0.387E-02
DAV:  38    -0.482100043978E+03    0.16438E-05   -0.32225E-05  1328   0.339E-02
   1 F= -.48210004E+03 E0= -.48206569E+03  d E =-.482100E+03
 curvature:   0.00 expect dE= 0.000E+00 dE for cont linesearch  0.000E+00
 trial: gam= 0.00000 g(F)=  0.426E-02 g(S)=  0.332E-01 ort = 0.000E+00 (trialstep = 0.100E+01)
 search vector abs. value=  0.375E-01
 bond charge predicted
       N       E                     dE             d eps       ncg     rms          rms(c)
DAV:   1    -0.482142395229E+03   -0.42350E-01   -0.56149E-01  1728   0.308E+00    0.111E+00
DAV:   2    -0.482156213810E+03   -0.13819E-01   -0.24177E-01  2056   0.361E+00    0.118E+00
DAV:   3    -0.482127679421E+03    0.28534E-01   -0.92297E-02  2248   0.284E+00    0.261E-01
DAV:   4    -0.482128206060E+03   -0.52664E-03   -0.12044E-02  2088   0.648E-01    0.238E-01
DAV:   5    -0.482127567546E+03    0.63851E-03   -0.32534E-03  2280   0.623E-01    0.104E-01
DAV:   6    -0.482127454835E+03    0.11271E-03   -0.91555E-04  2112   0.248E-01    0.340E-02
DAV:   7    -0.482127457933E+03   -0.30977E-05   -0.18477E-04  1488   0.997E-02    0.196E-02
DAV:   8    -0.482127461335E+03   -0.34024E-05   -0.35913E-05  1280   0.535E-02
   2 F= -.48212746E+03 E0= -.48209330E+03  d E =-.274174E-01
 trial-energy change:   -0.027417  1 .order   -0.028132   -0.037505   -0.018759
 step:   2.0007(harm=  2.0007)  dis= 0.00257  next Energy=  -482.137562 (dE=-0.375E-01)
 bond charge predicted
       N       E                     dE             d eps       ncg     rms          rms(c)
DAV:   1    -0.482150933299E+03   -0.23475E-01   -0.56146E-01  1720   0.309E+00    0.111E+00
DAV:   2    -0.482164386216E+03   -0.13453E-01   -0.24035E-01  2080   0.361E+00    0.117E+00
DAV:   3    -0.482136211750E+03    0.28174E-01   -0.91527E-02  2256   0.283E+00    0.262E-01
DAV:   4    -0.482136723058E+03   -0.51131E-03   -0.12166E-02  2088   0.665E-01    0.239E-01
DAV:   5    -0.482136076704E+03    0.64635E-03   -0.32906E-03  2296   0.625E-01    0.105E-01
DAV:   6    -0.482135964585E+03    0.11212E-03   -0.91020E-04  2120   0.245E-01    0.335E-02
DAV:   7    -0.482135971443E+03   -0.68573E-05   -0.18122E-04  1472   0.965E-02    0.198E-02
DAV:   8    -0.482135976758E+03   -0.53155E-05   -0.37199E-05  1336   0.494E-02
   3 F= -.48213598E+03 E0= -.48210205E+03  d E =-.359328E-01
 curvature:  -1.00 expect dE=-0.981E-02 dE for cont linesearch -0.184E-05
 trial: gam= 0.26837 g(F)=  0.837E-02 g(S)=  0.143E-02 ort =-0.262E-03 (trialstep = 0.120E+01)
 search vector abs. value=  0.124E-01
 bond charge predicted
       N       E                     dE             d eps       ncg     rms          rms(c)
DAV:   1    -0.482146029274E+03   -0.10058E-01   -0.53985E-01  1440   0.220E+00    0.443E-01
DAV:   2    -0.482147570824E+03   -0.15415E-02   -0.40274E-02  2000   0.117E+00    0.386E-01
DAV:   3    -0.482145142120E+03    0.24287E-02   -0.12812E-02  2272   0.982E-01    0.183E-01
DAV:   4    -0.482144789371E+03    0.35275E-03   -0.17074E-03  2056   0.257E-01    0.801E-02
DAV:   5    -0.482144796909E+03   -0.75389E-05   -0.65065E-04  2080   0.271E-01    0.640E-02
DAV:   6    -0.482144748648E+03    0.48261E-04   -0.22620E-04  1408   0.193E-01    0.220E-02
DAV:   7    -0.482144760688E+03   -0.12040E-04   -0.45651E-05  1232   0.237E-02    0.843E-03
DAV:   8    -0.482144768090E+03   -0.74024E-05   -0.57566E-06   960   0.236E-02
   4 F= -.48214477E+03 E0= -.48211084E+03  d E =-.879133E-02
 trial-energy change:   -0.008791  1 .order   -0.008887   -0.011680   -0.006094
 step:   2.9542(harm=  2.5094)  dis= 0.00482  next Energy=  -482.148922 (dE=-0.129E-01)
 bond charge predicted
       N       E                     dE             d eps       ncg     rms          rms(c)
DAV:   1    -0.482150669247E+03   -0.59086E-02   -0.11533E+00  1440   0.322E+00    0.651E-01
DAV:   2    -0.482153972610E+03   -0.33034E-02   -0.86633E-02  2008   0.172E+00    0.559E-01
DAV:   3    -0.482148712273E+03    0.52603E-02   -0.27412E-02  2264   0.144E+00    0.263E-01
DAV:   4    -0.482147968065E+03    0.74421E-03   -0.36403E-03  2064   0.366E-01    0.116E-01
DAV:   5    -0.482147980567E+03   -0.12502E-04   -0.13733E-03  2080   0.390E-01    0.929E-02
DAV:   6    -0.482147875959E+03    0.10461E-03   -0.48256E-04  1656   0.280E-01    0.327E-02
DAV:   7    -0.482147896265E+03   -0.20305E-04   -0.88515E-05  1304   0.322E-02    0.133E-02
DAV:   8    -0.482147909944E+03   -0.13680E-04   -0.13471E-05  1048   0.349E-02    0.737E-03
DAV:   9    -0.482147915668E+03   -0.57244E-05   -0.63844E-06  1040   0.294E-02
   5 F= -.48214792E+03 E0= -.48211398E+03  d E =-.119389E-01
 curvature:  -1.41 expect dE=-0.129E-01 dE for cont linesearch -0.242E-03
 trial: gam= 1.05025 g(F)=  0.877E-02 g(S)=  0.358E-03 ort =-0.146E-02 (trialstep = 0.973E+00)
 search vector abs. value=  0.197E-01
 bond charge predicted
       N       E                     dE             d eps       ncg     rms          rms(c)
DAV:   1    -0.482153140013E+03   -0.52301E-02   -0.61597E-01  1440   0.222E+00    0.318E-01
DAV:   2    -0.482154550259E+03   -0.14102E-02   -0.26814E-02  2072   0.769E-01    0.246E-01
DAV:   3    -0.482153764057E+03    0.78620E-03   -0.60994E-03  2264   0.653E-01    0.156E-01
DAV:   4    -0.482153537414E+03    0.22664E-03   -0.93656E-04  2072   0.218E-01    0.750E-02
DAV:   5    -0.482153557364E+03   -0.19950E-04   -0.35292E-04  1928   0.168E-01    0.511E-02
DAV:   6    -0.482153540261E+03    0.17103E-04   -0.18194E-04  1424   0.173E-01    0.235E-02
DAV:   7    -0.482153545070E+03   -0.48092E-05   -0.32218E-05  1200   0.562E-02
   6 F= -.48215355E+03 E0= -.48211979E+03  d E =-.562940E-02
 trial-energy change:   -0.005629  1 .order   -0.005676   -0.007391   -0.003961
 step:   2.3782(harm=  2.0980)  dis= 0.00532  next Energy=  -482.156263 (dE=-0.835E-02)
 bond charge predicted
       N       E                     dE             d eps       ncg     rms          rms(c)
DAV:   1    -0.482154617170E+03   -0.10769E-02   -0.12806E+00  1440   0.320E+00    0.460E-01
DAV:   2    -0.482157598049E+03   -0.29809E-02   -0.55995E-02  2080   0.111E+00    0.356E-01
DAV:   3    -0.482155927593E+03    0.16705E-02   -0.12760E-02  2256   0.952E-01    0.224E-01
DAV:   4    -0.482155465433E+03    0.46216E-03   -0.19680E-03  2080   0.319E-01    0.108E-01
DAV:   5    -0.482155505656E+03   -0.40223E-04   -0.74920E-04  2080   0.254E-01    0.755E-02
DAV:   6    -0.482155462078E+03    0.43579E-04   -0.38323E-04  1624   0.252E-01    0.334E-02
DAV:   7    -0.482155471226E+03   -0.91483E-05   -0.66497E-05  1264   0.745E-02
   7 F= -.48215547E+03 E0= -.48212199E+03  d E =-.755556E-02
 curvature:  -2.55 expect dE=-0.152E-01 dE for cont linesearch -0.162E-03
 trial: gam= 0.48525 g(F)=  0.563E-02 g(S)=  0.320E-03 ort =-0.112E-02 (trialstep = 0.125E+01)
 search vector abs. value=  0.950E-02
 bond charge predicted
       N       E                     dE             d eps       ncg     rms          rms(c)
DAV:   1    -0.482159534004E+03   -0.40719E-02   -0.46300E-01  1432   0.191E+00    0.181E-01
DAV:   2    -0.482160775433E+03   -0.12414E-02   -0.14754E-02  2056   0.464E-01    0.137E-01
DAV:   3    -0.482160625638E+03    0.14980E-03   -0.17144E-03  2232   0.325E-01    0.950E-02
DAV:   4    -0.482160565785E+03    0.59853E-04   -0.41728E-04  2112   0.162E-01    0.493E-02
DAV:   5    -0.482160577126E+03   -0.11341E-04   -0.12592E-04  1456   0.105E-01    0.285E-02
DAV:   6    -0.482160579966E+03   -0.28392E-05   -0.92987E-05  1432   0.117E-01
   8 F= -.48216058E+03 E0= -.48212718E+03  d E =-.510874E-02
 trial-energy change:   -0.005109  1 .order   -0.005139   -0.006783   -0.003495
 step:   2.5881(harm=  2.5881)  dis= 0.00576  next Energy=  -482.162469 (dE=-0.700E-02)
 bond charge predicted
       N       E                     dE             d eps       ncg     rms          rms(c)
DAV:   1    -0.482161090990E+03   -0.51386E-03   -0.52187E-01  1424   0.203E+00    0.193E-01
DAV:   2    -0.482162504913E+03   -0.14139E-02   -0.16758E-02  2072   0.490E-01    0.143E-01
DAV:   3    -0.482162344727E+03    0.16019E-03   -0.19049E-03  2200   0.341E-01    0.100E-01
DAV:   4    -0.482162277286E+03    0.67442E-04   -0.48118E-04  2136   0.175E-01    0.515E-02
DAV:   5    -0.482162287795E+03   -0.10509E-04   -0.14471E-04  1504   0.110E-01    0.297E-02
DAV:   6    -0.482162289663E+03   -0.18682E-05   -0.10291E-04  1480   0.122E-01    0.169E-02
DAV:   7    -0.482162290632E+03   -0.96880E-06   -0.22103E-05  1128   0.556E-02
   9 F= -.48216229E+03 E0= -.48212897E+03  d E =-.681941E-02
 curvature:  -2.27 expect dE=-0.944E-02 dE for cont linesearch -0.268E-05
 trial: gam= 0.63970 g(F)=  0.404E-02 g(S)=  0.111E-03 ort =-0.106E-03 (trialstep = 0.152E+01)
 search vector abs. value=  0.791E-02
 bond charge predicted
       N       E                     dE             d eps       ncg     rms          rms(c)
DAV:   1    -0.482166617207E+03   -0.43275E-02   -0.66961E-01  1424   0.218E+00    0.132E-01
DAV:   2    -0.482167698693E+03   -0.10815E-02   -0.13093E-02  2080   0.430E-01    0.897E-02
DAV:   3    -0.482167693501E+03    0.51912E-05   -0.72729E-04  2216   0.184E-01    0.665E-02
DAV:   4    -0.482167701018E+03   -0.75166E-05   -0.23112E-04  1664   0.147E-01    0.447E-02
DAV:   5    -0.482167706802E+03   -0.57836E-05   -0.10032E-04  1560   0.860E-02    0.148E-02
DAV:   6    -0.482167714786E+03   -0.79846E-05   -0.40725E-05  1392   0.543E-02
  10 F= -.48216771E+03 E0= -.48213436E+03  d E =-.542415E-02
 ZBRENT: can't locate minimum, use default step
 trial-energy change:   -0.005424  1 .order   -0.005443   -0.006214   -0.004672
 step:   6.0845(harm=  6.1309)  dis= 0.01391  next Energy=  -482.174814 (dE=-0.125E-01)
 bond charge predicted
       N       E                     dE             d eps       ncg     rms          rms(c)
DAV:   1    -0.482164826017E+03    0.28808E-02   -0.60248E+00  1424   0.656E+00    0.399E-01
DAV:   2    -0.482174764240E+03   -0.99382E-02   -0.11969E-01  2064   0.129E+00    0.267E-01
DAV:   3    -0.482174666853E+03    0.97386E-04   -0.60410E-03  2200   0.563E-01    0.184E-01
DAV:   4    -0.482174825727E+03   -0.15887E-03   -0.21990E-03  2232   0.540E-01    0.133E-01
DAV:   5    -0.482174787654E+03    0.38073E-04   -0.88468E-04  2240   0.360E-01    0.424E-02
DAV:   6    -0.482174845449E+03   -0.57795E-04   -0.24530E-04  1736   0.665E-02    0.229E-02
DAV:   7    -0.482174846286E+03   -0.83682E-06   -0.59429E-05  1328   0.614E-02
  11 F= -.48217485E+03 E0= -.48214137E+03  d E =-.125557E-01
 curvature:  -5.93 expect dE=-0.418E-01 dE for cont linesearch -0.123E-05
 trial: gam= 1.74076 g(F)=  0.667E-02 g(S)=  0.364E-03 ort = 0.406E-04 (trialstep = 0.618E+00)
 search vector abs. value=  0.311E-01
 bond charge predicted
       N       E                     dE             d eps       ncg     rms          rms(c)
DAV:   1    -0.482177913777E+03   -0.30683E-02   -0.43430E-01  1424   0.178E+00    0.116E-01
DAV:   2    -0.482178793983E+03   -0.88021E-03   -0.10528E-02  2072   0.364E-01    0.777E-02
DAV:   3    -0.482178773261E+03    0.20722E-04   -0.49585E-04  2208   0.134E-01    0.504E-02
DAV:   4    -0.482178785185E+03   -0.11924E-04   -0.16584E-04  1784   0.136E-01    0.346E-02
DAV:   5    -0.482178784643E+03    0.54209E-06   -0.88900E-05  1392   0.118E-01
  12 F= -.48217878E+03 E0= -.48214542E+03  d E =-.393836E-02
 ZBRENT: can't locate minimum, use default step
 trial-energy change:   -0.003938  1 .order   -0.003941   -0.004393   -0.003489
 step:   2.4719(harm=  3.0040)  dis= 0.01098  next Energy=  -482.185524 (dE=-0.107E-01)
 bond charge predicted
       N       E                     dE             d eps       ncg     rms          rms(c)
DAV:   1    -0.482177088269E+03    0.16969E-02   -0.38999E+00  1424   0.531E+00    0.347E-01
DAV:   2    -0.482184430199E+03   -0.73419E-02   -0.89072E-02  2080   0.106E+00    0.233E-01
DAV:   3    -0.482184219041E+03    0.21116E-03   -0.42959E-03  2176   0.371E-01    0.149E-01
DAV:   4    -0.482184289229E+03   -0.70188E-04   -0.14453E-03  2096   0.392E-01    0.103E-01
DAV:   5    -0.482184259482E+03    0.29746E-04   -0.76036E-04  2160   0.326E-01    0.426E-02
DAV:   6    -0.482184276589E+03   -0.17107E-04   -0.15163E-04  1576   0.965E-02    0.181E-02
DAV:   7    -0.482184285365E+03   -0.87762E-05   -0.44243E-05  1192   0.493E-02
  13 F= -.48218429E+03 E0= -.48215129E+03  d E =-.943908E-02
 curvature:  -6.25 expect dE=-0.320E-01 dE for cont linesearch -0.283E-04
 trial: gam= 0.72625 g(F)=  0.357E-02 g(S)=  0.154E-02 ort = 0.376E-03 (trialstep = 0.989E+00)
 search vector abs. value=  0.221E-01
 bond charge predicted
       N       E                     dE             d eps       ncg     rms          rms(c)
DAV:   1    -0.482187798728E+03   -0.35221E-02   -0.72922E-01  1408   0.234E+00    0.202E-01
DAV:   2    -0.482189362839E+03   -0.15641E-02   -0.20757E-02  2040   0.605E-01    0.166E-01
DAV:   3    -0.482189109576E+03    0.25326E-03   -0.27324E-03  2232   0.422E-01    0.106E-01
DAV:   4    -0.482189040403E+03    0.69173E-04   -0.49444E-04  2088   0.166E-01    0.435E-02
DAV:   5    -0.482189068396E+03   -0.27993E-04   -0.21986E-04  1656   0.150E-01    0.331E-02
DAV:   6    -0.482189057582E+03    0.10814E-04   -0.82792E-05  1304   0.116E-01    0.105E-02
DAV:   7    -0.482189064245E+03   -0.66634E-05   -0.15789E-05  1048   0.185E-02
  14 F= -.48218906E+03 E0= -.48215612E+03  d E =-.477888E-02
 trial-energy change:   -0.004779  1 .order   -0.004707   -0.005331   -0.004083
 step:   2.6653(harm=  4.2230)  dis= 0.00954  next Energy=  -482.192875 (dE=-0.859E-02)
 bond charge predicted
       N       E                     dE             d eps       ncg     rms          rms(c)
DAV:   1    -0.482190606564E+03   -0.15490E-02   -0.20962E+00  1408   0.396E+00    0.341E-01
DAV:   2    -0.482194889940E+03   -0.42834E-02   -0.57696E-02  2040   0.981E-01    0.273E-01
DAV:   3    -0.482194227391E+03    0.66255E-03   -0.75755E-03  2208   0.692E-01    0.180E-01
DAV:   4    -0.482193991628E+03    0.23576E-03   -0.13812E-03  2112   0.270E-01    0.720E-02
DAV:   5    -0.482194061621E+03   -0.69993E-04   -0.61851E-04  2072   0.228E-01    0.526E-02
DAV:   6    -0.482194032792E+03    0.28829E-04   -0.21348E-04  1520   0.178E-01    0.187E-02
DAV:   7    -0.482194042465E+03   -0.96725E-05   -0.32044E-05  1152   0.334E-02
  15 F= -.48219404E+03 E0= -.48216118E+03  d E =-.975710E-02
 curvature:  -6.64 expect dE=-0.233E-01 dE for cont linesearch -0.917E-03
 ZBRENT: increasing intervall
 opt :   6.0183  next Energy=  -482.191907 (dE=-0.762E-02)
 bond charge predicted
       N       E                     dE             d eps       ncg     rms          rms(c)
DAV:   1    -0.482178741776E+03    0.15291E-01   -0.83837E+00  1408   0.790E+00    0.691E-01
DAV:   2    -0.482195737249E+03   -0.16995E-01   -0.23018E-01  2040   0.196E+00    0.540E-01
DAV:   3    -0.482193086334E+03    0.26509E-02   -0.30308E-02  2216   0.140E+00    0.358E-01
DAV:   4    -0.482192135200E+03    0.95113E-03   -0.55812E-03  2152   0.541E-01    0.149E-01
DAV:   5    -0.482192407163E+03   -0.27196E-03   -0.25153E-03  2168   0.469E-01    0.109E-01
DAV:   6    -0.482192279740E+03    0.12742E-03   -0.90488E-04  1888   0.368E-01    0.375E-02
DAV:   7    -0.482192314575E+03   -0.34835E-04   -0.13315E-04  1432   0.619E-02    0.179E-02
DAV:   8    -0.482192334757E+03   -0.20182E-04   -0.35850E-05  1200   0.489E-02    0.106E-02
DAV:   9    -0.482192344455E+03   -0.96984E-05   -0.15263E-05  1072   0.453E-02
  16 F= -.48219234E+03 E0= -.48215965E+03  d E =-.805909E-02
 curvature:  15.47 expect dE= 0.285E+00 dE for cont linesearch  0.586E-02
 ZBRENT: bracketing found
 ZBRENT: interpolating
 opt :   3.9274  next Energy=  -482.195144 (dE=-0.109E-01)
 bond charge predicted
       N       E                     dE             d eps       ncg     rms          rms(c)
DAV:   1    -0.482189800539E+03    0.25342E-02   -0.32589E+00  1408   0.495E+00    0.419E-01
DAV:   2    -0.482196532334E+03   -0.67318E-02   -0.90003E-02  2048   0.123E+00    0.344E-01
DAV:   3    -0.482195567951E+03    0.96438E-03   -0.11538E-02  2240   0.839E-01    0.227E-01
DAV:   4    -0.482195186542E+03    0.38141E-03   -0.22203E-03  2144   0.344E-01    0.863E-02
DAV:   5    -0.482195284371E+03   -0.97829E-04   -0.88225E-04  2096   0.269E-01    0.607E-02
DAV:   6    -0.482195246579E+03    0.37792E-04   -0.30790E-04  1624   0.211E-01    0.232E-02
DAV:   7    -0.482195254311E+03   -0.77319E-05   -0.46118E-05  1272   0.440E-02
  17 F= -.48219525E+03 E0= -.48216245E+03  d E =-.109689E-01
 curvature:  -2.91 expect dE=-0.199E-01 dE for cont linesearch -0.406E-05
 trial: gam= 1.42660 g(F)=  0.664E-02 g(S)=  0.208E-03 ort = 0.176E-03 (trialstep = 0.666E+00)
 search vector abs. value=  0.523E-01
 bond charge predicted
       N       E                     dE             d eps       ncg     rms          rms(c)
DAV:   1    -0.482198415515E+03   -0.31689E-02   -0.77076E-01  1408   0.240E+00    0.231E-01
DAV:   2    -0.482199858699E+03   -0.14432E-02   -0.22053E-02  2064   0.623E-01    0.183E-01
DAV:   3    -0.482199530268E+03    0.32843E-03   -0.34866E-03  2192   0.459E-01    0.121E-01
DAV:   4    -0.482199413380E+03    0.11689E-03   -0.61446E-04  2048   0.174E-01    0.483E-02
DAV:   5    -0.482199441528E+03   -0.28148E-04   -0.28398E-04  1648   0.161E-01    0.370E-02
DAV:   6    -0.482199425761E+03    0.15767E-04   -0.11121E-04  1360   0.130E-01    0.108E-02
DAV:   7    -0.482199429908E+03   -0.41471E-05   -0.18584E-05  1056   0.209E-02
  18 F= -.48219943E+03 E0= -.48216671E+03  d E =-.417560E-02
 ZBRENT: can't locate minimum, use default step
 trial-energy change:   -0.004176  1 .order   -0.004219   -0.004726   -0.003712
 step:   2.6631(harm=  3.1024)  dis= 0.01445  next Energy=  -482.206265 (dE=-0.110E-01)
 bond charge predicted
       N       E                     dE             d eps       ncg     rms          rms(c)
DAV:   1    -0.482197182704E+03    0.22431E-02   -0.69514E+00  1408   0.718E+00    0.705E-01
DAV:   2    -0.482210284208E+03   -0.13102E-01   -0.19982E-01  2056   0.188E+00    0.545E-01
DAV:   3    -0.482207237408E+03    0.30468E-02   -0.31915E-02  2208   0.142E+00    0.359E-01
DAV:   4    -0.482206200935E+03    0.10365E-02   -0.55646E-03  2160   0.526E-01    0.153E-01
DAV:   5    -0.482206449889E+03   -0.24895E-03   -0.25327E-03  2152   0.487E-01    0.114E-01
DAV:   6    -0.482206301205E+03    0.14868E-03   -0.10054E-03  1920   0.387E-01    0.338E-02
DAV:   7    -0.482206335269E+03   -0.34064E-04   -0.14677E-04  1416   0.590E-02    0.163E-02
DAV:   8    -0.482206347387E+03   -0.12118E-04   -0.32271E-05  1176   0.457E-02    0.988E-03
DAV:   9    -0.482206357112E+03   -0.97247E-05   -0.11560E-05  1024   0.411E-02
  19 F= -.48220636E+03 E0= -.48217384E+03  d E =-.111028E-01
 curvature: -11.06 expect dE=-0.524E-01 dE for cont linesearch -0.350E-03
 ZBRENT: extrapolating
 opt :   3.2628  next Energy=  -482.206743 (dE=-0.115E-01)
 bond charge predicted
       N       E                     dE             d eps       ncg     rms          rms(c)
DAV:   1    -0.482205996305E+03    0.35108E-03   -0.62793E-01  1408   0.216E+00    0.208E-01
DAV:   2    -0.482207165109E+03   -0.11688E-02   -0.18039E-02  2048   0.567E-01    0.164E-01
DAV:   3    -0.482206900971E+03    0.26414E-03   -0.28237E-03  2208   0.420E-01    0.108E-01
DAV:   4    -0.482206811140E+03    0.89831E-04   -0.50511E-04  2056   0.163E-01    0.444E-02
DAV:   5    -0.482206837296E+03   -0.26156E-04   -0.22556E-04  1536   0.149E-01    0.337E-02
DAV:   6    -0.482206828693E+03    0.86029E-05   -0.96020E-05  1360   0.120E-01
  20 F= -.48220683E+03 E0= -.48217438E+03  d E =-.115744E-01
 curvature: -12.18 expect dE=-0.798E-01 dE for cont linesearch -0.105E-04
 trial: gam= 0.87577 g(F)=  0.607E-02 g(S)=  0.487E-03 ort = 0.213E-03 (trialstep = 0.119E+01)
 search vector abs. value=  0.470E-01
 bond charge predicted
       N       E                     dE             d eps       ncg     rms          rms(c)
DAV:   1    -0.482209631333E+03   -0.27940E-02   -0.22922E+00  1408   0.412E+00    0.369E-01
DAV:   2    -0.482214146020E+03   -0.45147E-02   -0.62904E-02  2016   0.961E-01    0.267E-01
DAV:   3    -0.482213562278E+03    0.58374E-03   -0.80694E-03  2208   0.709E-01    0.199E-01
DAV:   4    -0.482213291109E+03    0.27117E-03   -0.15778E-03  2136   0.306E-01    0.986E-02
DAV:   5    -0.482213390036E+03   -0.98927E-04   -0.71825E-04  2080   0.255E-01    0.665E-02
DAV:   6    -0.482213363301E+03    0.26735E-04   -0.35185E-04  1656   0.232E-01    0.249E-02
DAV:   7    -0.482213379186E+03   -0.15885E-04   -0.61821E-05  1264   0.606E-02    0.917E-03
DAV:   8    -0.482213387008E+03   -0.78223E-05   -0.13524E-05   992   0.230E-02
  21 F= -.48221339E+03 E0= -.48218104E+03  d E =-.655832E-02
 trial-energy change:   -0.006558  1 .order   -0.006576   -0.007987   -0.005166
 step:   3.3558(harm=  3.3558)  dis= 0.01658  next Energy=  -482.218135 (dE=-0.113E-01)
 bond charge predicted
       N       E                     dE             d eps       ncg     rms          rms(c)
DAV:   1    -0.482205804844E+03    0.75743E-02   -0.76905E+00  1408   0.754E+00    0.688E-01
DAV:   2    -0.482220938633E+03   -0.15134E-01   -0.21067E-01  2016   0.175E+00    0.488E-01
DAV:   3    -0.482218919427E+03    0.20192E-02   -0.27013E-02  2176   0.132E+00    0.366E-01
DAV:   4    -0.482217977633E+03    0.94179E-03   -0.54425E-03  2168   0.576E-01    0.185E-01
DAV:   5    -0.482218258254E+03   -0.28062E-03   -0.24221E-03  2120   0.483E-01    0.126E-01
DAV:   6    -0.482218151638E+03    0.10662E-03   -0.12402E-03  2120   0.433E-01    0.461E-02
DAV:   7    -0.482218194253E+03   -0.42615E-04   -0.20834E-04  1520   0.105E-01    0.170E-02
DAV:   8    -0.482218215080E+03   -0.20827E-04   -0.48657E-05  1296   0.383E-02    0.100E-02
DAV:   9    -0.482218232034E+03   -0.16954E-04   -0.12309E-05  1072   0.376E-02    0.578E-03
DAV:  10    -0.482218242563E+03   -0.10528E-04   -0.48543E-06  1008   0.242E-02    0.288E-03
DAV:  11    -0.482218254770E+03   -0.12207E-04   -0.31687E-06   968   0.108E-02    0.183E-03
DAV:  12    -0.482218269591E+03   -0.14821E-04   -0.32336E-06  1024   0.944E-03    0.155E-03
DAV:  13    -0.482218277967E+03   -0.83762E-05   -0.19009E-06   992   0.746E-03
  22 F= -.48221828E+03 E0= -.48218612E+03  d E =-.114493E-01
 curvature: -11.71 expect dE=-0.862E-01 dE for cont linesearch -0.444E-05
 trial: gam= 1.11591 g(F)=  0.554E-02 g(S)=  0.182E-02 ort = 0.134E-03 (trialstep = 0.115E+01)
 search vector abs. value=  0.662E-01
 bond charge predicted
       N       E                     dE             d eps       ncg     rms          rms(c)
DAV:   1    -0.482220459075E+03   -0.21895E-02   -0.30071E+00  1408   0.477E+00    0.456E-01
DAV:   2    -0.482227088673E+03   -0.66296E-02   -0.90526E-02  2024   0.128E+00    0.366E-01
DAV:   3    -0.482225517368E+03    0.15713E-02   -0.13790E-02  2232   0.964E-01    0.223E-01
DAV:   4    -0.482225262273E+03    0.25510E-03   -0.22170E-03  2136   0.350E-01    0.115E-01
DAV:   5    -0.482225413932E+03   -0.15166E-03   -0.10719E-03  2096   0.355E-01    0.877E-02
DAV:   6    -0.482225340302E+03    0.73630E-04   -0.46514E-04  1672   0.277E-01    0.247E-02
DAV:   7    -0.482225363026E+03   -0.22724E-04   -0.82446E-05  1312   0.362E-02    0.103E-02
DAV:   8    -0.482225368384E+03   -0.53574E-05   -0.13943E-05  1072   0.378E-02
  23 F= -.48222537E+03 E0= -.48219332E+03  d E =-.709042E-02
 trial-energy change:   -0.007090  1 .order   -0.007034   -0.008639   -0.005429
 step:   2.7082(harm=  3.0956)  dis= 0.01487  next Energy=  -482.229187 (dE=-0.109E-01)
 bond charge predicted
       N       E                     dE             d eps       ncg     rms          rms(c)
DAV:   1    -0.482220930238E+03    0.44328E-02   -0.55221E+00  1408   0.646E+00    0.624E-01
DAV:   2    -0.482233150897E+03   -0.12221E-01   -0.16713E-01  2024   0.175E+00    0.496E-01
DAV:   3    -0.482230202952E+03    0.29479E-02   -0.25517E-02  2224   0.132E+00    0.301E-01
DAV:   4    -0.482229739913E+03    0.46304E-03   -0.41579E-03  2160   0.482E-01    0.158E-01
DAV:   5    -0.482230020953E+03   -0.28104E-03   -0.20111E-03  2104   0.491E-01    0.122E-01
DAV:   6    -0.482229884904E+03    0.13605E-03   -0.86862E-04  1824   0.378E-01    0.339E-02
DAV:   7    -0.482229928670E+03   -0.43766E-04   -0.16573E-04  1648   0.471E-02    0.147E-02
DAV:   8    -0.482229939723E+03   -0.11053E-04   -0.24705E-05  1200   0.501E-02    0.105E-02
DAV:   9    -0.482229945843E+03   -0.61205E-05   -0.10506E-05  1064   0.405E-02
  24 F= -.48222995E+03 E0= -.48219806E+03  d E =-.116679E-01
 curvature: -13.11 expect dE=-0.583E-01 dE for cont linesearch -0.181E-03
 ZBRENT: extrapolating
 opt :   3.1043  next Energy=  -482.230135 (dE=-0.119E-01)
 bond charge predicted
       N       E                     dE             d eps       ncg     rms          rms(c)
DAV:   1    -0.482229621936E+03    0.31779E-03   -0.35774E-01  1408   0.165E+00    0.156E-01
DAV:   2    -0.482230401982E+03   -0.78005E-03   -0.10750E-02  2024   0.444E-01    0.126E-01
DAV:   3    -0.482230221255E+03    0.18073E-03   -0.16286E-03  2160   0.329E-01    0.772E-02
DAV:   4    -0.482230193580E+03    0.27674E-04   -0.26852E-04  1968   0.125E-01    0.396E-02
DAV:   5    -0.482230213347E+03   -0.19767E-04   -0.12515E-04  1320   0.127E-01    0.306E-02
DAV:   6    -0.482230206539E+03    0.68081E-05   -0.60413E-05  1192   0.102E-01
  25 F= -.48223021E+03 E0= -.48219836E+03  d E =-.119286E-01
 curvature: -13.71 expect dE=-0.768E-01 dE for cont linesearch -0.427E-04
 trial: gam= 0.74443 g(F)=  0.548E-02 g(S)=  0.127E-03 ort = 0.454E-03 (trialstep = 0.154E+01)
 search vector abs. value=  0.430E-01
 bond charge predicted
       N       E                     dE             d eps       ncg     rms          rms(c)
DAV:   1    -0.482231199143E+03   -0.98580E-03   -0.34250E+00  1408   0.513E+00    0.509E-01
DAV:   2    -0.482239041037E+03   -0.78419E-02   -0.10759E-01  2032   0.148E+00    0.427E-01
DAV:   3    -0.482236724020E+03    0.23170E-02   -0.18122E-02  2248   0.110E+00    0.234E-01
DAV:   4    -0.482236515140E+03    0.20888E-03   -0.27517E-03  2152   0.367E-01    0.119E-01
DAV:   5    -0.482236689324E+03   -0.17418E-03   -0.13910E-03  2104   0.406E-01    0.944E-02
DAV:   6    -0.482236594120E+03    0.95204E-04   -0.52404E-04  1672   0.292E-01    0.255E-02
DAV:   7    -0.482236619049E+03   -0.24929E-04   -0.96928E-05  1384   0.325E-02    0.120E-02
DAV:   8    -0.482236624390E+03   -0.53410E-05   -0.18008E-05  1072   0.415E-02
  26 F= -.48223662E+03 E0= -.48220495E+03  d E =-.641785E-02
 trial-energy change:   -0.006418  1 .order   -0.006506   -0.009156   -0.003857
 step:   2.9263(harm=  2.6626)  dis= 0.01186  next Energy=  -482.238294 (dE=-0.809E-02)
 bond charge predicted
       N       E                     dE             d eps       ncg     rms          rms(c)
DAV:   1    -0.482233858060E+03    0.27610E-02   -0.27752E+00  1408   0.462E+00    0.458E-01
DAV:   2    -0.482240176754E+03   -0.63187E-02   -0.87246E-02  2040   0.133E+00    0.385E-01
DAV:   3    -0.482238298000E+03    0.18788E-02   -0.14604E-02  2240   0.989E-01    0.211E-01
DAV:   4    -0.482238131496E+03    0.16650E-03   -0.22644E-03  2144   0.338E-01    0.108E-01
DAV:   5    -0.482238269371E+03   -0.13787E-03   -0.11549E-03  2104   0.371E-01    0.853E-02
DAV:   6    -0.482238191660E+03    0.77711E-04   -0.42233E-04  1616   0.263E-01    0.229E-02
DAV:   7    -0.482238213346E+03   -0.21686E-04   -0.82341E-05  1384   0.301E-02    0.109E-02
DAV:   8    -0.482238218572E+03   -0.52259E-05   -0.15023E-05  1080   0.394E-02
  27 F= -.48223822E+03 E0= -.48220671E+03  d E =-.801203E-02
 curvature:  -9.10 expect dE=-0.312E-01 dE for cont linesearch -0.271E-04
 trial: gam= 0.67960 g(F)=  0.294E-02 g(S)=  0.486E-03 ort =-0.358E-03 (trialstep = 0.182E+01)
 search vector abs. value=  0.228E-01
 bond charge predicted
       N       E                     dE             d eps       ncg     rms          rms(c)
DAV:   1    -0.482237526109E+03    0.68724E-03   -0.25779E+00  1408   0.439E+00    0.345E-01
DAV:   2    -0.482242482539E+03   -0.49564E-02   -0.65409E-02  2032   0.965E-01    0.249E-01
DAV:   3    -0.482242138196E+03    0.34434E-03   -0.70112E-03  2160   0.667E-01    0.185E-01
DAV:   4    -0.482241972042E+03    0.16615E-03   -0.13974E-03  2168   0.319E-01    0.916E-02
DAV:   5    -0.482242076790E+03   -0.10475E-03   -0.67622E-04  2096   0.266E-01    0.618E-02
DAV:   6    -0.482242045532E+03    0.31257E-04   -0.29262E-04  1640   0.212E-01    0.197E-02
DAV:   7    -0.482242058104E+03   -0.12572E-04   -0.50095E-05  1248   0.431E-02    0.829E-03
DAV:   8    -0.482242062838E+03   -0.47345E-05   -0.10711E-05   968   0.254E-02
  28 F= -.48224206E+03 E0= -.48221056E+03  d E =-.384427E-02
 trial-energy change:   -0.003844  1 .order   -0.003736   -0.005789   -0.001683
 step:   2.4332(harm=  2.5631)  dis= 0.00693  next Energy=  -482.242352 (dE=-0.413E-02)
 bond charge predicted
       N       E                     dE             d eps       ncg     rms          rms(c)
DAV:   1    -0.482241909109E+03    0.14899E-03   -0.29564E-01  1408   0.149E+00    0.116E-01
DAV:   2    -0.482242488728E+03   -0.57962E-03   -0.75463E-03  2048   0.330E-01    0.847E-02
DAV:   3    -0.482242448614E+03    0.40115E-04   -0.79838E-04  2104   0.224E-01    0.626E-02
DAV:   4    -0.482242427322E+03    0.21292E-04   -0.15420E-04  1536   0.107E-01    0.304E-02
DAV:   5    -0.482242441491E+03   -0.14169E-04   -0.82927E-05  1408   0.958E-02    0.207E-02
DAV:   6    -0.482242438604E+03    0.28870E-05   -0.37788E-05  1152   0.786E-02
  29 F= -.48224244E+03 E0= -.48221093E+03  d E =-.422003E-02
 curvature:  -8.89 expect dE=-0.261E-01 dE for cont linesearch -0.418E-04
 trial: gam= 0.67948 g(F)=  0.254E-02 g(S)=  0.390E-03 ort = 0.327E-03 (trialstep = 0.194E+01)
 search vector abs. value=  0.139E-01
 bond charge predicted
       N       E                     dE             d eps       ncg     rms          rms(c)
DAV:   1    -0.482244278162E+03   -0.18367E-02   -0.17444E+00  1408   0.358E+00    0.249E-01
DAV:   2    -0.482247132651E+03   -0.28545E-02   -0.38350E-02  2064   0.694E-01    0.165E-01
DAV:   3    -0.482247076999E+03    0.55653E-04   -0.20507E-03  2192   0.227E-01    0.106E-01
DAV:   4    -0.482247142767E+03   -0.65768E-04   -0.76827E-04  2112   0.211E-01    0.808E-02
DAV:   5    -0.482247095985E+03    0.46782E-04   -0.36228E-04  1544   0.158E-01    0.275E-02
DAV:   6    -0.482247107273E+03   -0.11288E-04   -0.72790E-05  1456   0.588E-02    0.123E-02
DAV:   7    -0.482247108881E+03   -0.16078E-05   -0.23066E-05  1080   0.537E-02
  30 F= -.48224711E+03 E0= -.48221566E+03  d E =-.467028E-02
 trial-energy change:   -0.004670  1 .order   -0.004729   -0.006117   -0.003342
 step:   5.6695(harm=  4.2784)  dis= 0.01265  next Energy=  -482.249900 (dE=-0.746E-02)
 bond charge predicted
       N       E                     dE             d eps       ncg     rms          rms(c)
DAV:   1    -0.482238294107E+03    0.88132E-02   -0.64439E+00  1408   0.689E+00    0.484E-01
DAV:   2    -0.482248818250E+03   -0.10524E-01   -0.14063E-01  2064   0.132E+00    0.317E-01
DAV:   3    -0.482248517089E+03    0.30116E-03   -0.74989E-03  2216   0.434E-01    0.209E-01
DAV:   4    -0.482248722594E+03   -0.20550E-03   -0.30574E-03  2144   0.424E-01    0.165E-01
DAV:   5    -0.482248540324E+03    0.18227E-03   -0.14322E-03  2168   0.337E-01    0.554E-02
DAV:   6    -0.482248599776E+03   -0.59452E-04   -0.44991E-04  1656   0.196E-01    0.381E-02
DAV:   7    -0.482248588984E+03    0.10792E-04   -0.13151E-04  1344   0.137E-01    0.146E-02
DAV:   8    -0.482248598749E+03   -0.97646E-05   -0.30091E-05  1168   0.279E-02
  31 F= -.48224860E+03 E0= -.48221725E+03  d E =-.616015E-02
 curvature:  -6.09 expect dE=-0.367E-01 dE for cont linesearch -0.438E-03
 ZBRENT: interpolating
 opt :   4.2996  next Energy=  -482.249284 (dE=-0.685E-02)
 bond charge predicted
       N       E                     dE             d eps       ncg     rms          rms(c)
DAV:   1    -0.482247817668E+03    0.77132E-03   -0.86791E-01  1408   0.253E+00    0.174E-01
DAV:   2    -0.482249229939E+03   -0.14123E-02   -0.18854E-02  2064   0.480E-01    0.116E-01
DAV:   3    -0.482249203350E+03    0.26589E-04   -0.99266E-04  2216   0.152E-01    0.717E-02
DAV:   4    -0.482249238336E+03   -0.34986E-04   -0.34558E-04  2024   0.150E-01    0.532E-02
DAV:   5    -0.482249217794E+03    0.20542E-04   -0.16582E-04  1448   0.124E-01    0.185E-02
DAV:   6    -0.482249224969E+03   -0.71757E-05   -0.36400E-05  1280   0.482E-02
  32 F= -.48224922E+03 E0= -.48221784E+03  d E =-.678637E-02
 curvature:  -9.52 expect dE=-0.293E-01 dE for cont linesearch -0.896E-07
 trial: gam= 1.20864 g(F)=  0.305E-02 g(S)=  0.207E-04 ort = 0.114E-04 (trialstep = 0.143E+01)
 search vector abs. value=  0.234E-01
 bond charge predicted
       N       E                     dE             d eps       ncg     rms          rms(c)
DAV:   1    -0.482249673335E+03   -0.45554E-03   -0.16055E+00  1408   0.345E+00    0.253E-01
DAV:   2    -0.482252395919E+03   -0.27226E-02   -0.37057E-02  2040   0.696E-01    0.169E-01
DAV:   3    -0.482252279262E+03    0.11666E-03   -0.23130E-03  2240   0.298E-01    0.114E-01
DAV:   4    -0.482252303079E+03   -0.23817E-04   -0.80686E-04  2136   0.237E-01    0.734E-02
DAV:   5    -0.482252282070E+03    0.21010E-04   -0.29015E-04  1608   0.162E-01    0.262E-02
DAV:   6    -0.482252292194E+03   -0.10124E-04   -0.85549E-05  1432   0.501E-02    0.110E-02
DAV:   7    -0.482252293417E+03   -0.12234E-05   -0.19298E-05  1048   0.373E-02
  33 F= -.48225229E+03 E0= -.48222087E+03  d E =-.306845E-02
 trial-energy change:   -0.003068  1 .order   -0.003015   -0.004423   -0.001607
 step:   2.1325(harm=  2.2508)  dis= 0.00714  next Energy=  -482.252692 (dE=-0.347E-02)
 bond charge predicted
       N       E                     dE             d eps       ncg     rms          rms(c)
DAV:   1    -0.482252111506E+03    0.18069E-03   -0.38337E-01  1408   0.168E+00    0.124E-01
DAV:   2    -0.482252768536E+03   -0.65703E-03   -0.88465E-03  2008   0.337E-01    0.816E-02
DAV:   3    -0.482252748227E+03    0.20309E-04   -0.53855E-04  2224   0.143E-01    0.550E-02
DAV:   4    -0.482252757781E+03   -0.95540E-05   -0.18213E-04  1712   0.119E-01    0.355E-02
DAV:   5    -0.482252752780E+03    0.50009E-05   -0.68000E-05  1136   0.872E-02
  34 F= -.48225275E+03 E0= -.48222130E+03  d E =-.352781E-02
 curvature:  -8.35 expect dE=-0.142E-01 dE for cont linesearch -0.525E-04
 ZBRENT: increasing intervall
 opt :   3.5319  next Energy=  -482.252256 (dE=-0.303E-02)
 bond charge predicted
       N       E                     dE             d eps       ncg     rms          rms(c)
DAV:   1    -0.482249101814E+03    0.36560E-02   -0.15279E+00  1408   0.336E+00    0.249E-01
DAV:   2    -0.482251693682E+03   -0.25919E-02   -0.35139E-02  2040   0.677E-01    0.164E-01
DAV:   3    -0.482251607997E+03    0.85685E-04   -0.22713E-03  2200   0.289E-01    0.112E-01
DAV:   4    -0.482251626899E+03   -0.18902E-04   -0.76068E-04  2136   0.229E-01    0.714E-02
DAV:   5    -0.482251612381E+03    0.14518E-04   -0.26994E-04  1600   0.154E-01    0.259E-02
DAV:   6    -0.482251624789E+03   -0.12408E-04   -0.83300E-05  1440   0.469E-02    0.103E-02
DAV:   7    -0.482251626656E+03   -0.18670E-05   -0.13123E-05  1016   0.243E-02
  35 F= -.48225163E+03 E0= -.48222014E+03  d E =-.240169E-02
 curvature:  79.06 expect dE= 0.434E+00 dE for cont linesearch  0.108E-01
 ZBRENT: bracketing found
 ZBRENT: interpolating
 opt :   2.3801  next Energy=  -482.252800 (dE=-0.358E-02)
 bond charge predicted
       N       E                     dE             d eps       ncg     rms          rms(c)
DAV:   1    -0.482251019454E+03    0.60533E-03   -0.10362E+00  1408   0.277E+00    0.201E-01
DAV:   2    -0.482252821511E+03   -0.18021E-02   -0.24179E-02  2048   0.547E-01    0.136E-01
DAV:   3    -0.482252753166E+03    0.68346E-04   -0.14979E-03  2232   0.224E-01    0.921E-02
DAV:   4    -0.482252770697E+03   -0.17531E-04   -0.55739E-04  2120   0.186E-01    0.611E-02
DAV:   5    -0.482252755122E+03    0.15575E-04   -0.21253E-04  1536   0.134E-01    0.220E-02
DAV:   6    -0.482252762721E+03   -0.75988E-05   -0.63243E-05  1328   0.612E-02
  36 F= -.48225276E+03 E0= -.48222130E+03  d E =-.353775E-02
 curvature:  -0.35 expect dE=-0.733E-03 dE for cont linesearch -0.753E-06
 trial: gam= 0.73058 g(F)=  0.193E-02 g(S)=  0.175E-03 ort =-0.225E-03 (trialstep = 0.162E+01)
 search vector abs. value=  0.143E-01
 bond charge predicted
       N       E                     dE             d eps       ncg     rms          rms(c)
DAV:   1    -0.482252940556E+03   -0.18543E-03   -0.12957E+00  1408   0.311E+00    0.222E-01
DAV:   2    -0.482255332023E+03   -0.23915E-02   -0.30752E-02  2056   0.634E-01    0.154E-01
DAV:   3    -0.482255268949E+03    0.63074E-04   -0.25992E-03  2200   0.367E-01    0.122E-01
DAV:   4    -0.482255216646E+03    0.52303E-04   -0.59099E-04  2096   0.187E-01    0.629E-02
DAV:   5    -0.482255267300E+03   -0.50654E-04   -0.19015E-04  1968   0.111E-01    0.276E-02
DAV:   6    -0.482255276999E+03   -0.96994E-05   -0.89107E-05  1288   0.114E-01
  37 F= -.48225528E+03 E0= -.48222379E+03  d E =-.251428E-02
 trial-energy change:   -0.002514  1 .order   -0.002490   -0.003142   -0.001838
 step:   3.9096(harm=  3.9096)  dis= 0.01167  next Energy=  -482.256549 (dE=-0.379E-02)
 bond charge predicted
       N       E                     dE             d eps       ncg     rms          rms(c)
DAV:   1    -0.482251695918E+03    0.35714E-02   -0.25731E+00  1408   0.438E+00    0.316E-01
DAV:   2    -0.482256547764E+03   -0.48518E-02   -0.61399E-02  2040   0.896E-01    0.217E-01
DAV:   3    -0.482256452616E+03    0.95148E-04   -0.53000E-03  2192   0.537E-01    0.173E-01
DAV:   4    -0.482256347240E+03    0.10538E-03   -0.11708E-03  2200   0.290E-01    0.911E-02
DAV:   5    -0.482256468122E+03   -0.12088E-03   -0.51790E-04  2048   0.215E-01    0.501E-02
DAV:   6    -0.482256470319E+03   -0.21967E-05   -0.25483E-04  1608   0.195E-01    0.228E-02
DAV:   7    -0.482256475959E+03   -0.56397E-05   -0.46574E-05  1288   0.683E-02
  38 F= -.48225648E+03 E0= -.48222495E+03  d E =-.371324E-02
 curvature: -14.40 expect dE=-0.457E-01 dE for cont linesearch -0.430E-05
 trial: gam= 1.39341 g(F)=  0.304E-02 g(S)=  0.129E-03 ort =-0.653E-04 (trialstep = 0.967E+00)
 search vector abs. value=  0.307E-01
 bond charge predicted
       N       E                     dE             d eps       ncg     rms          rms(c)
DAV:   1    -0.482257254369E+03   -0.78405E-03   -0.98995E-01  1408   0.271E+00    0.205E-01
DAV:   2    -0.482259052131E+03   -0.17978E-02   -0.23619E-02  2024   0.543E-01    0.133E-01
DAV:   3    -0.482259028465E+03    0.23666E-04   -0.20389E-03  2200   0.350E-01    0.110E-01
DAV:   4    -0.482258990325E+03    0.38140E-04   -0.44293E-04  2072   0.190E-01    0.619E-02
DAV:   5    -0.482259043629E+03   -0.53305E-04   -0.14054E-04  1472   0.111E-01    0.308E-02
DAV:   6    -0.482259060178E+03   -0.16549E-04   -0.11804E-04  1488   0.119E-01    0.170E-02
DAV:   7    -0.482259060908E+03   -0.72954E-06   -0.25810E-05  1136   0.601E-02
  39 F= -.48225906E+03 E0= -.48222757E+03  d E =-.258495E-02
 trial-energy change:   -0.002585  1 .order   -0.002592   -0.002979   -0.002206
 step:   3.7229(harm=  3.7229)  dis= 0.01636  next Energy=  -482.262213 (dE=-0.574E-02)
 bond charge predicted
       N       E                     dE             d eps       ncg     rms          rms(c)
DAV:   1    -0.482247328986E+03    0.11731E-01   -0.80342E+00  1408   0.773E+00    0.600E-01
DAV:   2    -0.482262080894E+03   -0.14752E-01   -0.19123E-01  2000   0.153E+00    0.377E-01
DAV:   3    -0.482261812778E+03    0.26812E-03   -0.16304E-02  2192   0.968E-01    0.314E-01
DAV:   4    -0.482261381730E+03    0.43105E-03   -0.36419E-03  2184   0.538E-01    0.182E-01
DAV:   5    -0.482261689489E+03   -0.30776E-03   -0.13123E-03  2136   0.343E-01    0.953E-02
DAV:   6    -0.482261787800E+03   -0.98311E-04   -0.84946E-04  2120   0.342E-01    0.499E-02
DAV:   7    -0.482261791538E+03   -0.37383E-05   -0.20153E-04  1560   0.157E-01    0.158E-02
DAV:   8    -0.482261800460E+03   -0.89217E-05   -0.49298E-05  1200   0.258E-02
  40 F= -.48226180E+03 E0= -.48223040E+03  d E =-.532450E-02
 curvature: -18.53 expect dE=-0.554E-01 dE for cont linesearch -0.549E-04
 trial: gam= 1.03033 g(F)=  0.292E-02 g(S)=  0.684E-04 ort =-0.302E-03 (trialstep = 0.133E+01)
 search vector abs. value=  0.349E-01
 bond charge predicted
       N       E                     dE             d eps       ncg     rms          rms(c)
DAV:   1    -0.482260690315E+03    0.11012E-02   -0.21088E+00  1408   0.398E+00    0.340E-01
DAV:   2    -0.482264906137E+03   -0.42158E-02   -0.56708E-02  2032   0.905E-01    0.234E-01
DAV:   3    -0.482264586139E+03    0.32000E-03   -0.66034E-03  2176   0.640E-01    0.179E-01
DAV:   4    -0.482264444141E+03    0.14200E-03   -0.11760E-03  2192   0.276E-01    0.957E-02
DAV:   5    -0.482264576483E+03   -0.13234E-03   -0.48609E-04  1992   0.212E-01    0.589E-02
DAV:   6    -0.482264577176E+03   -0.69239E-06   -0.28107E-04  1584   0.212E-01    0.240E-02
DAV:   7    -0.482264586823E+03   -0.96468E-05   -0.59784E-05  1304   0.679E-02
  41 F= -.48226459E+03 E0= -.48223317E+03  d E =-.278636E-02
 trial-energy change:   -0.002786  1 .order   -0.002761   -0.003569   -0.001953
 step:   2.9435(harm=  2.9435)  dis= 0.01247  next Energy=  -482.265741 (dE=-0.394E-02)
 bond charge predicted
       N       E                     dE             d eps       ncg     rms          rms(c)
DAV:   1    -0.482259856364E+03    0.47208E-02   -0.30727E+00  1408   0.481E+00    0.412E-01
DAV:   2    -0.482266011646E+03   -0.61553E-02   -0.82408E-02  2024   0.108E+00    0.283E-01
DAV:   3    -0.482265552317E+03    0.45933E-03   -0.97386E-03  2168   0.774E-01    0.217E-01
DAV:   4    -0.482265340537E+03    0.21178E-03   -0.17511E-03  2176   0.338E-01    0.117E-01
DAV:   5    -0.482265527766E+03   -0.18723E-03   -0.73982E-04  2080   0.268E-01    0.737E-02
DAV:   6    -0.482265520886E+03    0.68806E-05   -0.42294E-04  1680   0.260E-01    0.285E-02
DAV:   7    -0.482265537475E+03   -0.16589E-04   -0.87450E-05  1352   0.764E-02    0.934E-03
DAV:   8    -0.482265541462E+03   -0.39874E-05   -0.15950E-05  1048   0.180E-02
  42 F= -.48226554E+03 E0= -.48223410E+03  d E =-.374100E-02
 curvature: -19.21 expect dE=-0.577E-01 dE for cont linesearch -0.259E-04
 trial: gam= 0.94277 g(F)=  0.283E-02 g(S)=  0.178E-03 ort =-0.217E-03 (trialstep = 0.166E+01)
 search vector abs. value=  0.337E-01
 bond charge predicted
       N       E                     dE             d eps       ncg     rms          rms(c)
DAV:   1    -0.482263246953E+03    0.22905E-02   -0.30504E+00  1408   0.481E+00    0.418E-01
DAV:   2    -0.482269484630E+03   -0.62377E-02   -0.85277E-02  2048   0.116E+00    0.303E-01
DAV:   3    -0.482268793095E+03    0.69153E-03   -0.10751E-02  2112   0.823E-01    0.218E-01
DAV:   4    -0.482268569865E+03    0.22323E-03   -0.17864E-03  2136   0.322E-01    0.111E-01
DAV:   5    -0.482268746221E+03   -0.17636E-03   -0.81041E-04  2120   0.273E-01    0.712E-02
DAV:   6    -0.482268720614E+03    0.25607E-04   -0.42698E-04  1664   0.259E-01    0.257E-02
DAV:   7    -0.482268734692E+03   -0.14078E-04   -0.72976E-05  1288   0.654E-02    0.878E-03
DAV:   8    -0.482268739331E+03   -0.46390E-05   -0.10801E-05   992   0.204E-02
  43 F= -.48226874E+03 E0= -.48223725E+03  d E =-.319787E-02
 trial-energy change:   -0.003198  1 .order   -0.003150   -0.004632   -0.001667
 step:   2.4680(harm=  2.5859)  dis= 0.00979  next Energy=  -482.269154 (dE=-0.361E-02)
 bond charge predicted
       N       E                     dE             d eps       ncg     rms          rms(c)
DAV:   1    -0.482267920051E+03    0.81464E-03   -0.73624E-01  1408   0.237E+00    0.204E-01
DAV:   2    -0.482269430957E+03   -0.15109E-02   -0.20710E-02  2048   0.576E-01    0.150E-01
DAV:   3    -0.482269262711E+03    0.16825E-03   -0.25792E-03  2128   0.402E-01    0.107E-01
DAV:   4    -0.482269214882E+03    0.47829E-04   -0.42453E-04  2072   0.155E-01    0.541E-02
DAV:   5    -0.482269260053E+03   -0.45171E-04   -0.17475E-04  1552   0.128E-01    0.337E-02
DAV:   6    -0.482269256724E+03    0.33284E-05   -0.10989E-04  1424   0.129E-01    0.125E-02
DAV:   7    -0.482269260788E+03   -0.40636E-05   -0.17798E-05  1088   0.356E-02
  44 F= -.48226926E+03 E0= -.48223774E+03  d E =-.371933E-02
 curvature: -15.30 expect dE=-0.312E-01 dE for cont linesearch -0.335E-04
 trial: gam= 0.54000 g(F)=  0.187E-02 g(S)=  0.162E-03 ort = 0.272E-03 (trialstep = 0.182E+01)
 search vector abs. value=  0.121E-01
 bond charge predicted
       N       E                     dE             d eps       ncg     rms          rms(c)
DAV:   1    -0.482269953083E+03   -0.69636E-03   -0.12871E+00  1408   0.312E+00    0.246E-01
DAV:   2    -0.482272276431E+03   -0.23233E-02   -0.32094E-02  2056   0.646E-01    0.162E-01
DAV:   3    -0.482272200115E+03    0.76316E-04   -0.25915E-03  2160   0.367E-01    0.126E-01
DAV:   4    -0.482272124708E+03    0.75408E-04   -0.74163E-04  2200   0.224E-01    0.677E-02
DAV:   5    -0.482272145226E+03   -0.20518E-04   -0.21780E-04  1944   0.123E-01    0.281E-02
DAV:   6    -0.482272154781E+03   -0.95555E-05   -0.97483E-05  1256   0.112E-01
  45 F= -.48227215E+03 E0= -.48224064E+03  d E =-.289399E-02
 trial-energy change:   -0.002894  1 .order   -0.002958   -0.003969   -0.001947
 step:   3.5682(harm=  3.5682)  dis= 0.00761  next Energy=  -482.273156 (dE=-0.390E-02)
 bond charge predicted
       N       E                     dE             d eps       ncg     rms          rms(c)
DAV:   1    -0.482270917909E+03    0.12273E-02   -0.11924E+00  1408   0.301E+00    0.238E-01
DAV:   2    -0.482273150863E+03   -0.22330E-02   -0.30499E-02  2056   0.646E-01    0.156E-01
DAV:   3    -0.482273091590E+03    0.59273E-04   -0.24444E-03  2144   0.354E-01    0.122E-01
DAV:   4    -0.482273023654E+03    0.67936E-04   -0.69899E-04  2176   0.217E-01    0.657E-02
DAV:   5    -0.482273044554E+03   -0.20900E-04   -0.20609E-04  1928   0.120E-01    0.277E-02
DAV:   6    -0.482273054284E+03   -0.97300E-05   -0.93943E-05  1216   0.111E-01
  46 F= -.48227305E+03 E0= -.48224154E+03  d E =-.379350E-02
 curvature:  -9.92 expect dE=-0.202E-01 dE for cont linesearch -0.150E-06
 trial: gam= 1.15119 g(F)=  0.201E-02 g(S)=  0.328E-04 ort = 0.135E-04 (trialstep = 0.145E+01)
 search vector abs. value=  0.182E-01
 bond charge predicted
       N       E                     dE             d eps       ncg     rms          rms(c)
DAV:   1    -0.482272969239E+03    0.75315E-04   -0.12520E+00  1408   0.309E+00    0.236E-01
DAV:   2    -0.482275440728E+03   -0.24715E-02   -0.32236E-02  2008   0.662E-01    0.159E-01
DAV:   3    -0.482275379116E+03    0.61612E-04   -0.28327E-03  2176   0.389E-01    0.127E-01
DAV:   4    -0.482275300767E+03    0.78350E-04   -0.66179E-04  2160   0.205E-01    0.653E-02
DAV:   5    -0.482275346840E+03   -0.46073E-04   -0.23967E-04  1776   0.141E-01    0.342E-02
DAV:   6    -0.482275349340E+03   -0.24997E-05   -0.13441E-04  1472   0.143E-01    0.176E-02
DAV:   7    -0.482275351455E+03   -0.21150E-05   -0.27211E-05  1200   0.584E-02
  47 F= -.48227535E+03 E0= -.48224385E+03  d E =-.229717E-02
 trial-energy change:   -0.002297  1 .order   -0.002325   -0.002977   -0.001672
 step:   3.3062(harm=  3.3062)  dis= 0.00798  next Energy=  -482.276450 (dE=-0.340E-02)
 bond charge predicted
       N       E                     dE             d eps       ncg     rms          rms(c)
DAV:   1    -0.482272650668E+03    0.26987E-02   -0.20572E+00  1408   0.395E+00    0.303E-01
DAV:   2    -0.482276625665E+03   -0.39750E-02   -0.52261E-02  2016   0.825E-01    0.205E-01
DAV:   3    -0.482276504000E+03    0.12166E-03   -0.47278E-03  2176   0.498E-01    0.164E-01
DAV:   4    -0.482276361629E+03    0.14237E-03   -0.11067E-03  2184   0.252E-01    0.830E-02
DAV:   5    -0.482276427375E+03   -0.65746E-04   -0.34899E-04  2080   0.151E-01    0.393E-02
DAV:   6    -0.482276437172E+03   -0.97964E-05   -0.18527E-04  1504   0.167E-01    0.248E-02
DAV:   7    -0.482276434982E+03    0.21892E-05   -0.43624E-05  1216   0.825E-02
  48 F= -.48227643E+03 E0= -.48224495E+03  d E =-.338070E-02
 curvature: -14.62 expect dE=-0.343E-01 dE for cont linesearch -0.793E-07
 trial: gam= 1.05639 g(F)=  0.225E-02 g(S)=  0.100E-03 ort = 0.992E-05 (trialstep = 0.146E+01)
 search vector abs. value=  0.226E-01
 bond charge predicted
       N       E                     dE             d eps       ncg     rms          rms(c)
DAV:   1    -0.482276004718E+03    0.43245E-03   -0.16885E+00  1408   0.357E+00    0.259E-01
DAV:   2    -0.482279278727E+03   -0.32740E-02   -0.41718E-02  2016   0.723E-01    0.175E-01
DAV:   3    -0.482279202609E+03    0.76118E-04   -0.34024E-03  2208   0.418E-01    0.140E-01
DAV:   4    -0.482279123626E+03    0.78983E-04   -0.78260E-04  2152   0.215E-01    0.741E-02
DAV:   5    -0.482279180903E+03   -0.57277E-04   -0.22755E-04  1976   0.112E-01    0.300E-02
DAV:   6    -0.482279197887E+03   -0.16985E-04   -0.10982E-04  1336   0.122E-01    0.213E-02
DAV:   7    -0.482279195049E+03    0.28382E-05   -0.33177E-05  1168   0.751E-02
  49 F= -.48227920E+03 E0= -.48224766E+03  d E =-.276007E-02
 trial-energy change:   -0.002760  1 .order   -0.002751   -0.003447   -0.002055
 step:   3.6157(harm=  3.6157)  dis= 0.01095  next Energy=  -482.280702 (dE=-0.427E-02)
 bond charge predicted
       N       E                     dE             d eps       ncg     rms          rms(c)
DAV:   1    -0.482273786714E+03    0.54112E-02   -0.36731E+00  1408   0.526E+00    0.385E-01
DAV:   2    -0.482280907320E+03   -0.71206E-02   -0.90700E-02  2008   0.107E+00    0.257E-01
DAV:   3    -0.482280728361E+03    0.17896E-03   -0.73375E-03  2224   0.617E-01    0.206E-01
DAV:   4    -0.482280544693E+03    0.18367E-03   -0.16646E-03  2160   0.317E-01    0.109E-01
DAV:   5    -0.482280652063E+03   -0.10737E-03   -0.49192E-04  2056   0.159E-01    0.436E-02
DAV:   6    -0.482280688770E+03   -0.36708E-04   -0.23650E-04  1592   0.171E-01    0.308E-02
DAV:   7    -0.482280680823E+03    0.79471E-05   -0.68450E-05  1192   0.108E-01
  50 F= -.48228068E+03 E0= -.48224907E+03  d E =-.424584E-02
 curvature: -17.34 expect dE=-0.500E-01 dE for cont linesearch -0.556E-06
 trial: gam= 1.26969 g(F)=  0.268E-02 g(S)=  0.208E-03 ort =-0.269E-04 (trialstep = 0.109E+01)
 search vector abs. value=  0.393E-01
 bond charge predicted
       N       E                     dE             d eps       ncg     rms          rms(c)
DAV:   1    -0.482280233413E+03    0.45536E-03   -0.16398E+00  1408   0.350E+00    0.241E-01
DAV:   2    -0.482283300806E+03   -0.30674E-02   -0.37999E-02  2032   0.680E-01    0.153E-01
DAV:   3    -0.482283250364E+03    0.50443E-04   -0.20335E-03  2144   0.297E-01    0.116E-01
DAV:   4    -0.482283267097E+03   -0.16733E-04   -0.63716E-04  2168   0.218E-01    0.788E-02
DAV:   5    -0.482283288396E+03   -0.21299E-04   -0.19359E-04  1488   0.138E-01    0.325E-02
DAV:   6    -0.482283316038E+03   -0.27643E-04   -0.12477E-04  1680   0.890E-02    0.161E-02
DAV:   7    -0.482283314894E+03    0.11444E-05   -0.29223E-05  1144   0.630E-02
  51 F= -.48228331E+03 E0= -.48225165E+03  d E =-.263407E-02
 trial-energy change:   -0.002634  1 .order   -0.002611   -0.003104   -0.002117
 step:   3.4256(harm=  3.4256)  dis= 0.01467  next Energy=  -482.285562 (dE=-0.488E-02)
 bond charge predicted
       N       E                     dE             d eps       ncg     rms          rms(c)
DAV:   1    -0.482271788051E+03    0.11528E-01   -0.75389E+00  1408   0.750E+00    0.525E-01
DAV:   2    -0.482285733724E+03   -0.13946E-01   -0.17330E-01  2048   0.143E+00    0.328E-01
DAV:   3    -0.482285509595E+03    0.22413E-03   -0.92201E-03  2200   0.606E-01    0.250E-01
DAV:   4    -0.482285572625E+03   -0.63030E-04   -0.29493E-03  2176   0.458E-01    0.171E-01
DAV:   5    -0.482285619741E+03   -0.47116E-04   -0.98153E-04  2184   0.297E-01    0.708E-02
DAV:   6    -0.482285732974E+03   -0.11323E-03   -0.44587E-04  2000   0.167E-01    0.335E-02
DAV:   7    -0.482285727925E+03    0.50489E-05   -0.11824E-04  1408   0.123E-01    0.163E-02
DAV:   8    -0.482285730072E+03   -0.21468E-05   -0.21767E-05  1088   0.395E-02
  52 F= -.48228573E+03 E0= -.48225394E+03  d E =-.504925E-02
 curvature: -23.63 expect dE=-0.643E-01 dE for cont linesearch -0.127E-04
 trial: gam= 0.87686 g(F)=  0.268E-02 g(S)=  0.403E-04 ort =-0.145E-03 (trialstep = 0.156E+01)
 search vector abs. value=  0.327E-01
 bond charge predicted
       N       E                     dE             d eps       ncg     rms          rms(c)
DAV:   1    -0.482283771102E+03    0.19568E-02   -0.27190E+00  1408   0.451E+00    0.314E-01
DAV:   2    -0.482288891351E+03   -0.51202E-02   -0.61922E-02  2008   0.888E-01    0.200E-01
DAV:   3    -0.482288731133E+03    0.16022E-03   -0.26748E-03  2168   0.272E-01    0.136E-01
DAV:   4    -0.482288849382E+03   -0.11825E-03   -0.96781E-04  2160   0.284E-01    0.108E-01
DAV:   5    -0.482288822558E+03    0.26824E-04   -0.51846E-04  1712   0.242E-01    0.443E-02
DAV:   6    -0.482288864139E+03   -0.41581E-04   -0.14988E-04  1928   0.886E-02    0.162E-02
DAV:   7    -0.482288865164E+03   -0.10256E-05   -0.34225E-05  1192   0.554E-02
  53 F= -.48228887E+03 E0= -.48225705E+03  d E =-.313509E-02
 trial-energy change:   -0.003135  1 .order   -0.002874   -0.004036   -0.001713
 step:   2.1510(harm=  2.7040)  dis= 0.00783  next Energy=  -482.289207 (dE=-0.348E-02)
 bond charge predicted
       N       E                     dE             d eps       ncg     rms          rms(c)
DAV:   1    -0.482288634359E+03    0.22978E-03   -0.39675E-01  1408   0.172E+00    0.122E-01
DAV:   2    -0.482289397294E+03   -0.76294E-03   -0.92152E-03  2024   0.344E-01    0.761E-02
DAV:   3    -0.482289377445E+03    0.19849E-04   -0.40490E-04  2136   0.126E-01    0.518E-02
DAV:   4    -0.482289396392E+03   -0.18947E-04   -0.13585E-04  1632   0.136E-01    0.386E-02
DAV:   5    -0.482289397210E+03   -0.81796E-06   -0.78868E-05  1216   0.122E-01
  54 F= -.48228940E+03 E0= -.48225756E+03  d E =-.366714E-02
 curvature: -13.09 expect dE=-0.160E-01 dE for cont linesearch -0.272E-03
 ZBRENT: increasing intervall
 opt :   3.3397  next Energy=  -482.290050 (dE=-0.432E-02)
 bond charge predicted
       N       E                     dE             d eps       ncg     rms          rms(c)
DAV:   1    -0.482286363958E+03    0.30324E-02   -0.15767E+00  1408   0.344E+00    0.241E-01
DAV:   2    -0.482289380003E+03   -0.30160E-02   -0.36409E-02  2016   0.691E-01    0.151E-01
DAV:   3    -0.482289297004E+03    0.82999E-04   -0.16043E-03  2160   0.247E-01    0.102E-01
DAV:   4    -0.482289365887E+03   -0.68883E-04   -0.58273E-04  2144   0.274E-01    0.775E-02
DAV:   5    -0.482289360762E+03    0.51243E-05   -0.30195E-04  1560   0.229E-01    0.333E-02
DAV:   6    -0.482289384107E+03   -0.23344E-04   -0.78477E-05  1544   0.713E-02    0.114E-02
DAV:   7    -0.482289385526E+03   -0.14199E-05   -0.22855E-05  1040   0.427E-02
  55 F= -.48228939E+03 E0= -.48225751E+03  d E =-.365545E-02
 curvature: -31.38 expect dE=-0.911E-01 dE for cont linesearch -0.377E-03
 ZBRENT: bracketing found
 ZBRENT: interpolating
 opt :   2.8264  next Energy=  -482.289546 (dE=-0.382E-02)
 bond charge predicted
       N       E                     dE             d eps       ncg     rms          rms(c)
DAV:   1    -0.482289042872E+03    0.34123E-03   -0.29504E-01  1408   0.148E+00    0.100E-01
DAV:   2    -0.482289577727E+03   -0.53485E-03   -0.65390E-03  2016   0.288E-01    0.662E-02
DAV:   3    -0.482289560031E+03    0.17695E-04   -0.28983E-04  2104   0.945E-02    0.447E-02
DAV:   4    -0.482289573059E+03   -0.13028E-04   -0.92006E-05  1464   0.990E-02    0.351E-02
DAV:   5    -0.482289571839E+03    0.12198E-05   -0.62692E-05  1248   0.890E-02
  56 F= -.48228957E+03 E0= -.48225771E+03  d E =-.384177E-02
 curvature: -13.39 expect dE=-0.271E-01 dE for cont linesearch -0.350E-04
 trial: gam= 0.85004 g(F)=  0.191E-02 g(S)=  0.118E-03 ort =-0.292E-03 (trialstep = 0.181E+01)
 search vector abs. value=  0.251E-01
 bond charge predicted
       N       E                     dE             d eps       ncg     rms          rms(c)
DAV:   1    -0.482286688947E+03    0.28841E-02   -0.27930E+00  1408   0.458E+00    0.339E-01
DAV:   2    -0.482292079191E+03   -0.53902E-02   -0.67497E-02  2040   0.876E-01    0.220E-01
DAV:   3    -0.482291867890E+03    0.21130E-03   -0.45651E-03  2192   0.453E-01    0.175E-01
DAV:   4    -0.482291779862E+03    0.88028E-04   -0.14651E-03  2200   0.279E-01    0.104E-01
DAV:   5    -0.482291833502E+03   -0.53640E-04   -0.39875E-04  2088   0.158E-01    0.446E-02
DAV:   6    -0.482291873170E+03   -0.39668E-04   -0.21245E-04  1536   0.143E-01    0.263E-02
DAV:   7    -0.482291868615E+03    0.45548E-05   -0.64931E-05  1192   0.102E-01
  57 F= -.48229187E+03 E0= -.48225997E+03  d E =-.229678E-02
 trial-energy change:   -0.002297  1 .order   -0.002226   -0.003215   -0.001237
 step:   2.6704(harm=  2.9431)  dis= 0.00980  next Energy=  -482.292170 (dE=-0.260E-02)
 bond charge predicted
       N       E                     dE             d eps       ncg     rms          rms(c)
DAV:   1    -0.482290920462E+03    0.95271E-03   -0.62815E-01  1408   0.218E+00    0.162E-01
DAV:   2    -0.482292160963E+03   -0.12405E-02   -0.15378E-02  2048   0.416E-01    0.103E-01
DAV:   3    -0.482292122852E+03    0.38111E-04   -0.10302E-03  2128   0.216E-01    0.824E-02
DAV:   4    -0.482292109046E+03    0.13807E-04   -0.32410E-04  1968   0.136E-01    0.488E-02
DAV:   5    -0.482292125452E+03   -0.16406E-04   -0.76428E-05  1312   0.753E-02    0.210E-02
DAV:   6    -0.482292137728E+03   -0.12277E-04   -0.58405E-05  1360   0.702E-02    0.122E-02
DAV:   7    -0.482292137331E+03    0.39724E-06   -0.18840E-05  1008   0.514E-02
  58 F= -.48229214E+03 E0= -.48226022E+03  d E =-.256549E-02
 curvature: -19.63 expect dE=-0.283E-01 dE for cont linesearch -0.336E-05
 trial: gam= 0.56980 g(F)=  0.133E-02 g(S)=  0.114E-03 ort = 0.656E-04 (trialstep = 0.198E+01)
 search vector abs. value=  0.968E-02
 bond charge predicted
       N       E                     dE             d eps       ncg     rms          rms(c)
DAV:   1    -0.482291980737E+03    0.15699E-03   -0.12475E+00  1408   0.309E+00    0.270E-01
DAV:   2    -0.482294509220E+03   -0.25285E-02   -0.35231E-02  2088   0.741E-01    0.205E-01
DAV:   3    -0.482294151347E+03    0.35787E-03   -0.47374E-03  2136   0.539E-01    0.142E-01
DAV:   4    -0.482294046916E+03    0.10443E-03   -0.78254E-04  2112   0.207E-01    0.707E-02
DAV:   5    -0.482294111315E+03   -0.64399E-04   -0.36207E-04  1992   0.182E-01    0.467E-02
DAV:   6    -0.482294096149E+03    0.15166E-04   -0.18206E-04  1440   0.169E-01    0.164E-02
DAV:   7    -0.482294102519E+03   -0.63698E-05   -0.26542E-05  1128   0.427E-02
  59 F= -.48229410E+03 E0= -.48226215E+03  d E =-.196519E-02
 trial-energy change:   -0.001965  1 .order   -0.002017   -0.002928   -0.001106
 step:   3.7635(harm=  3.1862)  dis= 0.00871  next Energy=  -482.294562 (dE=-0.242E-02)
 bond charge predicted
       N       E                     dE             d eps       ncg     rms          rms(c)
DAV:   1    -0.482292631528E+03    0.14646E-02   -0.10069E+00  1408   0.278E+00    0.243E-01
DAV:   2    -0.482294681976E+03   -0.20504E-02   -0.28530E-02  2080   0.671E-01    0.185E-01
DAV:   3    -0.482294382801E+03    0.29917E-03   -0.38247E-03  2152   0.487E-01    0.127E-01
DAV:   4    -0.482294301713E+03    0.81088E-04   -0.63992E-04  2064   0.190E-01    0.638E-02
DAV:   5    -0.482294355705E+03   -0.53992E-04   -0.29889E-04  1880   0.172E-01    0.433E-02
DAV:   6    -0.482294343162E+03    0.12543E-04   -0.15276E-04  1464   0.155E-01    0.142E-02
DAV:   7    -0.482294349610E+03   -0.64475E-05   -0.22228E-05  1152   0.355E-02
  60 F= -.48229435E+03 E0= -.48226236E+03  d E =-.221228E-02
 curvature:  -8.04 expect dE=-0.148E-01 dE for cont linesearch -0.497E-04
 ZBRENT: interpolating
 opt :   3.2208  next Energy=  -482.294416 (dE=-0.228E-02)
 bond charge predicted
       N       E                     dE             d eps       ncg     rms          rms(c)
DAV:   1    -0.482294275439E+03    0.67723E-04   -0.93484E-02  1408   0.847E-01    0.734E-02
DAV:   2    -0.482294463226E+03   -0.18779E-03   -0.26495E-03  2104   0.207E-01    0.564E-02
DAV:   3    -0.482294436180E+03    0.27046E-04   -0.34424E-04  1792   0.144E-01    0.392E-02
DAV:   4    -0.482294427235E+03    0.89447E-05   -0.55003E-05  1232   0.572E-02
  61 F= -.48229443E+03 E0= -.48226245E+03  d E =-.228990E-02
 curvature: -10.74 expect dE=-0.143E-01 dE for cont linesearch -0.229E-04
 trial: gam= 1.00925 g(F)=  0.131E-02 g(S)=  0.203E-04 ort =-0.144E-03 (trialstep = 0.198E+01)
 search vector abs. value=  0.109E-01
 bond charge predicted
       N       E                     dE             d eps       ncg     rms          rms(c)
DAV:   1    -0.482293668751E+03    0.76743E-03   -0.14137E+00  1408   0.326E+00    0.254E-01
DAV:   2    -0.482296278970E+03   -0.26102E-02   -0.34980E-02  2008   0.663E-01    0.170E-01
DAV:   3    -0.482296170224E+03    0.10875E-03   -0.32760E-03  2184   0.410E-01    0.136E-01
DAV:   4    -0.482296062813E+03    0.10741E-03   -0.80824E-04  2128   0.210E-01    0.690E-02
DAV:   5    -0.482296094884E+03   -0.32072E-04   -0.19416E-04  2016   0.870E-02    0.267E-02
DAV:   6    -0.482296111255E+03   -0.16370E-04   -0.70474E-05  1272   0.893E-02    0.175E-02
DAV:   7    -0.482296110575E+03    0.67958E-06   -0.27693E-05  1160   0.690E-02
  62 F= -.48229611E+03 E0= -.48226405E+03  d E =-.168334E-02
 trial-energy change:   -0.001683  1 .order   -0.001573   -0.002345   -0.000801
 step:   2.6351(harm=  3.0082)  dis= 0.00638  next Energy=  -482.296247 (dE=-0.182E-02)
 bond charge predicted
       N       E                     dE             d eps       ncg     rms          rms(c)
DAV:   1    -0.482295996657E+03    0.11460E-03   -0.15384E-01  1408   0.108E+00    0.840E-02
DAV:   2    -0.482296285196E+03   -0.28854E-03   -0.38372E-03  2016   0.220E-01    0.559E-02
DAV:   3    -0.482296277373E+03    0.78234E-05   -0.35979E-04  1992   0.140E-01    0.454E-02
DAV:   4    -0.482296266582E+03    0.10791E-04   -0.78990E-05  1272   0.795E-02    0.235E-02
DAV:   5    -0.482296273447E+03   -0.68656E-05   -0.40009E-05  1152   0.575E-02
  63 F= -.48229627E+03 E0= -.48226420E+03  d E =-.184621E-02
 curvature: -12.02 expect dE=-0.126E-01 dE for cont linesearch -0.537E-04
 ZBRENT: increasing intervall
 opt :   3.9437  next Energy=  -482.296322 (dE=-0.189E-02)
 bond charge predicted
       N       E                     dE             d eps       ncg     rms          rms(c)
DAV:   1    -0.482294943155E+03    0.13234E-02   -0.61294E-01  1408   0.215E+00    0.170E-01
DAV:   2    -0.482296071379E+03   -0.11282E-02   -0.15237E-02  2008   0.438E-01    0.113E-01
DAV:   3    -0.482296035944E+03    0.35434E-04   -0.14745E-03  2160   0.273E-01    0.916E-02
DAV:   4    -0.482295992972E+03    0.42973E-04   -0.36000E-04  1944   0.141E-01    0.463E-02
DAV:   5    -0.482296011395E+03   -0.18423E-04   -0.75439E-05  1472   0.591E-02    0.185E-02
DAV:   6    -0.482296021739E+03   -0.10344E-04   -0.48514E-05  1320   0.707E-02    0.126E-02
DAV:   7    -0.482296020616E+03    0.11231E-05   -0.14974E-05   952   0.495E-02
  64 F= -.48229602E+03 E0= -.48226388E+03  d E =-.159338E-02
 curvature: -10.78 expect dE=-0.262E-01 dE for cont linesearch -0.218E-03
 ZBRENT: bracketing found
 ZBRENT: interpolating
 opt :   3.0531  next Energy=  -482.296320 (dE=-0.189E-02)
 bond charge predicted
       N       E                     dE             d eps       ncg     rms          rms(c)
DAV:   1    -0.482295788410E+03    0.23333E-03   -0.28464E-01  1408   0.146E+00    0.113E-01
DAV:   2    -0.482296319177E+03   -0.53077E-03   -0.71491E-03  2008   0.302E-01    0.779E-02
DAV:   3    -0.482296294036E+03    0.25141E-04   -0.65592E-04  2136   0.190E-01    0.618E-02
DAV:   4    -0.482296271400E+03    0.22636E-04   -0.15399E-04  1488   0.105E-01    0.315E-02
DAV:   5    -0.482296281877E+03   -0.10477E-04   -0.76102E-05  1416   0.789E-02    0.174E-02
DAV:   6    -0.482296281347E+03    0.53052E-06   -0.34635E-05  1160   0.751E-02
  65 F= -.48229628E+03 E0= -.48226418E+03  d E =-.185411E-02
 curvature:  -2.28 expect dE=-0.319E-02 dE for cont linesearch -0.412E-05
 trial: gam= 1.08519 g(F)=  0.133E-02 g(S)=  0.720E-04 ort =-0.141E-03 (trialstep = 0.172E+01)
 search vector abs. value=  0.139E-01
 bond charge predicted
       N       E                     dE             d eps       ncg     rms          rms(c)
DAV:   1    -0.482295621072E+03    0.66080E-03   -0.13888E+00  1408   0.320E+00    0.216E-01
DAV:   2    -0.482298017820E+03   -0.23967E-02   -0.29877E-02  2016   0.578E-01    0.140E-01
DAV:   3    -0.482297928803E+03    0.89017E-04   -0.12533E-03  2200   0.148E-01    0.894E-02
DAV:   4    -0.482297962326E+03   -0.33522E-04   -0.27728E-04  2096   0.109E-01    0.456E-02
DAV:   5    -0.482297988792E+03   -0.26466E-04   -0.16245E-04  1552   0.153E-01    0.306E-02
DAV:   6    -0.482297985018E+03    0.37738E-05   -0.60449E-05  1128   0.987E-02
  66 F= -.48229799E+03 E0= -.48226582E+03  d E =-.170367E-02
 trial-energy change:   -0.001704  1 .order   -0.001757   -0.002145   -0.001369
 step:   4.7466(harm=  4.7466)  dis= 0.01502  next Energy=  -482.299246 (dE=-0.296E-02)
 bond charge predicted
       N       E                     dE             d eps       ncg     rms          rms(c)
DAV:   1    -0.482291002866E+03    0.69859E-02   -0.43147E+00  1408   0.565E+00    0.386E-01
DAV:   2    -0.482298497690E+03   -0.74948E-02   -0.92627E-02  2032   0.101E+00    0.246E-01
DAV:   3    -0.482298273244E+03    0.22445E-03   -0.39161E-03  2240   0.273E-01    0.158E-01
DAV:   4    -0.482298382128E+03   -0.10888E-03   -0.90375E-04  2056   0.220E-01    0.858E-02
DAV:   5    -0.482298454939E+03   -0.72810E-04   -0.58609E-04  2136   0.289E-01    0.557E-02
DAV:   6    -0.482298445275E+03    0.96640E-05   -0.18597E-04  1512   0.162E-01    0.149E-02
DAV:   7    -0.482298450392E+03   -0.51170E-05   -0.33557E-05  1144   0.240E-02
  67 F= -.48229845E+03 E0= -.48226615E+03  d E =-.216904E-02
 curvature: -26.46 expect dE=-0.607E-01 dE for cont linesearch -0.301E-03
 ZBRENT: interpolating
 opt :   3.7375  next Energy=  -482.298651 (dE=-0.237E-02)
 bond charge predicted
       N       E                     dE             d eps       ncg     rms          rms(c)
DAV:   1    -0.482297836010E+03    0.60926E-03   -0.47828E-01  1408   0.188E+00    0.125E-01
DAV:   2    -0.482298668927E+03   -0.83292E-03   -0.10337E-02  2008   0.345E-01    0.828E-02
DAV:   3    -0.482298641338E+03    0.27588E-04   -0.44080E-04  2192   0.104E-01    0.527E-02
DAV:   4    -0.482298657295E+03   -0.15957E-04   -0.12216E-04  1856   0.102E-01    0.315E-02
DAV:   5    -0.482298660599E+03   -0.33037E-05   -0.77893E-05  1224   0.115E-01
  68 F= -.48229866E+03 E0= -.48226641E+03  d E =-.237925E-02
 curvature: -17.65 expect dE=-0.256E-01 dE for cont linesearch -0.108E-04
 trial: gam= 0.91557 g(F)=  0.137E-02 g(S)=  0.855E-04 ort =-0.923E-04 (trialstep = 0.212E+01)
 search vector abs. value=  0.130E-01
 bond charge predicted
       N       E                     dE             d eps       ncg     rms          rms(c)
DAV:   1    -0.482297280036E+03    0.13773E-02   -0.20535E+00  1424   0.389E+00    0.259E-01
DAV:   2    -0.482300584719E+03   -0.33047E-02   -0.41825E-02  2056   0.690E-01    0.171E-01
DAV:   3    -0.482300472019E+03    0.11270E-03   -0.19358E-03  2224   0.247E-01    0.113E-01
DAV:   4    -0.482300543295E+03   -0.71276E-04   -0.66259E-04  2168   0.255E-01    0.837E-02
DAV:   5    -0.482300524564E+03    0.18731E-04   -0.35041E-04  1680   0.216E-01    0.325E-02
DAV:   6    -0.482300544729E+03   -0.20165E-04   -0.89557E-05  1632   0.626E-02    0.113E-02
DAV:   7    -0.482300545421E+03   -0.69161E-06   -0.19316E-05  1056   0.421E-02
  69 F= -.48230055E+03 E0= -.48226816E+03  d E =-.188482E-02
 trial-energy change:   -0.001885  1 .order   -0.001797   -0.002902   -0.000692
 step:   2.6347(harm=  2.7862)  dis= 0.00860  next Energy=  -482.300630 (dE=-0.197E-02)
 bond charge predicted
       N       E                     dE             d eps       ncg     rms          rms(c)
DAV:   1    -0.482300450544E+03    0.94185E-04   -0.12030E-01  1416   0.943E-01    0.643E-02
DAV:   2    -0.482300664055E+03   -0.21351E-03   -0.26459E-03  2048   0.184E-01    0.413E-02
DAV:   3    -0.482300659157E+03    0.48979E-05   -0.12049E-04  1800   0.736E-02    0.279E-02
DAV:   4    -0.482300664377E+03   -0.52198E-05   -0.43056E-05  1192   0.824E-02
  70 F= -.48230066E+03 E0= -.48226826E+03  d E =-.200378E-02
 curvature: -12.51 expect dE=-0.122E-01 dE for cont linesearch -0.452E-04
 ZBRENT: increasing intervall
 opt :   3.6612  next Energy=  -482.300774 (dE=-0.211E-02)
 bond charge predicted
       N       E                     dE             d eps       ncg     rms          rms(c)
DAV:   1    -0.482299712940E+03    0.94622E-03   -0.47762E-01  1416   0.188E+00    0.129E-01
DAV:   2    -0.482300502248E+03   -0.78931E-03   -0.10094E-02  2024   0.341E-01    0.836E-02
DAV:   3    -0.482300484391E+03    0.17857E-04   -0.46688E-04  2200   0.100E-01    0.536E-02
DAV:   4    -0.482300504700E+03   -0.20309E-04   -0.10852E-04  1912   0.972E-02    0.323E-02
DAV:   5    -0.482300512430E+03   -0.77293E-05   -0.76212E-05  1216   0.119E-01
  71 F= -.48230051E+03 E0= -.48226804E+03  d E =-.185183E-02
 curvature: -30.23 expect dE=-0.602E-01 dE for cont linesearch -0.250E-03
 ZBRENT: bracketing found
 ZBRENT: interpolating
 opt :   3.0433  next Energy=  -482.300709 (dE=-0.205E-02)
 bond charge predicted
       N       E                     dE             d eps       ncg     rms          rms(c)
DAV:   1    -0.482300369322E+03    0.13538E-03   -0.17497E-01  1424   0.114E+00    0.743E-02
DAV:   2    -0.482300677634E+03   -0.30831E-03   -0.38631E-03  2072   0.245E-01    0.523E-02
DAV:   3    -0.482300665512E+03    0.12122E-04   -0.21153E-04  1968   0.123E-01    0.364E-02
DAV:   4    -0.482300667898E+03   -0.23859E-05   -0.67294E-05  1240   0.109E-01
  72 F= -.48230067E+03 E0= -.48226823E+03  d E =-.200730E-02
 curvature:  -5.35 expect dE=-0.729E-02 dE for cont linesearch -0.204E-04
 trial: gam= 1.04230 g(F)=  0.133E-02 g(S)=  0.285E-04 ort =-0.222E-03 (trialstep = 0.199E+01)
 search vector abs. value=  0.150E-01
 bond charge predicted
       N       E                     dE             d eps       ncg     rms          rms(c)
DAV:   1    -0.482298597059E+03    0.20685E-02   -0.21211E+00  1424   0.396E+00    0.270E-01
DAV:   2    -0.482302177593E+03   -0.35805E-02   -0.45265E-02  2072   0.739E-01    0.172E-01
DAV:   3    -0.482302076873E+03    0.10072E-03   -0.23504E-03  2176   0.337E-01    0.124E-01
DAV:   4    -0.482302126570E+03   -0.49697E-04   -0.89688E-04  2232   0.317E-01    0.923E-02
DAV:   5    -0.482302104604E+03    0.21966E-04   -0.34810E-04  1664   0.220E-01    0.363E-02
DAV:   6    -0.482302134572E+03   -0.29969E-04   -0.13169E-04  2008   0.614E-02    0.130E-02
DAV:   7    -0.482302133930E+03    0.64215E-06   -0.18239E-05   992   0.444E-02
  73 F= -.48230213E+03 E0= -.48226956E+03  d E =-.146603E-02
 trial-energy change:   -0.001466  1 .order   -0.001226   -0.002258   -0.000194
 step:   2.1030(harm=  2.1826)  dis= 0.00683  next Energy=  -482.302139 (dE=-0.147E-02)
 bond charge predicted
       N       E                     dE             d eps       ncg     rms          rms(c)
DAV:   1    -0.482302141916E+03   -0.73438E-05   -0.64369E-03  1408   0.221E-01    0.169E-02
DAV:   2    -0.482302156655E+03   -0.14739E-04   -0.17080E-04  2080   0.499E-02    0.104E-02
DAV:   3    -0.482302156738E+03   -0.83575E-07   -0.59395E-06   800   0.219E-02
  74 F= -.48230216E+03 E0= -.48226957E+03  d E =-.148884E-02
 curvature: -11.85 expect dE=-0.746E-02 dE for cont linesearch -0.368E-04
 ZBRENT: increasing intervall
 opt :   2.3193  next Energy=  -482.302229 (dE=-0.156E-02)
 bond charge predicted
       N       E                     dE             d eps       ncg     rms          rms(c)
DAV:   1    -0.482302144624E+03    0.12030E-04   -0.24721E-02  1416   0.429E-01    0.305E-02
DAV:   2    -0.482302183442E+03   -0.38818E-04   -0.51661E-04  2064   0.792E-02    0.200E-02
DAV:   3    -0.482302182448E+03    0.99397E-06   -0.20133E-05  1000   0.336E-02
  75 F= -.48230218E+03 E0= -.48226958E+03  d E =-.151455E-02
 curvature: -23.27 expect dE=-0.163E-01 dE for cont linesearch -0.274E-04
 trial: gam= 0.32879 g(F)=  0.694E-03 g(S)=  0.702E-05 ort = 0.133E-03 (trialstep = 0.206E+01)
 search vector abs. value=  0.241E-02
 bond charge predicted
       N       E                     dE             d eps       ncg     rms          rms(c)
DAV:   1    -0.482302454950E+03   -0.27151E-03   -0.34494E-01  1408   0.162E+00    0.126E-01
DAV:   2    -0.482303110276E+03   -0.65533E-03   -0.83676E-03  2016   0.301E-01    0.789E-02
DAV:   3    -0.482303078805E+03    0.31471E-04   -0.45592E-04  2152   0.111E-01    0.563E-02
DAV:   4    -0.482303090041E+03   -0.11237E-04   -0.19290E-04  1600   0.102E-01    0.426E-02
DAV:   5    -0.482303082931E+03    0.71108E-05   -0.87322E-05  1192   0.828E-02
  76 F= -.48230308E+03 E0= -.48227041E+03  d E =-.900483E-03
 trial-energy change:   -0.000900  1 .order   -0.001016   -0.001534   -0.000497
 step:   3.0484(harm=  3.0484)  dis= 0.00401  next Energy=  -482.303318 (dE=-0.114E-02)
 reached required accuracy - stopping structural energy minimisation
