<?xml version="1.0" encoding="ISO-8859-1"?>
<modeling>
 <generator>
  <i name="program" type="string">vasp </i>
  <i name="version" type="string">6.3.2  </i>
  <i name="subversion" type="string">27Jun22 (build May 04 2024 18:40:40) complex                          parallel </i>
  <i name="platform" type="string">LinuxIFC </i>
  <i name="date" type="string">2024 09 03 </i>
  <i name="time" type="string">04:15:08 </i>
 </generator>
 <incar>
  <i type="string" name="SYSTEM">slab_Cel1-OPT</i>
  <i type="int" name="ISTART">     0</i>
  <i type="string" name="PREC">N</i>
  <i type="string" name="ALGO">N</i>
  <i type="int" name="ICHARG">     2</i>
  <i type="int" name="NELM">   200</i>
  <i type="int" name="IBRION">     2</i>
  <i name="EDIFF">      0.00001000</i>
  <i name="EDIFFG">     -0.05000000</i>
  <i type="int" name="NSW">  1000</i>
  <i type="int" name="ISIF">     3</i>
  <i name="ENCUT">    400.00000000</i>
  <i name="POTIM">      0.10000000</i>
  <i type="string" name="LREAL">AUTO</i>
  <i type="int" name="ISMEAR">     0</i>
  <i name="SIGMA">      0.10000000</i>
  <i type="logical" name="LWAVE"> F  </i>
  <i type="logical" name="LCHARG"> F  </i>
  <i type="logical" name="LELF"> F  </i>
  <i type="logical" name="LAECHG"> F  </i>
  <i type="logical" name="LDIPOL"> T  </i>
  <i type="int" name="IDIPOL">     3</i>
 </incar>
 <primitive_cell>
  <structure name="primitive_cell" >
   <crystal>
    <varray name="basis" >
     <v>      13.75970367       0.00000000       0.00000000 </v>
     <v>       0.00000000      11.28669971       0.00000000 </v>
     <v>       0.00000000       0.00000000      15.00000000 </v>
    </varray>
    <i name="volume">   2329.52465126 </i>
    <varray name="rec_basis" >
     <v>       0.07267598       0.00000000       0.00000000 </v>
     <v>       0.00000000       0.08859986       0.00000000 </v>
     <v>       0.00000000       0.00000000       0.06666667 </v>
    </varray>
   </crystal>
   <varray name="positions" >
    <v>       0.07054120       0.38816457       0.22227495 </v>
    <v>       0.98151180       0.21832942       0.16785344 </v>
    <v>       0.22877304       0.39667288       0.18904348 </v>
    <v>       0.82472337       0.57572318       0.18403191 </v>
    <v>       0.14970601       0.24663792       0.12277753 </v>
    <v>       0.90758628       0.38434512       0.21811946 </v>
    <v>       0.56886571       0.39316130       0.23173729 </v>
    <v>       0.47768100       0.22391730       0.18017943 </v>
    <v>       0.73035049       0.39802658       0.19909345 </v>
    <v>       0.31101118       0.58132963       0.17977696 </v>
    <v>       0.64681854       0.25040749       0.13377315 </v>
    <v>       0.40275100       0.39355427       0.22106508 </v>
    <v>       0.81808056       0.88988957       0.05647519 </v>
    <v>       0.73319531       0.72568325       0.12448457 </v>
    <v>       0.97932824       0.89597624       0.07999408 </v>
    <v>       0.06867909       0.07698375       0.09423854 </v>
    <v>       0.90528082       0.74258583       0.14719628 </v>
    <v>       0.65472406       0.89333727       0.07691603 </v>
    <v>       0.31825350       0.89473226       0.05377466 </v>
    <v>       0.22716619       0.72126926       0.10084126 </v>
    <v>       0.47498917       0.90396535       0.09489577 </v>
    <v>       0.56592959       0.08075138       0.11024766 </v>
    <v>       0.38612516       0.76037560       0.16363174 </v>
    <v>       0.15509033       0.88950396       0.05271529 </v>
    <v>       0.98784551       0.43883046       0.24713656 </v>
    <v>       0.89991795       0.26975381       0.19549767 </v>
    <v>       0.15759857       0.43325808       0.24240148 </v>
    <v>       0.14788829       0.14353661       0.08017307 </v>
    <v>       0.98633649       0.10796021       0.13653167 </v>
    <v>       0.22915942       0.31533454       0.12527490 </v>
    <v>       0.06735802       0.28598388       0.16888911 </v>
    <v>       0.82274912       0.45552252       0.21014877 </v>
    <v>       0.48493735       0.44793349       0.25146232 </v>
    <v>       0.39648714       0.27665554       0.20625030 </v>
    <v>       0.65756919       0.43524210       0.25419888 </v>
    <v>       0.64488604       0.14640144       0.09374788 </v>
    <v>       0.48286722       0.11321356       0.15081376 </v>
    <v>       0.72606390       0.31870920       0.13454719 </v>
    <v>       0.56470606       0.29135323       0.18008364 </v>
    <v>       0.31888640       0.46086995       0.20329135 </v>
    <v>       0.73287748       0.94248397       0.03965616 </v>
    <v>       0.64891188       0.78317499       0.11254597 </v>
    <v>       0.90382696       0.93469024       0.03189926 </v>
    <v>       0.90701680       0.63807548       0.18754912 </v>
    <v>       0.73647441       0.61699787       0.15934394 </v>
    <v>       0.98321706       0.81212363       0.14197152 </v>
    <v>       0.81925020       0.78400528       0.10639513 </v>
    <v>       0.56804185       0.96074410       0.08520074 </v>
    <v>       0.23699719       0.94478449       0.02657725 </v>
    <v>       0.14820250       0.77173059       0.06843984 </v>
    <v>       0.40793432       0.93556381       0.03646331 </v>
    <v>       0.38047481       0.65838217       0.20939239 </v>
    <v>       0.23501053       0.60894863       0.12850628 </v>
    <v>       0.46527775       0.83024755       0.16578047 </v>
    <v>       0.31113112       0.79334051       0.10891910 </v>
    <v>       0.06990262       0.95754122       0.06514651 </v>
    <v>       0.57736557       0.77647674       0.24193941 </v>
    <v>       0.65582252       0.60772566       0.29790490 </v>
    <v>       0.48700699       0.61617049       0.29396059 </v>
   </varray>
  </structure>
  <varray name="primitive_index" >
   <v type="int" >        1 </v>
   <v type="int" >        2 </v>
   <v type="int" >        3 </v>
   <v type="int" >        4 </v>
   <v type="int" >        5 </v>
   <v type="int" >        6 </v>
   <v type="int" >        7 </v>
   <v type="int" >        8 </v>
   <v type="int" >        9 </v>
   <v type="int" >       10 </v>
   <v type="int" >       11 </v>
   <v type="int" >       12 </v>
   <v type="int" >       13 </v>
   <v type="int" >       14 </v>
   <v type="int" >       15 </v>
   <v type="int" >       16 </v>
   <v type="int" >       17 </v>
   <v type="int" >       18 </v>
   <v type="int" >       19 </v>
   <v type="int" >       20 </v>
   <v type="int" >       21 </v>
   <v type="int" >       22 </v>
   <v type="int" >       23 </v>
   <v type="int" >       24 </v>
   <v type="int" >       25 </v>
   <v type="int" >       26 </v>
   <v type="int" >       27 </v>
   <v type="int" >       28 </v>
   <v type="int" >       29 </v>
   <v type="int" >       30 </v>
   <v type="int" >       31 </v>
   <v type="int" >       32 </v>
   <v type="int" >       33 </v>
   <v type="int" >       34 </v>
   <v type="int" >       35 </v>
   <v type="int" >       36 </v>
   <v type="int" >       37 </v>
   <v type="int" >       38 </v>
   <v type="int" >       39 </v>
   <v type="int" >       40 </v>
   <v type="int" >       41 </v>
   <v type="int" >       42 </v>
   <v type="int" >       43 </v>
   <v type="int" >       44 </v>
   <v type="int" >       45 </v>
   <v type="int" >       46 </v>
   <v type="int" >       47 </v>
   <v type="int" >       48 </v>
   <v type="int" >       49 </v>
   <v type="int" >       50 </v>
   <v type="int" >       51 </v>
   <v type="int" >       52 </v>
   <v type="int" >       53 </v>
   <v type="int" >       54 </v>
   <v type="int" >       55 </v>
   <v type="int" >       56 </v>
   <v type="int" >       57 </v>
   <v type="int" >       58 </v>
   <v type="int" >       59 </v>
  </varray>
 </primitive_cell>
 <kpoints>
  <generation param="Gamma">
   <v type="int" name="divisions">       2        2        1 </v>
   <v name="usershift">      0.00000000       0.00000000       0.00000000 </v>
   <v name="genvec1">      0.50000000       0.00000000       0.00000000 </v>
   <v name="genvec2">      0.00000000       0.50000000       0.00000000 </v>
   <v name="genvec3">      0.00000000       0.00000000       1.00000000 </v>
   <v name="shift">      0.00000000       0.00000000       0.00000000 </v>
  </generation>
  <varray name="kpointlist" >
   <v>       0.00000000       0.00000000       0.00000000 </v>
   <v>       0.50000000       0.00000000       0.00000000 </v>
   <v>       0.00000000       0.50000000       0.00000000 </v>
   <v>       0.50000000       0.50000000       0.00000000 </v>
  </varray>
  <varray name="weights" >
   <v>       0.25000000 </v>
   <v>       0.25000000 </v>
   <v>       0.25000000 </v>
   <v>       0.25000000 </v>
  </varray>
 </kpoints>
 <parameters>
  <separator name="general" >
   <i type="string" name="SYSTEM">slab_Cel1-OPT</i>
   <i type="logical" name="LCOMPAT"> F  </i>
  </separator>
  <separator name="electronic" >
   <i type="string" name="PREC">n</i>
   <i name="ENMAX">    400.00000000</i>
   <i name="ENAUG">    644.87300000</i>
   <i name="EDIFF">      0.00001000</i>
   <i type="int" name="IALGO">    38</i>
   <i type="int" name="IWAVPR">    11</i>
   <i type="int" name="NBANDS">   176</i>
   <i type="int" name="NBANDSLOW">    -1</i>
   <i type="int" name="NBANDSHIGH">    -1</i>
   <i name="NELECT">    289.00000000</i>
   <i type="int" name="TURBO">     0</i>
   <i type="int" name="IRESTART">     0</i>
   <i type="int" name="NREBOOT">     0</i>
   <i type="int" name="NMIN">     0</i>
   <i name="EREF">      0.00000000</i>
   <separator name="electronic smearing" >
    <i type="int" name="ISMEAR">     0</i>
    <i name="SIGMA">      0.10000000</i>
    <i name="KSPACING">      0.50000000</i>
    <i type="logical" name="KGAMMA"> T  </i>
    <i type="logical" name="KBLOWUP"> T  </i>
   </separator>
   <separator name="electronic projectors" >
    <i type="logical" name="LREAL"> T  </i>
    <v name="ROPT">     -0.00050000     -0.00050000     -0.00050000</v>
    <i type="int" name="LMAXPAW">  -100</i>
    <i type="int" name="LMAXMIX">     2</i>
    <i type="logical" name="NLSPLINE"> F  </i>
   </separator>
   <separator name="electronic startup" >
    <i type="int" name="ISTART">     0</i>
    <i type="int" name="ICHARG">     2</i>
    <i type="int" name="INIWAV">     1</i>
   </separator>
   <separator name="electronic spin" >
    <i type="int" name="ISPIN">     1</i>
    <i type="logical" name="LNONCOLLINEAR"> F  </i>
    <v name="MAGMOM">      1.00000000      1.00000000      1.00000000      1.00000000      1.00000000      1.00000000      1.00000000      1.00000000      1.00000000      1.00000000      1.00000000      1.00000000      1.00000000      1.00000000      1.00000000      1.00000000      1.00000000      1.00000000      1.00000000      1.00000000
      1.00000000      1.00000000      1.00000000      1.00000000      1.00000000      1.00000000      1.00000000      1.00000000      1.00000000      1.00000000      1.00000000      1.00000000      1.00000000      1.00000000      1.00000000      1.00000000      1.00000000      1.00000000      1.00000000      1.00000000
      1.00000000      1.00000000      1.00000000      1.00000000      1.00000000      1.00000000      1.00000000      1.00000000      1.00000000      1.00000000      1.00000000      1.00000000      1.00000000      1.00000000      1.00000000      1.00000000      1.00000000      1.00000000      1.00000000</v>
    <i name="NUPDOWN">     -1.00000000</i>
    <i type="logical" name="LSORBIT"> F  </i>
    <v name="SAXIS">      0.00000000      0.00000000      1.00000000</v>
    <i type="logical" name="LSPIRAL"> F  </i>
    <v name="QSPIRAL">      0.00000000      0.00000000      0.00000000</v>
    <i type="logical" name="LZEROZ"> F  </i>
   </separator>
   <separator name="electronic exchange-correlation" >
    <i type="logical" name="LASPH"> F  </i>
    <i type="logical" name="LMETAGGA"> F  </i>
   </separator>
   <separator name="electronic convergence" >
    <i type="int" name="NELM">   200</i>
    <i type="int" name="NELMDL">    -5</i>
    <i type="int" name="NELMIN">     2</i>
    <i name="ENINI">    400.00000000</i>
    <separator name="electronic convergence detail" >
     <i type="logical" name="LDIAG"> T  </i>
     <i type="logical" name="LSUBROT"> F  </i>
     <i name="WEIMIN">      0.00100000</i>
     <i name="EBREAK">      0.00000001</i>
     <i name="DEPER">      0.30000000</i>
     <i type="int" name="NRMM">     4</i>
     <i name="TIME">      0.40000000</i>
    </separator>
   </separator>
   <separator name="electronic mixer" >
    <i name="AMIX">      0.40000000</i>
    <i name="BMIX">      1.00000000</i>
    <i name="AMIN">      0.10000000</i>
    <i name="AMIX_MAG">      1.60000000</i>
    <i name="BMIX_MAG">      1.00000000</i>
    <separator name="electronic mixer details" >
     <i type="int" name="IMIX">     4</i>
     <i type="logical" name="MIXFIRST"> F  </i>
     <i type="int" name="MAXMIX">   -45</i>
     <i name="WC">    100.00000000</i>
     <i type="int" name="INIMIX">     1</i>
     <i type="int" name="MIXPRE">     1</i>
     <i type="int" name="MREMOVE">     5</i>
    </separator>
   </separator>
   <separator name="electronic dipolcorrection" >
    <i type="logical" name="LDIPOL"> T  </i>
    <i type="logical" name="LMONO"> F  </i>
    <i type="int" name="IDIPOL">     3</i>
    <i name="EPSILON">      1.00000000</i>
    <v name="DIPOL">   -100.00000000   -100.00000000   -100.00000000</v>
    <i name="EFIELD">      0.00000000</i>
   </separator>
  </separator>
  <separator name="grids" >
   <i type="int" name="NGX">    70</i>
   <i type="int" name="NGY">    56</i>
   <i type="int" name="NGZ">    80</i>
   <i type="int" name="NGXF">   140</i>
   <i type="int" name="NGYF">   112</i>
   <i type="int" name="NGZF">   160</i>
   <i type="logical" name="ADDGRID"> F  </i>
  </separator>
  <separator name="ionic" >
   <i type="int" name="NSW">  1000</i>
   <i type="int" name="IBRION">     2</i>
   <i type="int" name="MDALGO">     0</i>
   <i type="int" name="ISIF">     3</i>
   <i name="PSTRESS">      0.00000000</i>
   <i name="EDIFFG">     -0.05000000</i>
   <i type="int" name="NFREE">     1</i>
   <i name="POTIM">      0.10000000</i>
   <i name="SMASS">     -3.00000000</i>
   <i name="SCALEE">      1.00000000</i>
  </separator>
  <separator name="ionic md" >
   <i name="TEBEG">      0.00010000</i>
   <i name="TEEND">      0.00010000</i>
   <i type="int" name="NBLOCK">     1</i>
   <i type="int" name="KBLOCK">  1000</i>
   <i type="int" name="NPACO">   256</i>
   <i name="APACO">     10.00000000</i>
  </separator>
  <separator name="symmetry" >
   <i type="int" name="ISYM">     2</i>
   <i name="SYMPREC">      0.00001000</i>
  </separator>
  <separator name="dos" >
   <i type="int" name="LORBIT">     0</i>
   <v name="RWIGS">     -1.00000000     -1.00000000     -1.00000000</v>
   <i type="int" name="NEDOS">   301</i>
   <i name="EMIN">     10.00000000</i>
   <i name="EMAX">    -10.00000000</i>
   <i name="EFERMI">      0.00000000</i>
  </separator>
  <separator name="writing" >
   <i type="int" name="NWRITE">     2</i>
   <i type="logical" name="LWAVE"> F  </i>
   <i type="logical" name="LDOWNSAMPLE"> F  </i>
   <i type="logical" name="LCHARG"> F  </i>
   <i type="logical" name="LPARD"> F  </i>
   <i type="logical" name="LVTOT"> F  </i>
   <i type="logical" name="LVHAR"> F  </i>
   <i type="logical" name="LELF"> F  </i>
   <i type="logical" name="LOPTICS"> F  </i>
   <v name="STM">      0.00000000      0.00000000      0.00000000      0.00000000      0.00000000      0.00000000      0.00000000</v>
  </separator>
  <separator name="performance" >
   <i type="int" name="NPAR">     4</i>
   <i type="int" name="NSIM">     4</i>
   <i type="int" name="NBLK">    -1</i>
   <i type="logical" name="LPLANE"> T  </i>
   <i type="logical" name="LSCALAPACK"> T  </i>
   <i type="logical" name="LSCAAWARE"> F  </i>
   <i type="logical" name="LSCALU"> F  </i>
   <i type="logical" name="LASYNC"> F  </i>
   <i type="logical" name="LORBITALREAL"> F  </i>
  </separator>
  <separator name="miscellaneous" >
   <i type="int" name="IDIOT">     3</i>
   <i type="int" name="PHON_NSTRUCT">    -1</i>
   <i type="logical" name="LMUSIC"> F  </i>
   <v name="POMASS">     12.01100000     14.00100000     63.54600000</v>
   <v name="DARWINR">      0.00000000      0.00000000      0.00000000</v>
   <v name="DARWINV">      1.00000000      1.00000000      1.00000000</v>
   <i type="logical" name="LCORR"> T  </i>
  </separator>
  <i type="logical" name="GGA_COMPAT"> T  </i>
  <i type="logical" name="LBERRY"> F  </i>
  <i type="int" name="ICORELEVEL">     0</i>
  <i type="logical" name="LDAU"> F  </i>
  <i type="int" name="I_CONSTRAINED_M">     0</i>
  <separator name="electronic exchange-correlation" >
   <i type="string" name="GGA">--</i>
   <i type="int" name="VOSKOWN">     0</i>
   <i type="logical" name="LHFCALC"> F  </i>
   <i type="string" name="PRECFOCK"></i>
   <i type="logical" name="LSYMGRAD"> F  </i>
   <i type="logical" name="LHFONE"> F  </i>
   <i type="logical" name="LRHFCALC"> F  </i>
   <i type="logical" name="LTHOMAS"> F  </i>
   <i type="logical" name="LMODELHF"> F  </i>
   <i type="logical" name="LFOCKACE"> F  </i>
   <i name="ENCUT4O">     -1.00000000</i>
   <i type="int" name="EXXOEP">     0</i>
   <i type="int" name="FOURORBIT">     0</i>
   <i name="AEXX">      0.00000000</i>
   <i name="HFALPHA">      0.00000000</i>
   <i name="MCALPHA">      0.00000000</i>
   <i name="ALDAX">      1.00000000</i>
   <i name="AGGAX">      1.00000000</i>
   <i name="ALDAC">      1.00000000</i>
   <i name="AGGAC">      1.00000000</i>
   <i type="int" name="NKREDX">     1</i>
   <i type="int" name="NKREDY">     1</i>
   <i type="int" name="NKREDZ">     1</i>
   <i type="logical" name="SHIFTRED"> F  </i>
   <i type="logical" name="ODDONLY"> F  </i>
   <i type="logical" name="EVENONLY"> F  </i>
   <i type="int" name="LMAXFOCK">     0</i>
   <i type="int" name="NMAXFOCKAE">     0</i>
   <i type="logical" name="LFOCKAEDFT"> F  </i>
   <i name="HFSCREEN">      0.00000000</i>
   <i name="HFSCREENC">      0.00000000</i>
   <i type="int" name="NBANDSGWLOW">     0</i>
  </separator>
  <separator name="vdW DFT" >
   <i type="logical" name="LUSE_VDW"> F  </i>
   <i name="Zab_VDW">     -0.84910000</i>
   <i name="PARAM1">      0.12340000</i>
   <i name="PARAM2">      1.00000000</i>
   <i name="PARAM3">      0.00000000</i>
  </separator>
  <separator name="model GW" >
   <i type="int" name="MODEL_GW">     0</i>
   <i name="MODEL_EPS0">     23.69008120</i>
   <i name="MODEL_ALPHA">      1.00000000</i>
  </separator>
  <separator name="linear response parameters" >
   <i type="logical" name="LEPSILON"> F  </i>
   <i type="logical" name="LRPA"> F  </i>
   <i type="logical" name="LNABLA"> F  </i>
   <i type="logical" name="LVEL"> F  </i>
   <i name="CSHIFT">      0.10000000</i>
   <i name="OMEGAMAX">     -1.00000000</i>
   <i name="DEG_THRESHOLD">      0.00200000</i>
   <i name="RTIME">     -0.10000000</i>
   <i name="WPLASMAI">      0.00000000</i>
   <v name="DFIELD">      0.00000000      0.00000000      0.00000000</v>
   <v name="WPLASMA">      0.00000000      0.00000000      0.00000000      0.00000000      0.00000000      0.00000000      0.00000000      0.00000000      0.00000000</v>
  </separator>
  <separator name="orbital magnetization" >
   <i type="logical" name="NUCIND"> F  </i>
   <v name="MAGPOS">      0.00000000      0.00000000      0.00000000</v>
   <i type="logical" name="LNICSALL"> T  </i>
   <i type="logical" name="ORBITALMAG"> F  </i>
   <i type="logical" name="LMAGBLOCH"> F  </i>
   <i type="logical" name="LCHIMAG"> F  </i>
   <i type="logical" name="LGAUGE"> T  </i>
   <i type="int" name="MAGATOM">     0</i>
   <v name="MAGDIPOL">      0.00000000      0.00000000      0.00000000</v>
   <v name="AVECCONST">      0.00000000      0.00000000      0.00000000</v>
  </separator>
  <separator name="response functions" >
   <i type="logical" name="LFINITE_TEMPERATURE"> F  </i>
   <i type="logical" name="LADDER"> F  </i>
   <i type="logical" name="LRPAFORCE"> F  </i>
   <i type="logical" name="LFXC"> F  </i>
   <i type="logical" name="LHARTREE"> T  </i>
   <i type="int" name="IBSE">     0</i>
   <v type="int" name="KPOINT">    -1     0     0     0</v>
   <i type="logical" name="LTCTC"> F  </i>
   <i type="logical" name="LTCTE"> F  </i>
   <i type="logical" name="LTETE"> F  </i>
   <i type="logical" name="LTRIPLET"> F  </i>
   <i type="logical" name="LFXCEPS"> F  </i>
   <i type="logical" name="LFXHEG"> F  </i>
   <i type="int" name="NATURALO">     2</i>
   <i type="logical" name="LHOLEGF"> F  </i>
   <i type="logical" name="L2ORDER"> F  </i>
   <i type="logical" name="LDMP1"> F  </i>
   <i type="logical" name="LMP2LT"> F  </i>
   <i type="logical" name="LSMP2LT"> F  </i>
   <i type="logical" name="LGWLF"> F  </i>
   <i name="ENCUTGW">     -2.00000000</i>
   <i name="ENCUTGWSOFT">     -2.00000000</i>
   <i name="ENCUTLF">     -1.00000000</i>
   <i type="logical" name="LESF_SPLINES"> F  </i>
   <i type="int" name="LMAXMP2">    -1</i>
   <i name="SCISSOR">      0.00000000</i>
   <i type="int" name="NOMEGA">     0</i>
   <i type="int" name="NOMEGAR">     0</i>
   <i type="int" name="NBANDSGW">    -1</i>
   <i type="int" name="NBANDSO">    -1</i>
   <i type="int" name="NBANDSV">    -1</i>
   <i type="int" name="NELMGW">     1</i>
   <i type="int" name="NELMHF">     1</i>
   <i type="int" name="DIM">     3</i>
   <i type="int" name="IESPILON">     4</i>
   <i type="int" name="ANTIRES">     0</i>
   <i name="OMEGAMAX">    -30.00000000</i>
   <i name="OMEGAMIN">    -30.00000000</i>
   <i name="OMEGATL">   -200.00000000</i>
   <i type="int" name="OMEGAGRID">     0</i>
   <i name="CSHIFT">     -0.10000000</i>
   <i type="logical" name="LSELFENERGY"> F  </i>
   <i type="logical" name="LSPECTRAL"> F  </i>
   <i type="logical" name="LSPECTRALGW"> F  </i>
   <i type="logical" name="LSINGLES"> F  </i>
   <i type="logical" name="LFERMIGW"> F  </i>
   <i type="logical" name="ODDONLYGW"> F  </i>
   <i type="logical" name="EVENONLYGW"> F  </i>
   <i type="int" name="NKREDLFX">     1</i>
   <i type="int" name="NKREDLFY">     1</i>
   <i type="int" name="NKREDLFZ">     1</i>
   <i type="int" name="MAXMEM">  2800</i>
   <i type="int" name="TELESCOPE">     0</i>
   <i type="int" name="NTAUPAR">    -1</i>
   <i type="int" name="NOMEGAPAR">    -1</i>
   <i name="DAMP_NEWTON">      0.80000001</i>
   <i name="LAMBDA">      1.00000000</i>
  </separator>
  <separator name="External order field" >
   <i name="OFIELD_KAPPA">      0.00000000</i>
   <v name="OFIELD_K">      0.00000000      0.00000000      0.00000000</v>
   <i name="OFIELD_Q6_NEAR">      0.00000000</i>
   <i name="OFIELD_Q6_FAR">      0.00000000</i>
   <i name="OFIELD_A">      0.00000000</i>
  </separator>
  <separator name="optional k-points parameters" >
   <i type="int" name="KPOINTS_OPT_MODE">     1</i>
   <i type="logical" name="LKPOINTS_OPT"> F  </i>
  </separator>
  <separator name="solvation model" >
   <i type="logical" name="LSOL"> F  </i>
  </separator>
 </parameters>
 <atominfo>
  <atoms>      59 </atoms>
  <types>       3 </types>
  <array name="atoms" >
   <dimension dim="1">ion</dimension>
   <field type="string">element</field>
   <field type="int">atomtype</field>
   <set>
    <rc><c>C </c><c>   1</c></rc>
    <rc><c>C </c><c>   1</c></rc>
    <rc><c>C </c><c>   1</c></rc>
    <rc><c>C </c><c>   1</c></rc>
    <rc><c>C </c><c>   1</c></rc>
    <rc><c>C </c><c>   1</c></rc>
    <rc><c>C </c><c>   1</c></rc>
    <rc><c>C </c><c>   1</c></rc>
    <rc><c>C </c><c>   1</c></rc>
    <rc><c>C </c><c>   1</c></rc>
    <rc><c>C </c><c>   1</c></rc>
    <rc><c>C </c><c>   1</c></rc>
    <rc><c>C </c><c>   1</c></rc>
    <rc><c>C </c><c>   1</c></rc>
    <rc><c>C </c><c>   1</c></rc>
    <rc><c>C </c><c>   1</c></rc>
    <rc><c>C </c><c>   1</c></rc>
    <rc><c>C </c><c>   1</c></rc>
    <rc><c>C </c><c>   1</c></rc>
    <rc><c>C </c><c>   1</c></rc>
    <rc><c>C </c><c>   1</c></rc>
    <rc><c>C </c><c>   1</c></rc>
    <rc><c>C </c><c>   1</c></rc>
    <rc><c>C </c><c>   1</c></rc>
    <rc><c>N </c><c>   2</c></rc>
    <rc><c>N </c><c>   2</c></rc>
    <rc><c>N </c><c>   2</c></rc>
    <rc><c>N </c><c>   2</c></rc>
    <rc><c>N </c><c>   2</c></rc>
    <rc><c>N </c><c>   2</c></rc>
    <rc><c>N </c><c>   2</c></rc>
    <rc><c>N </c><c>   2</c></rc>
    <rc><c>N </c><c>   2</c></rc>
    <rc><c>N </c><c>   2</c></rc>
    <rc><c>N </c><c>   2</c></rc>
    <rc><c>N </c><c>   2</c></rc>
    <rc><c>N </c><c>   2</c></rc>
    <rc><c>N </c><c>   2</c></rc>
    <rc><c>N </c><c>   2</c></rc>
    <rc><c>N </c><c>   2</c></rc>
    <rc><c>N </c><c>   2</c></rc>
    <rc><c>N </c><c>   2</c></rc>
    <rc><c>N </c><c>   2</c></rc>
    <rc><c>N </c><c>   2</c></rc>
    <rc><c>N </c><c>   2</c></rc>
    <rc><c>N </c><c>   2</c></rc>
    <rc><c>N </c><c>   2</c></rc>
    <rc><c>N </c><c>   2</c></rc>
    <rc><c>N </c><c>   2</c></rc>
    <rc><c>N </c><c>   2</c></rc>
    <rc><c>N </c><c>   2</c></rc>
    <rc><c>N </c><c>   2</c></rc>
    <rc><c>N </c><c>   2</c></rc>
    <rc><c>N </c><c>   2</c></rc>
    <rc><c>N </c><c>   2</c></rc>
    <rc><c>N </c><c>   2</c></rc>
    <rc><c>Cu</c><c>   3</c></rc>
    <rc><c>Cu</c><c>   3</c></rc>
    <rc><c>Cu</c><c>   3</c></rc>
   </set>
  </array>
  <array name="atomtypes" >
   <dimension dim="1">type</dimension>
   <field type="int">atomspertype</field>
   <field type="string">element</field>
   <field>mass</field>
   <field>valence</field>
   <field type="string">pseudopotential</field>
   <set>
    <rc><c>  24</c><c>C </c><c>     12.01100000</c><c>      4.00000000</c><c>  PAW_PBE C 08Apr2002                   </c></rc>
    <rc><c>  32</c><c>N </c><c>     14.00100000</c><c>      5.00000000</c><c>  PAW_PBE N 08Apr2002                   </c></rc>
    <rc><c>   3</c><c>Cu</c><c>     63.54600000</c><c>     11.00000000</c><c>  PAW_PBE Cu 22Jun2005                  </c></rc>
   </set>
  </array>
 </atominfo>
 <structure name="initialpos" >
  <crystal>
   <varray name="basis" >
    <v>      13.75970367       0.00000000       0.00000000 </v>
    <v>       0.00000000      11.28669971       0.00000000 </v>
    <v>       0.00000000       0.00000000      15.00000000 </v>
   </varray>
   <i name="volume">   2329.52465126 </i>
   <varray name="rec_basis" >
    <v>       0.07267598       0.00000000       0.00000000 </v>
    <v>       0.00000000       0.08859986       0.00000000 </v>
    <v>       0.00000000       0.00000000       0.06666667 </v>
   </varray>
  </crystal>
  <varray name="positions" >
   <v>       0.07054120       0.38816457       0.22227495 </v>
   <v>       0.98151180       0.21832942       0.16785344 </v>
   <v>       0.22877304       0.39667288       0.18904348 </v>
   <v>       0.82472337       0.57572318       0.18403191 </v>
   <v>       0.14970601       0.24663792       0.12277753 </v>
   <v>       0.90758628       0.38434512       0.21811946 </v>
   <v>       0.56886571       0.39316130       0.23173729 </v>
   <v>       0.47768100       0.22391730       0.18017943 </v>
   <v>       0.73035049       0.39802658       0.19909345 </v>
   <v>       0.31101118       0.58132963       0.17977696 </v>
   <v>       0.64681854       0.25040749       0.13377315 </v>
   <v>       0.40275100       0.39355427       0.22106508 </v>
   <v>       0.81808056       0.88988957       0.05647519 </v>
   <v>       0.73319531       0.72568325       0.12448457 </v>
   <v>       0.97932824       0.89597624       0.07999408 </v>
   <v>       0.06867909       0.07698375       0.09423854 </v>
   <v>       0.90528082       0.74258583       0.14719628 </v>
   <v>       0.65472406       0.89333727       0.07691603 </v>
   <v>       0.31825350       0.89473226       0.05377466 </v>
   <v>       0.22716619       0.72126926       0.10084126 </v>
   <v>       0.47498917       0.90396535       0.09489577 </v>
   <v>       0.56592959       0.08075138       0.11024766 </v>
   <v>       0.38612516       0.76037560       0.16363174 </v>
   <v>       0.15509033       0.88950396       0.05271529 </v>
   <v>       0.98784551       0.43883046       0.24713656 </v>
   <v>       0.89991795       0.26975381       0.19549767 </v>
   <v>       0.15759857       0.43325808       0.24240148 </v>
   <v>       0.14788829       0.14353661       0.08017307 </v>
   <v>       0.98633649       0.10796021       0.13653167 </v>
   <v>       0.22915942       0.31533454       0.12527490 </v>
   <v>       0.06735802       0.28598388       0.16888911 </v>
   <v>       0.82274912       0.45552252       0.21014877 </v>
   <v>       0.48493735       0.44793349       0.25146232 </v>
   <v>       0.39648714       0.27665554       0.20625030 </v>
   <v>       0.65756919       0.43524210       0.25419888 </v>
   <v>       0.64488604       0.14640144       0.09374788 </v>
   <v>       0.48286722       0.11321356       0.15081376 </v>
   <v>       0.72606390       0.31870920       0.13454719 </v>
   <v>       0.56470606       0.29135323       0.18008364 </v>
   <v>       0.31888640       0.46086995       0.20329135 </v>
   <v>       0.73287748       0.94248397       0.03965616 </v>
   <v>       0.64891188       0.78317499       0.11254597 </v>
   <v>       0.90382696       0.93469024       0.03189926 </v>
   <v>       0.90701680       0.63807548       0.18754912 </v>
   <v>       0.73647441       0.61699787       0.15934394 </v>
   <v>       0.98321706       0.81212363       0.14197152 </v>
   <v>       0.81925020       0.78400528       0.10639513 </v>
   <v>       0.56804185       0.96074410       0.08520074 </v>
   <v>       0.23699719       0.94478449       0.02657725 </v>
   <v>       0.14820250       0.77173059       0.06843984 </v>
   <v>       0.40793432       0.93556381       0.03646331 </v>
   <v>       0.38047481       0.65838217       0.20939239 </v>
   <v>       0.23501053       0.60894863       0.12850628 </v>
   <v>       0.46527775       0.83024755       0.16578047 </v>
   <v>       0.31113112       0.79334051       0.10891910 </v>
   <v>       0.06990262       0.95754122       0.06514651 </v>
   <v>       0.57736557       0.77647674       0.24193941 </v>
   <v>       0.65582252       0.60772566       0.29790490 </v>
   <v>       0.48700699       0.61617049       0.29396059 </v>
  </varray>
 </structure>
 <calculation>
  <scstep>
   <time name="dav">    1.56    1.56</time>
   <time name="total">    1.60    1.60</time>
   <dipole>
    <v name="dipole">      0.00000000       0.00000000       0.00003845 </v>
    <i name="Tr[quadrupol]">  -8162.14248577 </i>
    <i name="Echarged">      0.00000000 </i>
    <i name="Edipol_quadrupol">      0.00000000 </i>
    <i name="Eion">      0.00000000 </i>
   </dipole>
   <energy>
    <i name="alphaZ">    171.43912327 </i>
    <i name="ewald">  28919.63643680 </i>
    <i name="hartreedc"> -42338.23193234 </i>
    <i name="XCdc">   1091.47137636 </i>
    <i name="pawpsdc">  12846.99650434 </i>
    <i name="pawaedc"> -13216.29915643 </i>
    <i name="eentropy">     -0.08981426 </i>
    <i name="bandstr">   -793.22699254 </i>
    <i name="atom">  16167.12637076 </i>
    <i name="e_fr_energy">   2848.82191597 </i>
    <i name="e_wo_entrp">   2848.91173023 </i>
    <i name="e_0_energy">   2848.86682310 </i>
   </energy>
  </scstep>
  <scstep>
   <time name="dav">    1.79    1.79</time>
   <time name="total">    1.79    1.79</time>
   <dipole>
    <v name="dipole">      0.00000000       0.00000000       0.00003845 </v>
    <i name="Tr[quadrupol]">  -8162.14248577 </i>
    <i name="Echarged">      0.00000000 </i>
    <i name="Edipol_quadrupol">      0.00000000 </i>
    <i name="Eion">      0.00000000 </i>
   </dipole>
   <energy>
    <i name="e_fr_energy">    130.82533582 </i>
    <i name="e_wo_entrp">    130.86267379 </i>
    <i name="e_0_energy">    130.84400480 </i>
   </energy>
  </scstep>
  <scstep>
   <time name="dav">    1.77    1.78</time>
   <time name="total">    1.77    1.78</time>
   <dipole>
    <v name="dipole">      0.00000000       0.00000000       0.00003845 </v>
    <i name="Tr[quadrupol]">  -8162.14248577 </i>
    <i name="Echarged">      0.00000000 </i>
    <i name="Edipol_quadrupol">      0.00000000 </i>
    <i name="Eion">      0.00000000 </i>
   </dipole>
   <energy>
    <i name="e_fr_energy">   -475.23881169 </i>
    <i name="e_wo_entrp">   -475.08891753 </i>
    <i name="e_0_energy">   -475.16386461 </i>
   </energy>
  </scstep>
  <scstep>
   <time name="dav">    2.08    2.09</time>
   <time name="total">    2.08    2.09</time>
   <dipole>
    <v name="dipole">      0.00000000       0.00000000       0.00003845 </v>
    <i name="Tr[quadrupol]">  -8162.14248577 </i>
    <i name="Echarged">      0.00000000 </i>
    <i name="Edipol_quadrupol">      0.00000000 </i>
    <i name="Eion">      0.00000000 </i>
   </dipole>
   <energy>
    <i name="e_fr_energy">   -522.29169486 </i>
    <i name="e_wo_entrp">   -522.10920951 </i>
    <i name="e_0_energy">   -522.20045219 </i>
   </energy>
  </scstep>
  <scstep>
   <time name="dav">    2.11    2.12</time>
   <time name="total">    2.16    2.17</time>
   <dipole>
    <v name="dipole">      0.00000000       0.00000000       0.00003845 </v>
    <i name="Tr[quadrupol]">  -8162.14248577 </i>
    <i name="Echarged">      0.00000000 </i>
    <i name="Edipol_quadrupol">      0.00000000 </i>
    <i name="Eion">      0.00000000 </i>
   </dipole>
   <energy>
    <i name="e_fr_energy">   -524.12418048 </i>
    <i name="e_wo_entrp">   -523.94919197 </i>
    <i name="e_0_energy">   -524.03668622 </i>
   </energy>
  </scstep>
  <scstep>
   <time name="dav">    2.18    2.18</time>
   <time name="total">    2.25    2.26</time>
   <dipole>
    <v name="dipole">      0.00000000       0.00000000      -2.10776813 </v>
    <i name="Tr[quadrupol]">  -8165.66766853 </i>
    <i name="Echarged">      0.00000000 </i>
    <i name="Edipol_quadrupol">      0.00000000 </i>
    <i name="Eion">      0.00000000 </i>
   </dipole>
   <energy>
    <i name="e_fr_energy">   -663.62445406 </i>
    <i name="e_wo_entrp">   -663.50713717 </i>
    <i name="e_0_energy">   -663.56579561 </i>
   </energy>
  </scstep>
  <scstep>
   <time name="dav">    2.03    2.04</time>
   <time name="total">    2.12    2.12</time>
   <dipole>
    <v name="dipole">      0.00000000       0.00000000      -0.72335829 </v>
    <i name="Tr[quadrupol]">  -8164.14590166 </i>
    <i name="Echarged">      0.00000000 </i>
    <i name="Edipol_quadrupol">      0.00000000 </i>
    <i name="Eion">      0.00000000 </i>
   </dipole>
   <energy>
    <i name="e_fr_energy">   -522.09581806 </i>
    <i name="e_wo_entrp">   -522.04186647 </i>
    <i name="e_0_energy">   -522.06884227 </i>
   </energy>
  </scstep>
  <scstep>
   <time name="dav">    1.94    1.94</time>
   <time name="total">    2.01    2.03</time>
   <dipole>
    <v name="dipole">      0.00000000       0.00000000      -0.77730623 </v>
    <i name="Tr[quadrupol]">  -8164.73532172 </i>
    <i name="Echarged">      0.00000000 </i>
    <i name="Edipol_quadrupol">      0.00000000 </i>
    <i name="Eion">      0.00000000 </i>
   </dipole>
   <energy>
    <i name="e_fr_energy">   -494.97494622 </i>
    <i name="e_wo_entrp">   -494.91856174 </i>
    <i name="e_0_energy">   -494.94675398 </i>
   </energy>
  </scstep>
  <scstep>
   <time name="dav">    2.14    2.14</time>
   <time name="total">    2.22    2.22</time>
   <dipole>
    <v name="dipole">      0.00000000       0.00000000      -0.54939024 </v>
    <i name="Tr[quadrupol]">  -8165.47569223 </i>
    <i name="Echarged">      0.00000000 </i>
    <i name="Edipol_quadrupol">      0.00000000 </i>
    <i name="Eion">      0.00000000 </i>
   </dipole>
   <energy>
    <i name="e_fr_energy">   -500.68883090 </i>
    <i name="e_wo_entrp">   -500.53885279 </i>
    <i name="e_0_energy">   -500.61384185 </i>
   </energy>
  </scstep>
  <scstep>
   <time name="dav">    2.06    2.06</time>
   <time name="total">    2.14    2.14</time>
   <dipole>
    <v name="dipole">      0.00000000       0.00000000      -0.63111507 </v>
    <i name="Tr[quadrupol]">  -8165.35386054 </i>
    <i name="Echarged">      0.00000000 </i>
    <i name="Edipol_quadrupol">      0.00000000 </i>
    <i name="Eion">      0.00000000 </i>
   </dipole>
   <energy>
    <i name="e_fr_energy">   -484.32348660 </i>
    <i name="e_wo_entrp">   -484.26721721 </i>
    <i name="e_0_energy">   -484.29535191 </i>
   </energy>
  </scstep>
  <scstep>
   <time name="dav">    2.09    2.09</time>
   <time name="total">    2.17    2.17</time>
   <dipole>
    <v name="dipole">      0.00000000       0.00000000      -0.54757103 </v>
    <i name="Tr[quadrupol]">  -8165.53633530 </i>
    <i name="Echarged">      0.00000000 </i>
    <i name="Edipol_quadrupol">      0.00000000 </i>
    <i name="Eion">      0.00000000 </i>
   </dipole>
   <energy>
    <i name="e_fr_energy">   -483.79415283 </i>
    <i name="e_wo_entrp">   -483.72694588 </i>
    <i name="e_0_energy">   -483.76054936 </i>
   </energy>
  </scstep>
  <scstep>
   <time name="dav">    2.15    2.15</time>
   <time name="total">    2.22    2.23</time>
   <dipole>
    <v name="dipole">      0.00000000       0.00000000      -0.50090384 </v>
    <i name="Tr[quadrupol]">  -8165.95535267 </i>
    <i name="Echarged">      0.00000000 </i>
    <i name="Edipol_quadrupol">      0.00000000 </i>
    <i name="Eion">      0.00000000 </i>
   </dipole>
   <energy>
    <i name="e_fr_energy">   -482.93387973 </i>
    <i name="e_wo_entrp">   -482.86754319 </i>
    <i name="e_0_energy">   -482.90071146 </i>
   </energy>
  </scstep>
  <scstep>
   <time name="dav">    2.00    2.01</time>
   <time name="total">    2.08    2.09</time>
   <dipole>
    <v name="dipole">      0.00000000       0.00000000      -0.46508075 </v>
    <i name="Tr[quadrupol]">  -8166.13173481 </i>
    <i name="Echarged">      0.00000000 </i>
    <i name="Edipol_quadrupol">      0.00000000 </i>
    <i name="Eion">      0.00000000 </i>
   </dipole>
   <energy>
    <i name="e_fr_energy">   -482.99660017 </i>
    <i name="e_wo_entrp">   -482.92955288 </i>
    <i name="e_0_energy">   -482.96307653 </i>
   </energy>
  </scstep>
  <scstep>
   <time name="dav">    2.00    2.00</time>
   <time name="total">    2.08    2.08</time>
   <dipole>
    <v name="dipole">      0.00000000       0.00000000      -0.44083258 </v>
    <i name="Tr[quadrupol]">  -8166.31590678 </i>
    <i name="Echarged">      0.00000000 </i>
    <i name="Edipol_quadrupol">      0.00000000 </i>
    <i name="Eion">      0.00000000 </i>
   </dipole>
   <energy>
    <i name="e_fr_energy">   -482.91272341 </i>
    <i name="e_wo_entrp">   -482.84491588 </i>
    <i name="e_0_energy">   -482.87881964 </i>
   </energy>
  </scstep>
  <scstep>
   <time name="dav">    2.15    2.15</time>
   <time name="total">    2.22    2.22</time>
   <dipole>
    <v name="dipole">      0.00000000       0.00000000      -0.42128017 </v>
    <i name="Tr[quadrupol]">  -8166.64928015 </i>
    <i name="Echarged">      0.00000000 </i>
    <i name="Edipol_quadrupol">      0.00000000 </i>
    <i name="Eion">      0.00000000 </i>
   </dipole>
   <energy>
    <i name="e_fr_energy">   -482.76795184 </i>
    <i name="e_wo_entrp">   -482.70134016 </i>
    <i name="e_0_energy">   -482.73464600 </i>
   </energy>
  </scstep>
  <scstep>
   <time name="dav">    2.21    2.21</time>
   <time name="total">    2.28    2.28</time>
   <dipole>
    <v name="dipole">      0.00000000       0.00000000      -0.39361787 </v>
    <i name="Tr[quadrupol]">  -8166.99795327 </i>
    <i name="Echarged">      0.00000000 </i>
    <i name="Edipol_quadrupol">      0.00000000 </i>
    <i name="Eion">      0.00000000 </i>
   </dipole>
   <energy>
    <i name="e_fr_energy">   -482.51519284 </i>
    <i name="e_wo_entrp">   -482.44853511 </i>
    <i name="e_0_energy">   -482.48186397 </i>
   </energy>
  </scstep>
  <scstep>
   <time name="dav">    2.22    2.23</time>
   <time name="total">    2.30    2.30</time>
   <dipole>
    <v name="dipole">      0.00000000       0.00000000      -0.36442572 </v>
    <i name="Tr[quadrupol]">  -8167.25704361 </i>
    <i name="Echarged">      0.00000000 </i>
    <i name="Edipol_quadrupol">      0.00000000 </i>
    <i name="Eion">      0.00000000 </i>
   </dipole>
   <energy>
    <i name="e_fr_energy">   -482.35271781 </i>
    <i name="e_wo_entrp">   -482.28555054 </i>
    <i name="e_0_energy">   -482.31913417 </i>
   </energy>
  </scstep>
  <scstep>
   <time name="dav">    2.10    2.11</time>
   <time name="total">    2.18    2.18</time>
   <dipole>
    <v name="dipole">      0.00000000       0.00000000      -0.35107264 </v>
    <i name="Tr[quadrupol]">  -8167.33003178 </i>
    <i name="Echarged">      0.00000000 </i>
    <i name="Edipol_quadrupol">      0.00000000 </i>
    <i name="Eion">      0.00000000 </i>
   </dipole>
   <energy>
    <i name="e_fr_energy">   -482.32268341 </i>
    <i name="e_wo_entrp">   -482.25546151 </i>
    <i name="e_0_energy">   -482.28907246 </i>
   </energy>
  </scstep>
  <scstep>
   <time name="dav">    2.29    2.30</time>
   <time name="total">    2.37    2.37</time>
   <dipole>
    <v name="dipole">      0.00000000       0.00000000      -0.33979867 </v>
    <i name="Tr[quadrupol]">  -8167.38973066 </i>
    <i name="Echarged">      0.00000000 </i>
    <i name="Edipol_quadrupol">      0.00000000 </i>
    <i name="Eion">      0.00000000 </i>
   </dipole>
   <energy>
    <i name="e_fr_energy">   -482.29433437 </i>
    <i name="e_wo_entrp">   -482.22700268 </i>
    <i name="e_0_energy">   -482.26066853 </i>
   </energy>
  </scstep>
  <scstep>
   <time name="dav">    2.29    2.29</time>
   <time name="total">    2.37    2.37</time>
   <dipole>
    <v name="dipole">      0.00000000       0.00000000      -0.28224003 </v>
    <i name="Tr[quadrupol]">  -8167.79388896 </i>
    <i name="Echarged">      0.00000000 </i>
    <i name="Edipol_quadrupol">      0.00000000 </i>
    <i name="Eion">      0.00000000 </i>
   </dipole>
   <energy>
    <i name="e_fr_energy">   -482.19085874 </i>
    <i name="e_wo_entrp">   -482.12263694 </i>
    <i name="e_0_energy">   -482.15674784 </i>
   </energy>
  </scstep>
  <scstep>
   <time name="dav">    2.22    2.22</time>
   <time name="total">    2.30    2.30</time>
   <dipole>
    <v name="dipole">      0.00000000       0.00000000      -0.21919058 </v>
    <i name="Tr[quadrupol]">  -8168.10057160 </i>
    <i name="Echarged">      0.00000000 </i>
    <i name="Edipol_quadrupol">      0.00000000 </i>
    <i name="Eion">      0.00000000 </i>
   </dipole>
   <energy>
    <i name="e_fr_energy">   -482.11013596 </i>
    <i name="e_wo_entrp">   -482.04170071 </i>
    <i name="e_0_energy">   -482.07591833 </i>
   </energy>
  </scstep>
  <scstep>
   <time name="dav">    1.84    1.85</time>
   <time name="total">    1.92    1.93</time>
   <dipole>
    <v name="dipole">      0.00000000       0.00000000      -0.21539940 </v>
    <i name="Tr[quadrupol]">  -8168.11758296 </i>
    <i name="Echarged">      0.00000000 </i>
    <i name="Edipol_quadrupol">      0.00000000 </i>
    <i name="Eion">      0.00000000 </i>
   </dipole>
   <energy>
    <i name="e_fr_energy">   -482.11130760 </i>
    <i name="e_wo_entrp">   -482.04284510 </i>
    <i name="e_0_energy">   -482.07707635 </i>
   </energy>
  </scstep>
  <scstep>
   <time name="dav">    2.06    2.07</time>
   <time name="total">    2.14    2.14</time>
   <dipole>
    <v name="dipole">      0.00000000       0.00000000      -0.21438828 </v>
    <i name="Tr[quadrupol]">  -8168.12976315 </i>
    <i name="Echarged">      0.00000000 </i>
    <i name="Edipol_quadrupol">      0.00000000 </i>
    <i name="Eion">      0.00000000 </i>
   </dipole>
   <energy>
    <i name="e_fr_energy">   -482.11092075 </i>
    <i name="e_wo_entrp">   -482.04244405 </i>
    <i name="e_0_energy">   -482.07668240 </i>
   </energy>
  </scstep>
  <scstep>
   <time name="dav">    1.91    1.91</time>
   <time name="total">    1.99    1.99</time>
   <dipole>
    <v name="dipole">      0.00000000       0.00000000      -0.20469707 </v>
    <i name="Tr[quadrupol]">  -8168.18508297 </i>
    <i name="Echarged">      0.00000000 </i>
    <i name="Edipol_quadrupol">      0.00000000 </i>
    <i name="Eion">      0.00000000 </i>
   </dipole>
   <energy>
    <i name="e_fr_energy">   -482.11191412 </i>
    <i name="e_wo_entrp">   -482.04350685 </i>
    <i name="e_0_energy">   -482.07771049 </i>
   </energy>
  </scstep>
  <scstep>
   <time name="dav">    2.12    2.12</time>
   <time name="total">    2.20    2.21</time>
   <dipole>
    <v name="dipole">      0.00000000       0.00000000      -0.16427069 </v>
    <i name="Tr[quadrupol]">  -8168.31697669 </i>
    <i name="Echarged">      0.00000000 </i>
    <i name="Edipol_quadrupol">      0.00000000 </i>
    <i name="Eion">      0.00000000 </i>
   </dipole>
   <energy>
    <i name="e_fr_energy">   -482.10273635 </i>
    <i name="e_wo_entrp">   -482.03428690 </i>
    <i name="e_0_energy">   -482.06851163 </i>
   </energy>
  </scstep>
  <scstep>
   <time name="dav">    2.04    2.05</time>
   <time name="total">    2.12    2.13</time>
   <dipole>
    <v name="dipole">      0.00000000       0.00000000      -0.14935018 </v>
    <i name="Tr[quadrupol]">  -8168.33839104 </i>
    <i name="Echarged">      0.00000000 </i>
    <i name="Edipol_quadrupol">      0.00000000 </i>
    <i name="Eion">      0.00000000 </i>
   </dipole>
   <energy>
    <i name="e_fr_energy">   -482.10269138 </i>
    <i name="e_wo_entrp">   -482.03423884 </i>
    <i name="e_0_energy">   -482.06846511 </i>
   </energy>
  </scstep>
  <scstep>
   <time name="dav">    1.93    1.93</time>
   <time name="total">    2.00    2.01</time>
   <dipole>
    <v name="dipole">      0.00000000       0.00000000      -0.14384287 </v>
    <i name="Tr[quadrupol]">  -8168.32079605 </i>
    <i name="Echarged">      0.00000000 </i>
    <i name="Edipol_quadrupol">      0.00000000 </i>
    <i name="Eion">      0.00000000 </i>
   </dipole>
   <energy>
    <i name="e_fr_energy">   -482.10119176 </i>
    <i name="e_wo_entrp">   -482.03269463 </i>
    <i name="e_0_energy">   -482.06694320 </i>
   </energy>
  </scstep>
  <scstep>
   <time name="dav">    1.97    1.97</time>
   <time name="total">    2.04    2.04</time>
   <dipole>
    <v name="dipole">      0.00000000       0.00000000      -0.14180036 </v>
    <i name="Tr[quadrupol]">  -8168.32270337 </i>
    <i name="Echarged">      0.00000000 </i>
    <i name="Edipol_quadrupol">      0.00000000 </i>
    <i name="Eion">      0.00000000 </i>
   </dipole>
   <energy>
    <i name="e_fr_energy">   -482.10076000 </i>
    <i name="e_wo_entrp">   -482.03224678 </i>
    <i name="e_0_energy">   -482.06650339 </i>
   </energy>
  </scstep>
  <scstep>
   <time name="dav">    2.14    2.15</time>
   <time name="total">    2.22    2.23</time>
   <dipole>
    <v name="dipole">      0.00000000       0.00000000      -0.12996912 </v>
    <i name="Tr[quadrupol]">  -8168.32523405 </i>
    <i name="Echarged">      0.00000000 </i>
    <i name="Edipol_quadrupol">      0.00000000 </i>
    <i name="Eion">      0.00000000 </i>
   </dipole>
   <energy>
    <i name="e_fr_energy">   -482.09910665 </i>
    <i name="e_wo_entrp">   -482.03048425 </i>
    <i name="e_0_energy">   -482.06479545 </i>
   </energy>
  </scstep>
  <scstep>
   <time name="dav">    2.13    2.13</time>
   <time name="total">    2.20    2.21</time>
   <dipole>
    <v name="dipole">      0.00000000       0.00000000      -0.12247117 </v>
    <i name="Tr[quadrupol]">  -8168.33637917 </i>
    <i name="Echarged">      0.00000000 </i>
    <i name="Edipol_quadrupol">      0.00000000 </i>
    <i name="Eion">      0.00000000 </i>
   </dipole>
   <energy>
    <i name="e_fr_energy">   -482.09928886 </i>
    <i name="e_wo_entrp">   -482.03059115 </i>
    <i name="e_0_energy">   -482.06494000 </i>
   </energy>
  </scstep>
  <scstep>
   <time name="dav">    1.89    1.90</time>
   <time name="total">    1.97    1.97</time>
   <dipole>
    <v name="dipole">      0.00000000       0.00000000      -0.12104117 </v>
    <i name="Tr[quadrupol]">  -8168.33611904 </i>
    <i name="Echarged">      0.00000000 </i>
    <i name="Edipol_quadrupol">      0.00000000 </i>
    <i name="Eion">      0.00000000 </i>
   </dipole>
   <energy>
    <i name="e_fr_energy">   -482.09945925 </i>
    <i name="e_wo_entrp">   -482.03075703 </i>
    <i name="e_0_energy">   -482.06510814 </i>
   </energy>
  </scstep>
  <scstep>
   <time name="dav">    1.98    1.98</time>
   <time name="total">    2.06    2.06</time>
   <dipole>
    <v name="dipole">      0.00000000       0.00000000      -0.11871777 </v>
    <i name="Tr[quadrupol]">  -8168.33532791 </i>
    <i name="Echarged">      0.00000000 </i>
    <i name="Edipol_quadrupol">      0.00000000 </i>
    <i name="Eion">      0.00000000 </i>
   </dipole>
   <energy>
    <i name="e_fr_energy">   -482.09960609 </i>
    <i name="e_wo_entrp">   -482.03088547 </i>
    <i name="e_0_energy">   -482.06524578 </i>
   </energy>
  </scstep>
  <scstep>
   <time name="dav">    1.78    1.78</time>
   <time name="total">    1.85    1.86</time>
   <dipole>
    <v name="dipole">      0.00000000       0.00000000      -0.11694606 </v>
    <i name="Tr[quadrupol]">  -8168.37176442 </i>
    <i name="Echarged">      0.00000000 </i>
    <i name="Edipol_quadrupol">      0.00000000 </i>
    <i name="Eion">      0.00000000 </i>
   </dipole>
   <energy>
    <i name="e_fr_energy">   -482.09988924 </i>
    <i name="e_wo_entrp">   -482.03116874 </i>
    <i name="e_0_energy">   -482.06552899 </i>
   </energy>
  </scstep>
  <scstep>
   <time name="dav">    1.26    1.26</time>
   <time name="total">    1.34    1.34</time>
   <dipole>
    <v name="dipole">      0.00000000       0.00000000      -0.11526699 </v>
    <i name="Tr[quadrupol]">  -8168.39454725 </i>
    <i name="Echarged">      0.00000000 </i>
    <i name="Edipol_quadrupol">      0.00000000 </i>
    <i name="Eion">      0.00000000 </i>
   </dipole>
   <energy>
    <i name="e_fr_energy">   -482.09999120 </i>
    <i name="e_wo_entrp">   -482.03125773 </i>
    <i name="e_0_energy">   -482.06562447 </i>
   </energy>
  </scstep>
  <scstep>
   <time name="dav">    1.65    1.65</time>
   <time name="total">    1.73    1.73</time>
   <dipole>
    <v name="dipole">      0.00000000       0.00000000      -0.11395092 </v>
    <i name="Tr[quadrupol]">  -8168.41498468 </i>
    <i name="Echarged">      0.00000000 </i>
    <i name="Edipol_quadrupol">      0.00000000 </i>
    <i name="Eion">      0.00000000 </i>
   </dipole>
   <energy>
    <i name="e_fr_energy">   -482.10009824 </i>
    <i name="e_wo_entrp">   -482.03136146 </i>
    <i name="e_0_energy">   -482.06572985 </i>
   </energy>
  </scstep>
  <scstep>
   <time name="dav">    1.24    1.24</time>
   <time name="total">    1.32    1.32</time>
   <dipole>
    <v name="dipole">      0.00000000       0.00000000      -0.11421514 </v>
    <i name="Tr[quadrupol]">  -8168.41551013 </i>
    <i name="Echarged">      0.00000000 </i>
    <i name="Edipol_quadrupol">      0.00000000 </i>
    <i name="Eion">      0.00000000 </i>
   </dipole>
   <energy>
    <i name="e_fr_energy">   -482.10005749 </i>
    <i name="e_wo_entrp">   -482.03133437 </i>
    <i name="e_0_energy">   -482.06569593 </i>
   </energy>
  </scstep>
  <scstep>
   <time name="dav">    1.34    1.35</time>
   <time name="total">    1.42    1.43</time>
   <dipole>
    <v name="dipole">      0.00000000       0.00000000      -0.11458594 </v>
    <i name="Tr[quadrupol]">  -8168.41536212 </i>
    <i name="Echarged">      0.00000000 </i>
    <i name="Edipol_quadrupol">      0.00000000 </i>
    <i name="Eion">      0.00000000 </i>
   </dipole>
   <energy>
    <i name="e_fr_energy">   -482.10004562 </i>
    <i name="e_wo_entrp">   -482.03133075 </i>
    <i name="e_0_energy">   -482.06568819 </i>
   </energy>
  </scstep>
  <scstep>
   <time name="dav">    1.38    1.38</time>
   <time name="total">    1.41    1.41</time>
   <dipole>
    <v name="dipole">      0.00000000       0.00000000      -0.11481883 </v>
    <i name="Tr[quadrupol]">  -8168.41537649 </i>
    <i name="Echarged">      0.00000000 </i>
    <i name="Edipol_quadrupol">      0.00000000 </i>
    <i name="Eion">      0.00000000 </i>
   </dipole>
   <energy>
    <i name="alphaZ">    171.49505053 </i>
    <i name="ewald">  28919.63643680 </i>
    <i name="hartreedc"> -42978.31062529 </i>
    <i name="XCdc">   1121.30400629 </i>
    <i name="pawpsdc">  31275.33934095 </i>
    <i name="pawaedc"> -31660.98428671 </i>
    <i name="eentropy">     -0.06870676 </i>
    <i name="bandstr">  -3497.63763054 </i>
    <i name="atom">  16167.12637076 </i>
    <i name="e_fr_energy">   -482.10004398 </i>
    <i name="e_wo_entrp">   -482.03133721 </i>
    <i name="e_0_energy">   -482.06569060 </i>
   </energy>
  </scstep>
  <structure>
   <crystal>
    <varray name="basis" >
     <v>      13.75970367       0.00000000       0.00000000 </v>
     <v>       0.00000000      11.28669971       0.00000000 </v>
     <v>       0.00000000       0.00000000      15.00000000 </v>
    </varray>
    <i name="volume">   2329.52465126 </i>
    <varray name="rec_basis" >
     <v>       0.07267598       0.00000000       0.00000000 </v>
     <v>       0.00000000       0.08859986       0.00000000 </v>
     <v>       0.00000000       0.00000000       0.06666667 </v>
    </varray>
   </crystal>
   <varray name="positions" >
    <v>       0.07054120       0.38816457       0.22227495 </v>
    <v>       0.98151180       0.21832942       0.16785344 </v>
    <v>       0.22877304       0.39667288       0.18904348 </v>
    <v>       0.82472337       0.57572318       0.18403191 </v>
    <v>       0.14970601       0.24663792       0.12277753 </v>
    <v>       0.90758628       0.38434512       0.21811946 </v>
    <v>       0.56886571       0.39316130       0.23173729 </v>
    <v>       0.47768100       0.22391730       0.18017943 </v>
    <v>       0.73035049       0.39802658       0.19909345 </v>
    <v>       0.31101118       0.58132963       0.17977696 </v>
    <v>       0.64681854       0.25040749       0.13377315 </v>
    <v>       0.40275100       0.39355427       0.22106508 </v>
    <v>       0.81808056       0.88988957       0.05647519 </v>
    <v>       0.73319531       0.72568325       0.12448457 </v>
    <v>       0.97932824       0.89597624       0.07999408 </v>
    <v>       0.06867909       0.07698375       0.09423854 </v>
    <v>       0.90528082       0.74258583       0.14719628 </v>
    <v>       0.65472406       0.89333727       0.07691603 </v>
    <v>       0.31825350       0.89473226       0.05377466 </v>
    <v>       0.22716619       0.72126926       0.10084126 </v>
    <v>       0.47498917       0.90396535       0.09489577 </v>
    <v>       0.56592959       0.08075138       0.11024766 </v>
    <v>       0.38612516       0.76037560       0.16363174 </v>
    <v>       0.15509033       0.88950396       0.05271529 </v>
    <v>       0.98784551       0.43883046       0.24713656 </v>
    <v>       0.89991795       0.26975381       0.19549767 </v>
    <v>       0.15759857       0.43325808       0.24240148 </v>
    <v>       0.14788829       0.14353661       0.08017307 </v>
    <v>       0.98633649       0.10796021       0.13653167 </v>
    <v>       0.22915942       0.31533454       0.12527490 </v>
    <v>       0.06735802       0.28598388       0.16888911 </v>
    <v>       0.82274912       0.45552252       0.21014877 </v>
    <v>       0.48493735       0.44793349       0.25146232 </v>
    <v>       0.39648714       0.27665554       0.20625030 </v>
    <v>       0.65756919       0.43524210       0.25419888 </v>
    <v>       0.64488604       0.14640144       0.09374788 </v>
    <v>       0.48286722       0.11321356       0.15081376 </v>
    <v>       0.72606390       0.31870920       0.13454719 </v>
    <v>       0.56470606       0.29135323       0.18008364 </v>
    <v>       0.31888640       0.46086995       0.20329135 </v>
    <v>       0.73287748       0.94248397       0.03965616 </v>
    <v>       0.64891188       0.78317499       0.11254597 </v>
    <v>       0.90382696       0.93469024       0.03189926 </v>
    <v>       0.90701680       0.63807548       0.18754912 </v>
    <v>       0.73647441       0.61699787       0.15934394 </v>
    <v>       0.98321706       0.81212363       0.14197152 </v>
    <v>       0.81925020       0.78400528       0.10639513 </v>
    <v>       0.56804185       0.96074410       0.08520074 </v>
    <v>       0.23699719       0.94478449       0.02657725 </v>
    <v>       0.14820250       0.77173059       0.06843984 </v>
    <v>       0.40793432       0.93556381       0.03646331 </v>
    <v>       0.38047481       0.65838217       0.20939239 </v>
    <v>       0.23501053       0.60894863       0.12850628 </v>
    <v>       0.46527775       0.83024755       0.16578047 </v>
    <v>       0.31113112       0.79334051       0.10891910 </v>
    <v>       0.06990262       0.95754122       0.06514651 </v>
    <v>       0.57736557       0.77647674       0.24193941 </v>
    <v>       0.65582252       0.60772566       0.29790490 </v>
    <v>       0.48700699       0.61617049       0.29396059 </v>
   </varray>
  </structure>
  <varray name="forces" >
   <v>      -0.03128520      -0.01730868      -0.02871728 </v>
   <v>       0.02638887       0.06418810       0.02135318 </v>
   <v>      -0.01935031       0.01684773      -0.04590570 </v>
   <v>       0.02067709       0.07879712       0.10251360 </v>
   <v>      -0.00534440       0.05866795       0.04453120 </v>
   <v>      -0.02570458       0.03706995      -0.01056891 </v>
   <v>      -0.07886655       0.00058925      -0.04094071 </v>
   <v>      -0.04259724       0.13314502       0.04147767 </v>
   <v>      -0.06117173       0.07128685       0.01488114 </v>
   <v>      -0.07543749       0.11764956       0.02526110 </v>
   <v>      -0.02531712       0.12018393       0.08147846 </v>
   <v>       0.00114512       0.05397649       0.01075093 </v>
   <v>      -0.02694588       0.00833008       0.01383446 </v>
   <v>       0.02131697       0.04468251      -0.01816993 </v>
   <v>      -0.01153616       0.08148443      -0.00423761 </v>
   <v>      -0.02154292       0.07388795      -0.02353568 </v>
   <v>      -0.00234989       0.11238970      -0.08105986 </v>
   <v>      -0.00732761       0.03473827       0.04328236 </v>
   <v>      -0.05874443      -0.00548899       0.04608963 </v>
   <v>       0.01469231       0.07337078      -0.02435277 </v>
   <v>      -0.03756708       0.04469614       0.05995657 </v>
   <v>      -0.03199952       0.11174461      -0.05859424 </v>
   <v>      -0.00214400       0.06434863      -0.08150710 </v>
   <v>      -0.07052183       0.02981357       0.01088214 </v>
   <v>       0.06118697      -0.01087374      -0.00254352 </v>
   <v>      -0.03631983      -0.01005583       0.01553833 </v>
   <v>       0.06241165      -0.00042244       0.01137226 </v>
   <v>      -0.03255929      -0.03383771      -0.00012644 </v>
   <v>       0.06209780      -0.01260409      -0.01971272 </v>
   <v>       0.01432902      -0.03964225      -0.04033639 </v>
   <v>       0.00879425       0.01046694       0.01750087 </v>
   <v>       0.00543168      -0.11695255       0.06740357 </v>
   <v>       0.05828403       0.01607747      -0.03158006 </v>
   <v>       0.02751309      -0.06954293      -0.05448947 </v>
   <v>       0.11868561       0.00550740      -0.04885679 </v>
   <v>      -0.03715479      -0.08696137      -0.01928164 </v>
   <v>       0.06739695      -0.10161156      -0.02416683 </v>
   <v>      -0.03833792      -0.06086864      -0.06527580 </v>
   <v>       0.00288067      -0.05169108      -0.01991960 </v>
   <v>      -0.03149968      -0.11581929       0.02551186 </v>
   <v>       0.08536616       0.00592562      -0.01654464 </v>
   <v>       0.02535757       0.00106065      -0.00218202 </v>
   <v>       0.02769554      -0.00862301       0.01575674 </v>
   <v>      -0.04828333      -0.14957173       0.01886558 </v>
   <v>      -0.00823725      -0.02520982       0.01703323 </v>
   <v>      -0.01034626      -0.08246339       0.02397525 </v>
   <v>       0.00647123      -0.05884898       0.07830245 </v>
   <v>      -0.03248943      -0.08934983      -0.04673740 </v>
   <v>       0.06837052       0.01979720       0.00088800 </v>
   <v>      -0.00778746      -0.02918305      -0.04155775 </v>
   <v>       0.08191315       0.01825563       0.02403524 </v>
   <v>       0.01719056      -0.07340542      -0.01645134 </v>
   <v>       0.05603848      -0.06105875       0.01329065 </v>
   <v>      -0.03151035      -0.03396260       0.01513363 </v>
   <v>       0.01535912      -0.00895087       0.02107476 </v>
   <v>      -0.01809094      -0.10445975      -0.02109504 </v>
   <v>       0.00060664      -0.00842509      -0.01075407 </v>
   <v>       0.00791384      -0.01795272       0.04488074 </v>
   <v>       0.00285561      -0.02383340      -0.02765432 </v>
  </varray>
  <varray name="stress" >
   <v>      -6.22536098       4.84027718       0.08420012 </v>
   <v>       4.84027716      -7.57759337      -0.17213915 </v>
   <v>       0.08420009      -0.17213914     -13.39714308 </v>
  </varray>
  <energy>
   <i name="e_fr_energy">   -482.10004398 </i>
   <i name="e_wo_entrp">   -482.03133721 </i>
   <i name="e_0_energy">   -482.06569060 </i>
  </energy>
  <time name="totalsc">   77.91   78.06</time>
 </calculation>
 <calculation>
  <scstep>
   <time name="dav">    1.68    1.68</time>
   <time name="total">    1.76    1.76</time>
   <dipole>
    <v name="dipole">      0.00000000       0.00000000      -0.11500424 </v>
    <i name="Tr[quadrupol]">  -8142.27906410 </i>
    <i name="Echarged">      0.00000000 </i>
    <i name="Edipol_quadrupol">      0.00000000 </i>
    <i name="Eion">      0.00000000 </i>
   </dipole>
   <energy>
    <i name="alphaZ">    172.05935300 </i>
    <i name="ewald">  29033.06023555 </i>
    <i name="hartreedc"> -43099.59028171 </i>
    <i name="XCdc">   1122.52459268 </i>
    <i name="pawpsdc">  31276.02258821 </i>
    <i name="pawaedc"> -31661.66727857 </i>
    <i name="eentropy">     -0.06872546 </i>
    <i name="bandstr">  -3491.60924969 </i>
    <i name="atom">  16167.12637076 </i>
    <i name="e_fr_energy">   -482.14239523 </i>
    <i name="e_wo_entrp">   -482.07366977 </i>
    <i name="e_0_energy">   -482.10803250 </i>
   </energy>
  </scstep>
  <scstep>
   <time name="dav">    1.94    1.94</time>
   <time name="total">    2.01    2.02</time>
   <dipole>
    <v name="dipole">      0.00000000       0.00000000      -0.12402706 </v>
    <i name="Tr[quadrupol]">  -8142.31246157 </i>
    <i name="Echarged">      0.00000000 </i>
    <i name="Edipol_quadrupol">      0.00000000 </i>
    <i name="Eion">      0.00000000 </i>
   </dipole>
   <energy>
    <i name="e_fr_energy">   -482.15621381 </i>
    <i name="e_wo_entrp">   -482.08808767 </i>
    <i name="e_0_energy">   -482.12215074 </i>
   </energy>
  </scstep>
  <scstep>
   <time name="dav">    2.15    2.15</time>
   <time name="total">    2.22    2.23</time>
   <dipole>
    <v name="dipole">      0.00000000       0.00000000      -0.11491578 </v>
    <i name="Tr[quadrupol]">  -8142.28413901 </i>
    <i name="Echarged">      0.00000000 </i>
    <i name="Edipol_quadrupol">      0.00000000 </i>
    <i name="Eion">      0.00000000 </i>
   </dipole>
   <energy>
    <i name="e_fr_energy">   -482.12767942 </i>
    <i name="e_wo_entrp">   -482.05931968 </i>
    <i name="e_0_energy">   -482.09349955 </i>
   </energy>
  </scstep>
  <scstep>
   <time name="dav">    1.97    1.98</time>
   <time name="total">    2.05    2.05</time>
   <dipole>
    <v name="dipole">      0.00000000       0.00000000      -0.11331038 </v>
    <i name="Tr[quadrupol]">  -8142.26403255 </i>
    <i name="Echarged">      0.00000000 </i>
    <i name="Edipol_quadrupol">      0.00000000 </i>
    <i name="Eion">      0.00000000 </i>
   </dipole>
   <energy>
    <i name="e_fr_energy">   -482.12820606 </i>
    <i name="e_wo_entrp">   -482.05986271 </i>
    <i name="e_0_energy">   -482.09403439 </i>
   </energy>
  </scstep>
  <scstep>
   <time name="dav">    2.12    2.12</time>
   <time name="total">    2.20    2.20</time>
   <dipole>
    <v name="dipole">      0.00000000       0.00000000      -0.11360354 </v>
    <i name="Tr[quadrupol]">  -8142.26434797 </i>
    <i name="Echarged">      0.00000000 </i>
    <i name="Edipol_quadrupol">      0.00000000 </i>
    <i name="Eion">      0.00000000 </i>
   </dipole>
   <energy>
    <i name="e_fr_energy">   -482.12756755 </i>
    <i name="e_wo_entrp">   -482.05925742 </i>
    <i name="e_0_energy">   -482.09341248 </i>
   </energy>
  </scstep>
  <scstep>
   <time name="dav">    1.98    1.98</time>
   <time name="total">    2.06    2.06</time>
   <dipole>
    <v name="dipole">      0.00000000       0.00000000      -0.11437137 </v>
    <i name="Tr[quadrupol]">  -8142.26701581 </i>
    <i name="Echarged">      0.00000000 </i>
    <i name="Edipol_quadrupol">      0.00000000 </i>
    <i name="Eion">      0.00000000 </i>
   </dipole>
   <energy>
    <i name="e_fr_energy">   -482.12745483 </i>
    <i name="e_wo_entrp">   -482.05911144 </i>
    <i name="e_0_energy">   -482.09328314 </i>
   </energy>
  </scstep>
  <scstep>
   <time name="dav">    1.50    1.50</time>
   <time name="total">    1.57    1.57</time>
   <dipole>
    <v name="dipole">      0.00000000       0.00000000      -0.11372826 </v>
    <i name="Tr[quadrupol]">  -8142.26882614 </i>
    <i name="Echarged">      0.00000000 </i>
    <i name="Edipol_quadrupol">      0.00000000 </i>
    <i name="Eion">      0.00000000 </i>
   </dipole>
   <energy>
    <i name="e_fr_energy">   -482.12745793 </i>
    <i name="e_wo_entrp">   -482.05916356 </i>
    <i name="e_0_energy">   -482.09331074 </i>
   </energy>
  </scstep>
  <scstep>
   <time name="dav">    1.35    1.35</time>
   <time name="total">    1.38    1.38</time>
   <dipole>
    <v name="dipole">      0.00000000       0.00000000      -0.11358876 </v>
    <i name="Tr[quadrupol]">  -8142.27013134 </i>
    <i name="Echarged">      0.00000000 </i>
    <i name="Edipol_quadrupol">      0.00000000 </i>
    <i name="Eion">      0.00000000 </i>
   </dipole>
   <energy>
    <i name="alphaZ">    171.80960965 </i>
    <i name="ewald">  29033.06023555 </i>
    <i name="hartreedc"> -43091.39480474 </i>
    <i name="XCdc">   1122.03180482 </i>
    <i name="pawpsdc">  31427.40835650 </i>
    <i name="pawaedc"> -31813.18476125 </i>
    <i name="eentropy">     -0.06831313 </i>
    <i name="bandstr">  -3498.91595949 </i>
    <i name="atom">  16167.12637076 </i>
    <i name="e_fr_energy">   -482.12746134 </i>
    <i name="e_wo_entrp">   -482.05914821 </i>
    <i name="e_0_energy">   -482.09330477 </i>
   </energy>
  </scstep>
  <structure>
   <crystal>
    <varray name="basis" >
     <v>      13.73933609       0.00000000       0.00000000 </v>
     <v>       0.00000000      11.26636377       0.00000000 </v>
     <v>       0.00000000       0.00000000      15.00000000 </v>
    </varray>
    <i name="volume">   2321.88537518 </i>
    <varray name="rec_basis" >
     <v>       0.07278372       0.00000000       0.00000000 </v>
     <v>       0.00000000       0.08875978       0.00000000 </v>
     <v>       0.00000000       0.00000000       0.06666667 </v>
    </varray>
   </crystal>
   <varray name="positions" >
    <v>       0.07051926       0.38814978       0.22225648 </v>
    <v>       0.98153030       0.21838429       0.16786717 </v>
    <v>       0.22875947       0.39668729       0.18901395 </v>
    <v>       0.82473787       0.57579054       0.18409785 </v>
    <v>       0.14970226       0.24668807       0.12280617 </v>
    <v>       0.90756826       0.38437681       0.21811266 </v>
    <v>       0.56881041       0.39316180       0.23171096 </v>
    <v>       0.47765113       0.22403112       0.18020611 </v>
    <v>       0.73030760       0.39808752       0.19910303 </v>
    <v>       0.31095828       0.58143020       0.17979320 </v>
    <v>       0.64680079       0.25051023       0.13382556 </v>
    <v>       0.40275180       0.39360041       0.22107199 </v>
    <v>       0.81806167       0.88989669       0.05648409 </v>
    <v>       0.73321026       0.72572144       0.12447288 </v>
    <v>       0.97932015       0.89604589       0.07999135 </v>
    <v>       0.06866399       0.07704692       0.09422340 </v>
    <v>       0.90527917       0.74268190       0.14714414 </v>
    <v>       0.65471892       0.89336697       0.07694387 </v>
    <v>       0.31821230       0.89472757       0.05380431 </v>
    <v>       0.22717649       0.72133198       0.10082560 </v>
    <v>       0.47496283       0.90400356       0.09493433 </v>
    <v>       0.56590716       0.08084690       0.11020997 </v>
    <v>       0.38612366       0.76043061       0.16357931 </v>
    <v>       0.15504088       0.88952945       0.05272228 </v>
    <v>       0.98788842       0.43882116       0.24713492 </v>
    <v>       0.89989248       0.26974522       0.19550767 </v>
    <v>       0.15764233       0.43325772       0.24240879 </v>
    <v>       0.14786546       0.14350768       0.08017299 </v>
    <v>       0.98638003       0.10794944       0.13651899 </v>
    <v>       0.22916947       0.31530065       0.12524896 </v>
    <v>       0.06736418       0.28599283       0.16890037 </v>
    <v>       0.82275293       0.45542254       0.21019213 </v>
    <v>       0.48497822       0.44794724       0.25144200 </v>
    <v>       0.39650644       0.27659609       0.20621525 </v>
    <v>       0.65765241       0.43524681       0.25416746 </v>
    <v>       0.64485999       0.14632710       0.09373548 </v>
    <v>       0.48291448       0.11312670       0.15079821 </v>
    <v>       0.72603702       0.31865716       0.13450521 </v>
    <v>       0.56470808       0.29130904       0.18007082 </v>
    <v>       0.31886432       0.46077094       0.20330776 </v>
    <v>       0.73293734       0.94248903       0.03964552 </v>
    <v>       0.64892966       0.78317589       0.11254456 </v>
    <v>       0.90384638       0.93468287       0.03190940 </v>
    <v>       0.90698294       0.63794762       0.18756126 </v>
    <v>       0.73646863       0.61697631       0.15935489 </v>
    <v>       0.98320981       0.81205313       0.14198694 </v>
    <v>       0.81925474       0.78395497       0.10644550 </v>
    <v>       0.56801906       0.96066772       0.08517067 </v>
    <v>       0.23704513       0.94480141       0.02657782 </v>
    <v>       0.14819704       0.77170565       0.06841311 </v>
    <v>       0.40799176       0.93557942       0.03647877 </v>
    <v>       0.38048687       0.65831942       0.20938181 </v>
    <v>       0.23504983       0.60889644       0.12851483 </v>
    <v>       0.46525565       0.83021851       0.16579021 </v>
    <v>       0.31114189       0.79333286       0.10893266 </v>
    <v>       0.06988993       0.95745192       0.06513294 </v>
    <v>       0.57736600       0.77646954       0.24193249 </v>
    <v>       0.65582807       0.60771031       0.29793377 </v>
    <v>       0.48700899       0.61615011       0.29394280 </v>
   </varray>
  </structure>
  <varray name="forces" >
   <v>       0.01428337      -0.00225199      -0.01495159 </v>
   <v>       0.00690268       0.01981019       0.01496038 </v>
   <v>       0.01609545       0.01060806      -0.03776420 </v>
   <v>      -0.01902514      -0.00934742       0.11440041 </v>
   <v>      -0.00295565       0.01987904       0.00610006 </v>
   <v>      -0.05277364       0.03915153       0.00851657 </v>
   <v>       0.00453150       0.00666233      -0.02573856 </v>
   <v>       0.00366376      -0.00928462      -0.01076713 </v>
   <v>      -0.00425156       0.03152514      -0.01935649 </v>
   <v>      -0.04793523       0.01726989       0.06304200 </v>
   <v>      -0.03614120       0.01839904       0.01009797 </v>
   <v>      -0.04238786       0.05742523       0.01526479 </v>
   <v>      -0.00854671      -0.00909998       0.01641968 </v>
   <v>       0.00761178      -0.02418010       0.00026237 </v>
   <v>       0.01504762       0.04175776       0.01187862 </v>
   <v>      -0.02149225       0.00329325      -0.05314912 </v>
   <v>      -0.02042209      -0.00317330      -0.01455377 </v>
   <v>      -0.03585083       0.04950401       0.02042127 </v>
   <v>       0.00962717       0.00751908       0.03803645 </v>
   <v>       0.00950879       0.00606884      -0.01241727 </v>
   <v>      -0.00203379       0.03372233       0.05998182 </v>
   <v>      -0.03738585       0.02584611      -0.08075193 </v>
   <v>      -0.00101681       0.00857218      -0.01785110 </v>
   <v>      -0.06854891       0.03692282      -0.01406195 </v>
   <v>       0.02579168       0.06175962       0.05066730 </v>
   <v>      -0.08983039      -0.06405001       0.02308614 </v>
   <v>       0.06464844       0.02684877       0.05614458 </v>
   <v>       0.04205077      -0.01225571      -0.04191572 </v>
   <v>      -0.02403521      -0.04677122       0.00587426 </v>
   <v>       0.07545937      -0.01103909      -0.06893413 </v>
   <v>       0.01209718       0.02237723       0.01340952 </v>
   <v>      -0.00605773      -0.05711200       0.08245312 </v>
   <v>       0.01822967       0.07095320       0.00953322 </v>
   <v>      -0.07848756      -0.07026529      -0.00913616 </v>
   <v>       0.07228742       0.01935170       0.00968125 </v>
   <v>       0.04844627      -0.01661596      -0.04889133 </v>
   <v>      -0.03083043      -0.08225910       0.02271294 </v>
   <v>       0.03988928       0.01185432      -0.06603303 </v>
   <v>      -0.00555329      -0.00879484      -0.00167750 </v>
   <v>      -0.01671934      -0.04340994       0.02885174 </v>
   <v>       0.03170248       0.07004987      -0.05678700 </v>
   <v>      -0.05047733      -0.02098319       0.00407465 </v>
   <v>       0.04669907       0.03518083      -0.04393356 </v>
   <v>       0.06489581      -0.06626304       0.02443160 </v>
   <v>      -0.07496151      -0.05151710       0.01387133 </v>
   <v>       0.07676877      -0.01951845       0.03038530 </v>
   <v>       0.02596352      -0.00531535       0.03852002 </v>
   <v>      -0.01316656      -0.05103857      -0.06345300 </v>
   <v>       0.01328925       0.08662313      -0.04751046 </v>
   <v>      -0.07435844      -0.07328336      -0.06430346 </v>
   <v>       0.06672137       0.03737378      -0.02626263 </v>
   <v>       0.04443698      -0.02439221       0.01403235 </v>
   <v>      -0.02448341      -0.07489036      -0.03176782 </v>
   <v>       0.02684268       0.01198718       0.03712549 </v>
   <v>      -0.00333159       0.01779803       0.00568948 </v>
   <v>      -0.02139505      -0.03955225      -0.03666573 </v>
   <v>       0.01046157       0.01810976      -0.00417915 </v>
   <v>       0.03287544      -0.01433182       0.06397158 </v>
   <v>      -0.01237378      -0.01320796      -0.00108454 </v>
  </varray>
  <varray name="stress" >
   <v>      -2.43814656       5.12219277       0.05203553 </v>
   <v>       5.12219278      -4.54849422      -0.14700835 </v>
   <v>       0.05203555      -0.14700836     -12.50870158 </v>
  </varray>
  <energy>
   <i name="e_fr_energy">   -482.12746134 </i>
   <i name="e_wo_entrp">   -482.05914821 </i>
   <i name="e_0_energy">   -482.09330477 </i>
  </energy>
  <time name="totalsc">   16.50   16.53</time>
 </calculation>
 <calculation>
  <scstep>
   <time name="dav">    1.68    1.68</time>
   <time name="total">    1.75    1.76</time>
   <dipole>
    <v name="dipole">      0.00000000       0.00000000      -0.11351045 </v>
    <i name="Tr[quadrupol]">  -8116.15847350 </i>
    <i name="Echarged">      0.00000000 </i>
    <i name="Edipol_quadrupol">      0.00000000 </i>
    <i name="Eion">      0.00000000 </i>
   </dipole>
   <energy>
    <i name="alphaZ">    172.37641227 </i>
    <i name="ewald">  29147.13628672 </i>
    <i name="hartreedc"> -43213.25625075 </i>
    <i name="XCdc">   1123.25278840 </i>
    <i name="pawpsdc">  31427.09791276 </i>
    <i name="pawaedc"> -31812.87138080 </i>
    <i name="eentropy">     -0.06825416 </i>
    <i name="bandstr">  -3492.94481850 </i>
    <i name="atom">  16167.12637076 </i>
    <i name="e_fr_energy">   -482.15093330 </i>
    <i name="e_wo_entrp">   -482.08267914 </i>
    <i name="e_0_energy">   -482.11680622 </i>
   </energy>
  </scstep>
  <scstep>
   <time name="dav">    1.96    1.96</time>
   <time name="total">    2.03    2.03</time>
   <dipole>
    <v name="dipole">      0.00000000       0.00000000      -0.12239569 </v>
    <i name="Tr[quadrupol]">  -8116.19042869 </i>
    <i name="Echarged">      0.00000000 </i>
    <i name="Edipol_quadrupol">      0.00000000 </i>
    <i name="Eion">      0.00000000 </i>
   </dipole>
   <energy>
    <i name="e_fr_energy">   -482.16438622 </i>
    <i name="e_wo_entrp">   -482.09667561 </i>
    <i name="e_0_energy">   -482.13053091 </i>
   </energy>
  </scstep>
  <scstep>
   <time name="dav">    2.09    2.10</time>
   <time name="total">    2.17    2.17</time>
   <dipole>
    <v name="dipole">      0.00000000       0.00000000      -0.11322903 </v>
    <i name="Tr[quadrupol]">  -8116.16475699 </i>
    <i name="Echarged">      0.00000000 </i>
    <i name="Edipol_quadrupol">      0.00000000 </i>
    <i name="Eion">      0.00000000 </i>
   </dipole>
   <energy>
    <i name="e_fr_energy">   -482.13621175 </i>
    <i name="e_wo_entrp">   -482.06831000 </i>
    <i name="e_0_energy">   -482.10226088 </i>
   </energy>
  </scstep>
  <scstep>
   <time name="dav">    1.96    1.96</time>
   <time name="total">    2.04    2.04</time>
   <dipole>
    <v name="dipole">      0.00000000       0.00000000      -0.11167417 </v>
    <i name="Tr[quadrupol]">  -8116.16791696 </i>
    <i name="Echarged">      0.00000000 </i>
    <i name="Edipol_quadrupol">      0.00000000 </i>
    <i name="Eion">      0.00000000 </i>
   </dipole>
   <energy>
    <i name="e_fr_energy">   -482.13672306 </i>
    <i name="e_wo_entrp">   -482.06884307 </i>
    <i name="e_0_energy">   -482.10278306 </i>
   </energy>
  </scstep>
  <scstep>
   <time name="dav">    2.12    2.13</time>
   <time name="total">    2.20    2.20</time>
   <dipole>
    <v name="dipole">      0.00000000       0.00000000      -0.11187218 </v>
    <i name="Tr[quadrupol]">  -8116.16872942 </i>
    <i name="Echarged">      0.00000000 </i>
    <i name="Edipol_quadrupol">      0.00000000 </i>
    <i name="Eion">      0.00000000 </i>
   </dipole>
   <energy>
    <i name="e_fr_energy">   -482.13607670 </i>
    <i name="e_wo_entrp">   -482.06822631 </i>
    <i name="e_0_energy">   -482.10215151 </i>
   </energy>
  </scstep>
  <scstep>
   <time name="dav">    2.01    2.02</time>
   <time name="total">    2.09    2.09</time>
   <dipole>
    <v name="dipole">      0.00000000       0.00000000      -0.11255968 </v>
    <i name="Tr[quadrupol]">  -8116.17214365 </i>
    <i name="Echarged">      0.00000000 </i>
    <i name="Edipol_quadrupol">      0.00000000 </i>
    <i name="Eion">      0.00000000 </i>
   </dipole>
   <energy>
    <i name="e_fr_energy">   -482.13596459 </i>
    <i name="e_wo_entrp">   -482.06807885 </i>
    <i name="e_0_energy">   -482.10202172 </i>
   </energy>
  </scstep>
  <scstep>
   <time name="dav">    1.50    1.50</time>
   <time name="total">    1.57    1.57</time>
   <dipole>
    <v name="dipole">      0.00000000       0.00000000      -0.11182558 </v>
    <i name="Tr[quadrupol]">  -8116.17501809 </i>
    <i name="Echarged">      0.00000000 </i>
    <i name="Edipol_quadrupol">      0.00000000 </i>
    <i name="Eion">      0.00000000 </i>
   </dipole>
   <energy>
    <i name="e_fr_energy">   -482.13597144 </i>
    <i name="e_wo_entrp">   -482.06813739 </i>
    <i name="e_0_energy">   -482.10205442 </i>
   </energy>
  </scstep>
  <scstep>
   <time name="dav">    1.39    1.39</time>
   <time name="total">    1.42    1.42</time>
   <dipole>
[...]
       <r>    1.8162    0.0000 </r>
       <r>    1.8544    0.0000 </r>
       <r>    2.0150    0.0000 </r>
       <r>    2.1287    0.0000 </r>
       <r>    2.4229    0.0000 </r>
       <r>    2.4452    0.0000 </r>
       <r>    2.5689    0.0000 </r>
       <r>    2.7194    0.0000 </r>
       <r>    2.7401    0.0000 </r>
      </set>
     </set>
    </set>
   </array>
  </eigenvalues>
  <separator name="orbital magnetization" >
   <v name="MAGDIPOLOUT">      0.00000000      0.00000000      0.00000000</v>
  </separator>
  <dos>
   <i name="efermi">     -1.94292948 </i>
   <total>
    <array>
     <dimension dim="1">gridpoints</dimension>
     <dimension dim="2">spin</dimension>
     <field>energy</field>
     <field>total</field>
     <field>integrated</field>
     <set>
      <set comment="spin 1">
       <r>   -27.7141     0.0000     0.0000 </r>
       <r>   -27.6077     0.0000     0.0000 </r>
       <r>   -27.5014     0.0000     0.0000 </r>
       <r>   -27.3950     0.0000     0.0000 </r>
       <r>   -27.2886     0.0000     0.0000 </r>
       <r>   -27.1823     0.0000     0.0000 </r>
       <r>   -27.0759     0.0000     0.0000 </r>
       <r>   -26.9696     0.0000     0.0000 </r>
       <r>   -26.8632     0.0000     0.0000 </r>
       <r>   -26.7568     0.0000     0.0000 </r>
       <r>   -26.6505     0.0000     0.0000 </r>
       <r>   -26.5441     0.0002     0.0000 </r>
       <r>   -26.4377     0.0428     0.0046 </r>
       <r>   -26.3314     1.4325     0.1569 </r>
       <r>   -26.2250    10.1691     1.2385 </r>
       <r>   -26.1187    22.6515     3.6477 </r>
       <r>   -26.0123    20.1150     5.7872 </r>
       <r>   -25.9059    13.5903     7.2326 </r>
       <r>   -25.7996     6.5291     7.9271 </r>
       <r>   -25.6932     0.6755     7.9989 </r>
       <r>   -25.5869     0.0100     8.0000 </r>
       <r>   -25.4805     0.0000     8.0000 </r>
       <r>   -25.3741     0.0030     8.0003 </r>
       <r>   -25.2678     0.2820     8.0303 </r>
       <r>   -25.1614     4.3545     8.4935 </r>
       <r>   -25.0551    14.4107    10.0262 </r>
       <r>   -24.9487    15.3864    11.6627 </r>
       <r>   -24.8423    11.4624    12.8819 </r>
       <r>   -24.7360     8.5151    13.7875 </r>
       <r>   -24.6296     9.3110    14.7779 </r>
       <r>   -24.5233     5.9595    15.4117 </r>
       <r>   -24.4169     0.8130    15.4982 </r>
       <r>   -24.3105     0.0306    15.5014 </r>
       <r>   -24.2042     0.4805    15.5525 </r>
       <r>   -24.0978     2.8243    15.8529 </r>
       <r>   -23.9915     9.8954    16.9054 </r>
       <r>   -23.8851    26.4384    19.7174 </r>
       <r>   -23.7787    28.3440    22.7321 </r>
       <r>   -23.6724    14.1778    24.2401 </r>
       <r>   -23.5660     2.3502    24.4900 </r>
       <r>   -23.4597     0.1076    24.5015 </r>
       <r>   -23.3533     0.7204    24.5781 </r>
       <r>   -23.2469     5.6646    25.1806 </r>
       <r>   -23.1406    10.0292    26.2473 </r>
       <r>   -23.0342     7.8951    27.0870 </r>
       <r>   -22.9279     9.8783    28.1377 </r>
       <r>   -22.8215    13.3882    29.5616 </r>
       <r>   -22.7151    12.6946    30.9118 </r>
       <r>   -22.6088     8.2832    31.7929 </r>
       <r>   -22.5024     1.8681    31.9915 </r>
       <r>   -22.3961     0.0791    31.9999 </r>
       <r>   -22.2897     0.0015    32.0001 </r>
       <r>   -22.1833     0.1461    32.0156 </r>
       <r>   -22.0770     3.4604    32.3837 </r>
       <r>   -21.9706    19.7882    34.4884 </r>
       <r>   -21.8643    38.0999    38.5407 </r>
       <r>   -21.7579    34.1911    42.1773 </r>
       <r>   -21.6515    28.8391    45.2446 </r>
       <r>   -21.5452    20.8952    47.4670 </r>
       <r>   -21.4388     4.7774    47.9752 </r>
       <r>   -21.3325     0.2848    48.0055 </r>
       <r>   -21.2261     1.2417    48.1375 </r>
       <r>   -21.1197     7.4898    48.9341 </r>
       <r>   -21.0134    18.9674    50.9515 </r>
       <r>   -20.9070    21.2886    53.2158 </r>
       <r>   -20.8006    17.3093    55.0568 </r>
       <r>   -20.6943     7.6108    55.8663 </r>
       <r>   -20.5879     3.7274    56.2627 </r>
       <r>   -20.4816    16.1139    57.9766 </r>
       <r>   -20.3752    24.2379    60.5546 </r>
       <r>   -20.2688    14.6567    62.1135 </r>
       <r>   -20.1625    11.4045    63.3264 </r>
       <r>   -20.0561     5.7864    63.9419 </r>
       <r>   -19.9498     0.5391    63.9992 </r>
       <r>   -19.8434     0.0073    64.0000 </r>
       <r>   -19.7370     0.0000    64.0000 </r>
       <r>   -19.6307     0.0000    64.0000 </r>
       <r>   -19.5243     0.0000    64.0000 </r>
       <r>   -19.4180     0.0000    64.0000 </r>
       <r>   -19.3116     0.0000    64.0000 </r>
       <r>   -19.2052     0.0000    64.0000 </r>
       <r>   -19.0989     0.0000    64.0000 </r>
       <r>   -18.9925     0.0000    64.0000 </r>
       <r>   -18.8862     0.0000    64.0000 </r>
       <r>   -18.7798     0.0000    64.0000 </r>
       <r>   -18.6734     0.0000    64.0000 </r>
       <r>   -18.5671     0.0000    64.0000 </r>
       <r>   -18.4607     0.0000    64.0000 </r>
       <r>   -18.3544     0.0000    64.0000 </r>
       <r>   -18.2480     0.0000    64.0000 </r>
       <r>   -18.1416     0.0000    64.0000 </r>
       <r>   -18.0353     0.0000    64.0000 </r>
       <r>   -17.9289     0.0000    64.0000 </r>
       <r>   -17.8226     0.0002    64.0000 </r>
       <r>   -17.7162     0.0459    64.0049 </r>
       <r>   -17.6098     1.5009    64.1645 </r>
       <r>   -17.5035     8.7605    65.0963 </r>
       <r>   -17.3971    14.3847    66.6263 </r>
       <r>   -17.2908    13.1300    68.0228 </r>
       <r>   -17.1844    12.2254    69.3231 </r>
       <r>   -17.0780    18.9287    71.3363 </r>
       <r>   -16.9717    22.0019    73.6765 </r>
       <r>   -16.8653    18.2886    75.6217 </r>
       <r>   -16.7590    11.9615    76.8939 </r>
       <r>   -16.6526    12.2413    78.1959 </r>
       <r>   -16.5462     9.6402    79.2212 </r>
       <r>   -16.4399     2.4899    79.4860 </r>
       <r>   -16.3335     0.2050    79.5078 </r>
       <r>   -16.2272     1.1501    79.6302 </r>
       <r>   -16.1208     2.5634    79.9028 </r>
       <r>   -16.0144     0.8715    79.9955 </r>
       <r>   -15.9081     0.0427    80.0000 </r>
       <r>   -15.8017     0.1197    80.0128 </r>
       <r>   -15.6954     3.0618    80.3384 </r>
       <r>   -15.5890    16.1703    82.0583 </r>
       <r>   -15.4826    28.6642    85.1070 </r>
       <r>   -15.3763    19.2591    87.1555 </r>
       <r>   -15.2699     5.6181    87.7530 </r>
       <r>   -15.1635     2.1952    87.9865 </r>
       <r>   -15.0572     1.7554    88.1732 </r>
       <r>   -14.9508     2.8373    88.4750 </r>
       <r>   -14.8445     2.8021    88.7730 </r>
       <r>   -14.7381     1.8971    88.9748 </r>
       <r>   -14.6317     0.5945    89.0380 </r>
       <r>   -14.5254     4.8635    89.5553 </r>
       <r>   -14.4190    14.0529    91.0500 </r>
       <r>   -14.3127    11.9187    92.3176 </r>
       <r>   -14.2063    11.7220    93.5644 </r>
       <r>   -14.0999    15.2062    95.1817 </r>
       <r>   -13.9936    18.3894    97.1376 </r>
       <r>   -13.8872    22.6079    99.5422 </r>
       <r>   -13.7809    23.6269   102.0552 </r>
       <r>   -13.6745    26.4700   104.8705 </r>
       <r>   -13.5681    26.4410   107.6828 </r>
       <r>   -13.4618    22.6863   110.0957 </r>
       <r>   -13.3554    21.4544   112.3776 </r>
       <r>   -13.2491    15.8617   114.0647 </r>
       <r>   -13.1427     6.7282   114.7803 </r>
       <r>   -13.0363     6.2146   115.4413 </r>
       <r>   -12.9300     7.8202   116.2731 </r>
       <r>   -12.8236     9.3928   117.2721 </r>
       <r>   -12.7173     7.2707   118.0454 </r>
       <r>   -12.6109     4.4846   118.5224 </r>
       <r>   -12.5045     5.1457   119.0697 </r>
       <r>   -12.3982     6.5984   119.7715 </r>
       <r>   -12.2918     7.5045   120.5697 </r>
       <r>   -12.1855     8.1001   121.4312 </r>
       <r>   -12.0791    10.1947   122.5155 </r>
       <r>   -11.9727    15.4180   124.1554 </r>
       <r>   -11.8664    18.8436   126.1596 </r>
       <r>   -11.7600    20.4255   128.3320 </r>
       <r>   -11.6537    20.9123   130.5563 </r>
       <r>   -11.5473    18.1705   132.4889 </r>
       <r>   -11.4409    18.5141   134.4581 </r>
       <r>   -11.3346    18.1972   136.3935 </r>
       <r>   -11.2282    16.5964   138.1587 </r>
       <r>   -11.1219    12.9161   139.5325 </r>
       <r>   -11.0155     9.4940   140.5423 </r>
       <r>   -10.9091     4.8317   141.0562 </r>
       <r>   -10.8028     7.9664   141.9035 </r>
       <r>   -10.6964    17.6737   143.7833 </r>
       <r>   -10.5901    17.5952   145.6547 </r>
       <r>   -10.4837    13.4457   147.0848 </r>
       <r>   -10.3773    13.4003   148.5100 </r>
       <r>   -10.2710    14.8216   150.0865 </r>
       <r>   -10.1646    13.1896   151.4893 </r>
       <r>   -10.0583     4.6249   151.9812 </r>
       <r>    -9.9519     2.2419   152.2197 </r>
       <r>    -9.8455     4.4935   152.6976 </r>
       <r>    -9.7392     9.7116   153.7305 </r>
       <r>    -9.6328    13.4797   155.1642 </r>
       <r>    -9.5264    20.1587   157.3083 </r>
       <r>    -9.4201    21.0185   159.5438 </r>
       <r>    -9.3137    19.6325   161.6320 </r>
       <r>    -9.2074    20.0417   163.7636 </r>
       <r>    -9.1010    24.3019   166.3484 </r>
       <r>    -8.9946    24.7860   168.9846 </r>
       <r>    -8.8883     8.8567   169.9266 </r>
       <r>    -8.7819     1.3278   170.0678 </r>
       <r>    -8.6756     5.7239   170.6766 </r>
       <r>    -8.5692    10.5853   171.8025 </r>
       <r>    -8.4628     7.1736   172.5655 </r>
       <r>    -8.3565    11.5974   173.7990 </r>
       <r>    -8.2501    20.4647   175.9756 </r>
       <r>    -8.1438    23.0761   178.4300 </r>
       <r>    -8.0374    21.4959   180.7163 </r>
       <r>    -7.9310    18.7721   182.7129 </r>
       <r>    -7.8247    10.5128   183.8311 </r>
       <r>    -7.7183     2.2537   184.0708 </r>
       <r>    -7.6120     9.0108   185.0292 </r>
       <r>    -7.5056    23.3209   187.5096 </r>
       <r>    -7.3992    25.6854   190.2415 </r>
       <r>    -7.2929    29.3204   193.3600 </r>
       <r>    -7.1865    34.6155   197.0417 </r>
       <r>    -7.0802    32.3721   200.4849 </r>
       <r>    -6.9738    28.5707   203.5236 </r>
       <r>    -6.8674    20.5107   205.7052 </r>
       <r>    -6.7611    11.4768   206.9258 </r>
       <r>    -6.6547    15.4326   208.5673 </r>
       <r>    -6.5484    18.9448   210.5822 </r>
       <r>    -6.4420    15.6244   212.2441 </r>
       <r>    -6.3356    13.8264   213.7146 </r>
       <r>    -6.2293    11.8223   214.9721 </r>
       <r>    -6.1229     9.4711   215.9794 </r>
       <r>    -6.0166     8.5414   216.8879 </r>
       <r>    -5.9102    13.3495   218.3077 </r>
       <r>    -5.8038    14.2736   219.8259 </r>
       <r>    -5.6975    19.5389   221.9040 </r>
       <r>    -5.5911    30.1196   225.1076 </r>
       <r>    -5.4848    34.9381   228.8236 </r>
       <r>    -5.3784    23.5082   231.3239 </r>
       <r>    -5.2720    21.4256   233.6028 </r>
       <r>    -5.1657    29.3222   236.7215 </r>
       <r>    -5.0593    33.2184   240.2546 </r>
       <r>    -4.9530    26.4511   243.0680 </r>
       <r>    -4.8466    21.0494   245.3068 </r>
       <r>    -4.7402    24.6121   247.9246 </r>
       <r>    -4.6339    21.9310   250.2571 </r>
       <r>    -4.5275    18.3034   252.2039 </r>
       <r>    -4.4211    21.8001   254.5226 </r>
       <r>    -4.3148    24.3369   257.1111 </r>
       <r>    -4.2084    23.6255   259.6239 </r>
       <r>    -4.1021    21.6865   261.9304 </r>
       <r>    -3.9957    16.8932   263.7272 </r>
       <r>    -3.8893    10.5767   264.8522 </r>
       <r>    -3.7830     9.2076   265.8315 </r>
       <r>    -3.6766     4.7572   266.3375 </r>
       <r>    -3.5703    11.1871   267.5273 </r>
       <r>    -3.4639    19.1449   269.5636 </r>
       <r>    -3.3575    33.0803   273.0820 </r>
       <r>    -3.2512    25.3864   275.7821 </r>
       <r>    -3.1448    24.3236   278.3692 </r>
       <r>    -3.0385    26.2560   281.1618 </r>
       <r>    -2.9321    16.3243   282.8980 </r>
       <r>    -2.8257     9.0896   283.8648 </r>
       <r>    -2.7194     4.0716   284.2979 </r>
       <r>    -2.6130     9.8116   285.3414 </r>
       <r>    -2.5067     6.2401   286.0051 </r>
       <r>    -2.4003     6.6022   286.7073 </r>
       <r>    -2.2939     9.7178   287.7409 </r>
       <r>    -2.1876     2.3653   287.9925 </r>
       <r>    -2.0812     0.5980   288.0561 </r>
       <r>    -1.9749     5.3567   288.6259 </r>
       <r>    -1.8685    13.6831   290.0812 </r>
       <r>    -1.7621    13.4375   291.5104 </r>
       <r>    -1.6558    13.6669   292.9640 </r>
       <r>    -1.5494    11.5881   294.1965 </r>
       <r>    -1.4431     7.5419   294.9987 </r>
       <r>    -1.3367     8.5406   295.9071 </r>
       <r>    -1.2303    17.7144   297.7912 </r>
       <r>    -1.1240    25.6073   300.5148 </r>
       <r>    -1.0176    21.5174   302.8034 </r>
       <r>    -0.9113    11.0810   303.9820 </r>
       <r>    -0.8049     9.9908   305.0446 </r>
       <r>    -0.6985    12.8628   306.4127 </r>
       <r>    -0.5922     9.9810   307.4743 </r>
       <r>    -0.4858    18.6142   309.4541 </r>
       <r>    -0.3795    17.5202   311.3176 </r>
       <r>    -0.2731     5.8659   311.9414 </r>
       <r>    -0.1667     0.5420   311.9991 </r>
       <r>    -0.0604     0.0085   312.0000 </r>
       <r>     0.0460     0.0022   312.0002 </r>
       <r>     0.1523     0.2666   312.0286 </r>
       <r>     0.2587     4.3244   312.4885 </r>
       <r>     0.3651    10.2603   313.5798 </r>
       <r>     0.4714     4.5475   314.0635 </r>
       <r>     0.5778     7.9735   314.9116 </r>
       <r>     0.6841    16.6357   316.6809 </r>
       <r>     0.7905    10.6038   317.8088 </r>
       <r>     0.8969     2.5234   318.0772 </r>
       <r>     1.0032     5.4134   318.6529 </r>
       <r>     1.1096    12.8349   320.0181 </r>
       <r>     1.2160    15.0188   321.6155 </r>
       <r>     1.3223    17.9001   323.5193 </r>
       <r>     1.4287    22.1910   325.8796 </r>
       <r>     1.5350    19.8788   327.9939 </r>
       <r>     1.6414    22.4435   330.3810 </r>
       <r>     1.7478    27.3449   333.2894 </r>
       <r>     1.8541    24.1457   335.8575 </r>
       <r>     1.9605    18.1591   337.7889 </r>
       <r>     2.0668    18.8792   339.7969 </r>
       <r>     2.1732    14.6025   341.3501 </r>
       <r>     2.2796    11.6329   342.5874 </r>
       <r>     2.3859    15.3886   344.2241 </r>
       <r>     2.4923    17.9477   346.1330 </r>
       <r>     2.5986    18.7621   348.1286 </r>
       <r>     2.7050    20.4651   350.3052 </r>
       <r>     2.8114    13.0779   351.6962 </r>
       <r>     2.9177     2.7542   351.9891 </r>
       <r>     3.0241     0.1016   351.9999 </r>
       <r>     3.1304     0.0005   352.0000 </r>
       <r>     3.2368     0.0000   352.0000 </r>
       <r>     3.3432     0.0000   352.0000 </r>
       <r>     3.4495     0.0000   352.0000 </r>
       <r>     3.5559     0.0000   352.0000 </r>
       <r>     3.6622     0.0000   352.0000 </r>
       <r>     3.7686     0.0000   352.0000 </r>
       <r>     3.8750     0.0000   352.0000 </r>
       <r>     3.9813     0.0000   352.0000 </r>
       <r>     4.0877     0.0000   352.0000 </r>
       <r>     4.1940     0.0000   352.0000 </r>
      </set>
     </set>
    </array>
   </total>
  </dos>
 </calculation>
 <structure name="finalpos" >
  <crystal>
   <varray name="basis" >
    <v>      13.71800007       0.00000000       0.00000000 </v>
    <v>       0.00000000      10.91293292       0.00000000 </v>
    <v>       0.00000000       0.00000000      15.00000000 </v>
   </varray>
   <i name="volume">   2245.55421796 </i>
   <varray name="rec_basis" >
    <v>       0.07289692       0.00000000       0.00000000 </v>
    <v>       0.00000000       0.09163439       0.00000000 </v>
    <v>       0.00000000       0.00000000       0.06666667 </v>
   </varray>
  </crystal>
  <varray name="positions" >
   <v>       0.07029904       0.38277314       0.23162657 </v>
   <v>       0.97998359       0.21488957       0.16763345 </v>
   <v>       0.22765447       0.39568243       0.19589280 </v>
   <v>       0.82651578       0.57637196       0.19653811 </v>
   <v>       0.14730919       0.25081789       0.12065785 </v>
   <v>       0.90718297       0.37886318       0.23042336 </v>
   <v>       0.56778047       0.39250902       0.23963622 </v>
   <v>       0.47730184       0.22394371       0.17728676 </v>
   <v>       0.72990475       0.39825712       0.21050842 </v>
   <v>       0.30895079       0.58420349       0.18575988 </v>
   <v>       0.64684117       0.25649995       0.13339035 </v>
   <v>       0.40150632       0.39280912       0.22800270 </v>
   <v>       0.81961793       0.88475803       0.04946464 </v>
   <v>       0.73524706       0.72462623       0.12864685 </v>
   <v>       0.98103183       0.89189035       0.07046239 </v>
   <v>       0.06681443       0.07878758       0.08387808 </v>
   <v>       0.90799407       0.74252405       0.14843226 </v>
   <v>       0.65629181       0.89130315       0.06988521 </v>
   <v>       0.31890399       0.89571371       0.04548035 </v>
   <v>       0.22681817       0.72040919       0.09806894 </v>
   <v>       0.47613994       0.90426087       0.08572297 </v>
   <v>       0.56667210       0.08442453       0.09961672 </v>
   <v>       0.38528959       0.76576950       0.16160727 </v>
   <v>       0.15582151       0.88869998       0.04089597 </v>
   <v>       0.98820906       0.43197646       0.26141726 </v>
   <v>       0.89882724       0.26328804       0.20097663 </v>
   <v>       0.15809587       0.42646060       0.25326906 </v>
   <v>       0.14492924       0.14986694       0.07126011 </v>
   <v>       0.98467110       0.10533513       0.12864555 </v>
   <v>       0.22705292       0.32087300       0.12632779 </v>
   <v>       0.06594124       0.28475896       0.17133175 </v>
   <v>       0.82297987       0.45388638       0.22709706 </v>
   <v>       0.48327605       0.44736833       0.26098327 </v>
   <v>       0.39567416       0.27377107       0.20673744 </v>
   <v>       0.65645555       0.43265251       0.26609009 </v>
   <v>       0.64550580       0.15365522       0.08658160 </v>
   <v>       0.48292167       0.11371349       0.14073022 </v>
   <v>       0.72645539       0.32559169       0.13995294 </v>
   <v>       0.56433842       0.29303543       0.18197220 </v>
   <v>       0.31711429       0.46159360       0.21301875 </v>
   <v>       0.73455986       0.93763459       0.02950349 </v>
   <v>       0.65082529       0.78235931       0.11292169 </v>
   <v>       0.90524399       0.92689581       0.02091075 </v>
   <v>       0.90962117       0.63918803       0.19549572 </v>
   <v>       0.73828212       0.61691726       0.16999742 </v>
   <v>       0.98658992       0.81179169       0.13710838 </v>
   <v>       0.82133842       0.78210185       0.10678741 </v>
   <v>       0.56942961       0.96095933       0.07270424 </v>
   <v>       0.23812942       0.94568626       0.01515973 </v>
   <v>       0.14937820       0.76730386       0.05914201 </v>
   <v>       0.40942058       0.93369889       0.02607305 </v>
   <v>       0.37875274       0.66471716       0.21245894 </v>
   <v>       0.23379721       0.60750267       0.13214764 </v>
   <v>       0.46609047       0.83455077       0.15992195 </v>
   <v>       0.31020692       0.79643047       0.10581663 </v>
   <v>       0.06996042       0.95682134       0.05180558 </v>
   <v>       0.57855835       0.77993711       0.23856416 </v>
   <v>       0.65262203       0.61261170       0.31198085 </v>
   <v>       0.48403349       0.62336670       0.29876810 </v>
  </varray>
 </structure>
</modeling>
