slab_Cel1-OPT                           
           1
    13.759704    0.000000    0.000000
     0.000000   11.286700    0.000000
     0.000000    0.000000   15.000000
   C    N    Cu
    24    32     3
Direct configuration=     1
   0.07054120  0.38816457  0.22227495
   0.98151180  0.21832942  0.16785344
   0.22877304  0.39667288  0.18904348
   0.82472337  0.57572318  0.18403191
   0.14970601  0.24663792  0.12277753
   0.90758628  0.38434512  0.21811946
   0.56886571  0.39316130  0.23173729
   0.47768100  0.22391730  0.18017943
   0.73035049  0.39802658  0.19909345
   0.31101118  0.58132963  0.17977696
   0.64681854  0.25040749  0.13377315
   0.40275100  0.39355427  0.22106508
   0.81808056  0.88988957  0.05647519
   0.73319531  0.72568325  0.12448457
   0.97932824  0.89597624  0.07999408
   0.06867909  0.07698375  0.09423854
   0.90528082  0.74258583  0.14719628
   0.65472406  0.89333727  0.07691603
   0.31825350  0.89473226  0.05377466
   0.22716619  0.72126926  0.10084126
   0.47498917  0.90396535  0.09489577
   0.56592959  0.08075138  0.11024766
   0.38612516  0.76037560  0.16363174
   0.15509033  0.88950396  0.05271529
   0.98784551  0.43883046  0.24713656
   0.89991795  0.26975381  0.19549767
   0.15759857  0.43325808  0.24240148
   0.14788829  0.14353661  0.08017307
   0.98633649  0.10796021  0.13653167
   0.22915942  0.31533454  0.12527490
   0.06735802  0.28598388  0.16888911
   0.82274912  0.45552252  0.21014877
   0.48493735  0.44793349  0.25146232
   0.39648714  0.27665554  0.20625030
   0.65756919  0.43524210  0.25419888
   0.64488604  0.14640144  0.09374788
   0.48286722  0.11321356  0.15081376
   0.72606390  0.31870920  0.13454719
   0.56470606  0.29135323  0.18008364
   0.31888640  0.46086995  0.20329135
   0.73287748  0.94248397  0.03965616
   0.64891188  0.78317499  0.11254597
   0.90382696  0.93469024  0.03189926
   0.90701680  0.63807548  0.18754912
   0.73647441  0.61699787  0.15934394
   0.98321706  0.81212363  0.14197152
   0.81925020  0.78400528  0.10639513
   0.56804185  0.96074410  0.08520074
   0.23699719  0.94478449  0.02657725
   0.14820250  0.77173059  0.06843984
   0.40793432  0.93556381  0.03646331
   0.38047481  0.65838217  0.20939239
   0.23501053  0.60894863  0.12850628
   0.46527775  0.83024755  0.16578047
   0.31113112  0.79334051  0.10891910
   0.06990262  0.95754122  0.06514651
   0.57736557  0.77647674  0.24193941
   0.65582252  0.60772566  0.29790490
   0.48700699  0.61617049  0.29396059
slab_Cel1-OPT                           
           1
    13.739336    0.000000    0.000000
     0.000000   11.266364    0.000000
     0.000000    0.000000   15.000000
   C    N    Cu
    24    32     3
Direct configuration=     2
   0.07051926  0.38814978  0.22225648
   0.98153030  0.21838429  0.16786717
   0.22875947  0.39668729  0.18901395
   0.82473787  0.57579054  0.18409785
   0.14970226  0.24668807  0.12280617
   0.90756826  0.38437681  0.21811266
   0.56881041  0.39316180  0.23171096
   0.47765113  0.22403112  0.18020611
   0.73030760  0.39808752  0.19910303
   0.31095828  0.58143020  0.17979320
   0.64680079  0.25051023  0.13382556
   0.40275180  0.39360041  0.22107199
   0.81806167  0.88989669  0.05648409
   0.73321026  0.72572144  0.12447288
   0.97932015  0.89604589  0.07999135
   0.06866399  0.07704692  0.09422340
   0.90527917  0.74268190  0.14714414
   0.65471892  0.89336697  0.07694387
   0.31821230  0.89472757  0.05380431
   0.22717649  0.72133198  0.10082560
   0.47496283  0.90400356  0.09493433
   0.56590716  0.08084690  0.11020997
   0.38612366  0.76043061  0.16357931
   0.15504088  0.88952945  0.05272228
   0.98788842  0.43882116  0.24713492
   0.89989248  0.26974522  0.19550767
   0.15764233  0.43325772  0.24240879
   0.14786546  0.14350768  0.08017299
   0.98638003  0.10794944  0.13651899
   0.22916947  0.31530065  0.12524896
   0.06736418  0.28599283  0.16890037
   0.82275293  0.45542254  0.21019213
   0.48497822  0.44794724  0.25144200
   0.39650644  0.27659609  0.20621525
   0.65765241  0.43524681  0.25416746
   0.64485999  0.14632710  0.09373548
   0.48291448  0.11312670  0.15079821
   0.72603702  0.31865716  0.13450521
   0.56470808  0.29130904  0.18007082
   0.31886432  0.46077094  0.20330776
   0.73293734  0.94248903  0.03964552
   0.64892966  0.78317589  0.11254456
   0.90384638  0.93468287  0.03190940
   0.90698294  0.63794762  0.18756126
   0.73646863  0.61697631  0.15935489
   0.98320981  0.81205313  0.14198694
   0.81925474  0.78395497  0.10644550
   0.56801906  0.96066772  0.08517067
   0.23704513  0.94480141  0.02657782
   0.14819704  0.77170565  0.06841311
   0.40799176  0.93557942  0.03647877
   0.38048687  0.65831942  0.20938181
   0.23504983  0.60889644  0.12851483
   0.46525565  0.83021851  0.16579021
   0.31114189  0.79333286  0.10893266
   0.06988993  0.95745192  0.06513294
   0.57736600  0.77646954  0.24193249
   0.65582807  0.60771031  0.29793377
   0.48700899  0.61615011  0.29394280
slab_Cel1-OPT                           
           1
    13.718955    0.000000    0.000000
     0.000000   11.246014    0.000000
     0.000000    0.000000   15.000000
   C    N    Cu
    24    32     3
Direct configuration=     3
   0.07049728  0.38813495  0.22223799
   0.98154885  0.21843930  0.16788092
   0.22874587  0.39670172  0.18898441
   0.82475240  0.57585807  0.18416384
   0.14969851  0.24673835  0.12283484
   0.90755020  0.38440857  0.21810586
   0.56875499  0.39316231  0.23168461
   0.47762120  0.22414522  0.18023281
   0.73026461  0.39814861  0.19911260
   0.31090527  0.58153102  0.17980946
   0.64678300  0.25061322  0.13387800
   0.40275261  0.39364667  0.22107891
   0.81804273  0.88990383  0.05649300
   0.73322524  0.72575974  0.12446119
   0.97931204  0.89611573  0.07998863
   0.06864885  0.07711024  0.09420825
   0.90527752  0.74277822  0.14709196
   0.65471377  0.89339674  0.07697173
   0.31817102  0.89472287  0.05383397
   0.22718681  0.72139486  0.10080992
   0.47493643  0.90404186  0.09497292
   0.56588467  0.08094267  0.11017226
   0.38612215  0.76048575  0.16352685
   0.15499132  0.88955500  0.05272929
   0.98793142  0.43881185  0.24713329
   0.89986696  0.26973660  0.19551767
   0.15768619  0.43325736  0.24241611
   0.14784257  0.14347869  0.08017291
   0.98642367  0.10793864  0.13650630
   0.22917954  0.31526668  0.12522299
   0.06737036  0.28600180  0.16891163
   0.82275675  0.45532231  0.21023552
   0.48501918  0.44796101  0.25142168
   0.39652577  0.27653649  0.20618018
   0.65773582  0.43525153  0.25413601
   0.64483388  0.14625258  0.09372307
   0.48296184  0.11303962  0.15078266
   0.72601007  0.31860500  0.13446319
   0.56471011  0.29126474  0.18005800
   0.31884218  0.46067169  0.20332418
   0.73299733  0.94249411  0.03963487
   0.64894748  0.78317680  0.11254316
   0.90386584  0.93467548  0.03191954
   0.90694901  0.63781944  0.18757340
   0.73646284  0.61695471  0.15936586
   0.98320254  0.81198246  0.14200238
   0.81925929  0.78390454  0.10649590
   0.56799623  0.96059115  0.08514059
   0.23709318  0.94481838  0.02657839
   0.14819157  0.77168064  0.06838636
   0.40804932  0.93559506  0.03649424
   0.38049895  0.65825651  0.20937122
   0.23508921  0.60884411  0.12852339
   0.46523351  0.83018941  0.16579995
   0.31115269  0.79332519  0.10894622
   0.06987722  0.95736240  0.06511936
   0.57736642  0.77646232  0.24192557
   0.65583363  0.60769493  0.29796265
   0.48701099  0.61612969  0.29392500
slab_Cel1-OPT                           
           1
    13.717989    0.000000    0.000000
     0.000000   11.234818    0.000000
     0.000000    0.000000   15.000000
   C    N    Cu
    24    32     3
Direct configuration=     4
   0.07054058  0.38814197  0.22223183
   0.98154397  0.21842982  0.16789279
   0.22878674  0.39671112  0.18895205
   0.82470435  0.57577982  0.18428293
   0.14969958  0.24673597  0.12281966
   0.90747777  0.38445881  0.21812516
   0.56881431  0.39317482  0.23166782
   0.47765609  0.22402480  0.18019174
   0.73029340  0.39815607  0.19907393
   0.31087121  0.58147859  0.17989404
   0.64673616  0.25055894  0.13384693
   0.40267929  0.39372040  0.22109688
   0.81804905  0.88988158  0.05650990
   0.73322438  0.72567387  0.12447274
   0.97934306  0.89613797  0.08001059
   0.06862493  0.07706253  0.09414039
   0.90524521  0.74268800  0.14711761
   0.65465960  0.89346968  0.07697863
   0.31822657  0.89474613  0.05386539
   0.22719324  0.72134977  0.10080368
   0.47495418  0.90407691  0.09503148
   0.56584084  0.08090815  0.11008026
   0.38611985  0.76045421  0.16354492
   0.15491964  0.88960979  0.05270128
   0.98793674  0.43894761  0.24721379
   0.89973874  0.26961115  0.19554473
   0.15775678  0.43331209  0.24249632
   0.14793326  0.14348115  0.08010912
   0.98634521  0.10785261  0.13652696
   0.22929779  0.31527447  0.12514025
   0.06738604  0.28603994  0.16892211
   0.82274338  0.45529341  0.21032514
   0.48501117  0.44809534  0.25145459
   0.39637382  0.27644623  0.20619796
   0.65778334  0.43528558  0.25417935
   0.64493979  0.14628535  0.09365810
   0.48286696  0.11294779  0.15083228
   0.72610345  0.31867704  0.13439769
   0.56469862  0.29128651  0.18006719
   0.31883258  0.46066994  0.20335410
   0.73299679  0.94263369  0.03955638
   0.64884730  0.78313376  0.11254828
   0.90392751  0.93475337  0.03184314
   0.90709182  0.63779859  0.18760006
   0.73634129  0.61686797  0.15937695
   0.98333971  0.81200716  0.14203460
   0.81929953  0.78393900  0.10650998
   0.56799383  0.96055430  0.08506801
   0.23707149  0.94498137  0.02650451
   0.14807182  0.77155174  0.06831064
   0.40811040  0.93565743  0.03643987
   0.38056275  0.65826227  0.20940205
   0.23501240  0.60873643  0.12846576
   0.46529628  0.83024217  0.16584647
   0.31113729  0.79336913  0.10894325
   0.06985184  0.95736142  0.06507452
   0.57738406  0.77650660  0.24192565
   0.65588533  0.60767894  0.29803659
   0.48698777  0.61611811  0.29393865
slab_Cel1-OPT                           
           1
    13.716577    0.000000    0.000000
     0.000000   11.218456    0.000000
     0.000000    0.000000   15.000000
   C    N    Cu
    24    32     3
Direct configuration=     5
   0.07060386  0.38815225  0.22222281
   0.98153684  0.21841596  0.16791013
   0.22884648  0.39672487  0.18890476
   0.82463413  0.57566536  0.18445698
   0.14970115  0.24673251  0.12279747
   0.90737192  0.38453230  0.21815338
   0.56890102  0.39319312  0.23164329
   0.47770709  0.22384864  0.18013172
   0.73033547  0.39816698  0.19901740
   0.31082141  0.58140188  0.18001765
   0.64666770  0.25047954  0.13380151
   0.40257213  0.39382828  0.22112313
   0.81805828  0.88984902  0.05653459
   0.73322314  0.72554825  0.12448962
   0.97938839  0.89617051  0.08004270
   0.06858997  0.07699272  0.09404120
   0.90519797  0.74255601  0.14715509
   0.65458044  0.89357638  0.07698871
   0.31830777  0.89478016  0.05391132
   0.22720265  0.72128379  0.10079456
   0.47498013  0.90412818  0.09511707
   0.56577678  0.08085765  0.10994582
   0.38611648  0.76040807  0.16357133
   0.15481488  0.88968996  0.05266033
   0.98794452  0.43914622  0.24733144
   0.89955135  0.26942762  0.19558427
   0.15785995  0.43339217  0.24261353
   0.14806582  0.14348475  0.08001588
   0.98623052  0.10772676  0.13655714
   0.22947062  0.31528586  0.12501932
   0.06740896  0.28609574  0.16893742
   0.82272383  0.45525112  0.21045613
   0.48499946  0.44829185  0.25150268
   0.39615173  0.27631416  0.20622396
   0.65785279  0.43533540  0.25424269
   0.64509458  0.14633330  0.09356314
   0.48272829  0.11281345  0.15090482
   0.72623994  0.31878243  0.13430196
   0.56468183  0.29131835  0.18008061
   0.31881855  0.46066738  0.20339783
   0.73299600  0.94283790  0.03944167
   0.64870088  0.78307079  0.11255576
   0.90401766  0.93486733  0.03173149
   0.90730054  0.63776810  0.18763903
   0.73616363  0.61674108  0.15939316
   0.98354020  0.81204330  0.14208169
   0.81935836  0.78398942  0.10653057
   0.56799031  0.96050039  0.08496194
   0.23703979  0.94521981  0.02639654
   0.14789680  0.77136317  0.06819997
   0.40819966  0.93574867  0.03636040
   0.38065600  0.65827070  0.20944709
   0.23490014  0.60857891  0.12838155
   0.46538802  0.83031935  0.16591446
   0.31111478  0.79343342  0.10893891
   0.06981474  0.95735999  0.06500899
   0.57740983  0.77657139  0.24192577
   0.65596091  0.60765556  0.29814464
   0.48695382  0.61610117  0.29395859
slab_Cel1-OPT                           
           1
    13.716273    0.000000    0.000000
     0.000000   11.211551    0.000000
     0.000000    0.000000   15.000000
   C    N    Cu
    24    32     3
Direct configuration=     6
   0.07063207  0.38829117  0.22229288
   0.98145701  0.21838925  0.16794527
   0.22887911  0.39672348  0.18889500
   0.82460724  0.57564411  0.18460205
   0.14977539  0.24676954  0.12274867
   0.90737280  0.38454184  0.21823074
   0.56891854  0.39331552  0.23168133
   0.47757351  0.22385815  0.18017480
   0.73036319  0.39815494  0.19899985
   0.31074463  0.58137136  0.18009582
   0.64673306  0.25056677  0.13375693
   0.40254236  0.39382120  0.22116807
   0.81810380  0.88996001  0.05648772
   0.73313572  0.72552762  0.12447191
   0.97939289  0.89616742  0.08004283
   0.06855896  0.07699495  0.09396162
   0.90530814  0.74259127  0.14717700
   0.65459489  0.89362756  0.07694426
   0.31829637  0.89494074  0.05387102
   0.22710783  0.72124878  0.10073288
   0.47498541  0.90416073  0.09513473
   0.56574148  0.08082651  0.10982212
   0.38615591  0.76044591  0.16360643
   0.15480363  0.88970930  0.05257837
   0.98794097  0.43926739  0.24741317
   0.89943699  0.26927943  0.19563076
   0.15795439  0.43342502  0.24269560
   0.14811155  0.14342602  0.07991983
   0.98618902  0.10756655  0.13654521
   0.22957519  0.31530930  0.12491454
   0.06742508  0.28612193  0.16892613
   0.82269235  0.45526008  0.21059810
   0.48501009  0.44840749  0.25153131
   0.39606221  0.27616393  0.20623954
   0.65790308  0.43534294  0.25430246
   0.64513042  0.14625174  0.09344947
   0.48269058  0.11255529  0.15088966
   0.72628121  0.31883187  0.13419276
   0.56468125  0.29130027  0.18005189
   0.31879538  0.46071078  0.20345460
   0.73297345  0.94297874  0.03936246
   0.64863373  0.78298413  0.11255763
   0.90405301  0.93492664  0.03164332
   0.90736239  0.63760135  0.18771081
   0.73609680  0.61653000  0.15945596
   0.98363144  0.81202092  0.14214326
   0.81936774  0.78397951  0.10657850
   0.56796369  0.96053642  0.08485583
   0.23704889  0.94537003  0.02633223
   0.14780817  0.77119387  0.06809740
   0.40827653  0.93580894  0.03631094
   0.38067830  0.65823654  0.20949467
   0.23486602  0.60837217  0.12836897
   0.46542466  0.83038775  0.16598485
   0.31110323  0.79347859  0.10896402
   0.06978967  0.95740290  0.06492129
   0.57744938  0.77665302  0.24193691
   0.65603724  0.60765160  0.29827276
   0.48693280  0.61610809  0.29400842
slab_Cel1-OPT                           
           1
    13.715834    0.000000    0.000000
     0.000000   11.201588    0.000000
     0.000000    0.000000   15.000000
   C    N    Cu
    24    32     3
Direct configuration=     7
   0.07067277  0.38849177  0.22239398
   0.98134182  0.21835069  0.16799598
   0.22892621  0.39672148  0.18888093
   0.82456844  0.57561344  0.18481139
   0.14988252  0.24682301  0.12267825
   0.90737408  0.38455562  0.21834238
   0.56894384  0.39349227  0.23173622
   0.47738075  0.22387187  0.18023698
   0.73040319  0.39813754  0.19897453
   0.31063382  0.58132729  0.18020863
   0.64682738  0.25069274  0.13369259
   0.40249940  0.39381099  0.22123292
   0.81816950  0.89012027  0.05642009
   0.73300956  0.72549785  0.12444636
   0.97939938  0.89616297  0.08004303
   0.06851421  0.07699816  0.09384677
   0.90546712  0.74264218  0.14720861
   0.65461575  0.89370146  0.07688011
   0.31827992  0.89517261  0.05381286
   0.22697099  0.72119822  0.10064386
   0.47499302  0.90420773  0.09516023
   0.56569055  0.08078154  0.10964363
   0.38621280  0.76050055  0.16365708
   0.15478741  0.88973722  0.05246009
   0.98793585  0.43944235  0.24753111
   0.89927196  0.26906545  0.19569785
   0.15809067  0.43347246  0.24281402
   0.14817756  0.14334120  0.07978123
   0.98612912  0.10733522  0.13652800
   0.22972609  0.31534316  0.12476334
   0.06744835  0.28615975  0.16890983
   0.82264692  0.45527301  0.21080297
   0.48502544  0.44857446  0.25157263
   0.39593302  0.27594700  0.20626204
   0.65797564  0.43535382  0.25438872
   0.64518215  0.14613397  0.09328543
   0.48263615  0.11218252  0.15086779
   0.72634077  0.31890327  0.13403519
   0.56468042  0.29127417  0.18001044
   0.31876193  0.46077346  0.20353652
   0.73294091  0.94318212  0.03924815
   0.64853684  0.78285900  0.11256033
   0.90410402  0.93501228  0.03151610
   0.90745165  0.63736057  0.18781439
   0.73600037  0.61622521  0.15954660
   0.98376311  0.81198860  0.14223212
   0.81938128  0.78396519  0.10664768
   0.56792528  0.96058844  0.08470272
   0.23706203  0.94558694  0.02623944
   0.14768026  0.77094942  0.06794939
   0.40838744  0.93589597  0.03623956
   0.38071049  0.65818720  0.20956334
   0.23481678  0.60807364  0.12835083
   0.46547752  0.83048652  0.16608642
   0.31108656  0.79354382  0.10900025
   0.06975350  0.95746486  0.06479473
   0.57750646  0.77677090  0.24195298
   0.65614740  0.60764589  0.29845764
   0.48690247  0.61611809  0.29408033
slab_Cel1-OPT                           
           1
    13.713550    0.000000    0.000000
     0.000000   11.199999    0.000000
     0.000000    0.000000   15.000000
   C    N    Cu
    24    32     3
Direct configuration=     8
   0.07068433  0.38865372  0.22249769
   0.98128896  0.21820799  0.16799975
   0.22894039  0.39670389  0.18889896
   0.82457804  0.57570094  0.18491837
   0.14994979  0.24680907  0.12257674
   0.90741786  0.38447960  0.21847559
   0.56890697  0.39358552  0.23177652
   0.47729864  0.22369192  0.18023499
   0.73039501  0.39813863  0.19903540
   0.31057697  0.58142568  0.18024210
   0.64686721  0.25067054  0.13357061
   0.40253884  0.39375674  0.22131599
   0.81815222  0.89028849  0.05633774
   0.73298094  0.72536616  0.12448148
   0.97939693  0.89616639  0.07998617
   0.06850313  0.07709326  0.09378417
   0.90556476  0.74255642  0.14730118
   0.65465770  0.89368547  0.07678473
   0.31826876  0.89536974  0.05373860
   0.22690794  0.72104270  0.10060526
   0.47497490  0.90423458  0.09510357
   0.56568435  0.08087472  0.10955765
   0.38621318  0.76057354  0.16369735
   0.15483125  0.88968821  0.05232186
   0.98793077  0.43944845  0.24758091
   0.89926001  0.26906536  0.19579754
   0.15814559  0.43343703  0.24285551
   0.14811812  0.14332991  0.07971286
   0.98615999  0.10727222  0.13650797
   0.22974451  0.31542849  0.12471507
   0.06743667  0.28620643  0.16889915
   0.82266580  0.45520108  0.21098910
   0.48500159  0.44855043  0.25156967
   0.39589546  0.27591803  0.20632976
   0.65802641  0.43528696  0.25443085
   0.64510772  0.14613273  0.09319693
   0.48266621  0.11209031  0.15084947
   0.72633407  0.31898250  0.13393656
   0.56466553  0.29130216  0.17998520
   0.31877616  0.46070901  0.20363665
   0.73296120  0.94320654  0.03921420
   0.64853116  0.78286262  0.11250037
   0.90413099  0.93498769  0.03147848
   0.90738933  0.63728623  0.18786000
   0.73602430  0.61615782  0.15959054
   0.98378359  0.81200991  0.14225445
   0.81935184  0.78398052  0.10669775
   0.56793938  0.96054527  0.08455703
   0.23704804  0.94562959  0.02621138
   0.14766928  0.77093213  0.06779999
   0.40839230  0.93590466  0.03621828
   0.38063643  0.65816407  0.20959293
   0.23482818  0.60798191  0.12835819
   0.46545621  0.83057504  0.16613757
   0.31104586  0.79360104  0.10903007
   0.06976517  0.95742254  0.06465820
   0.57756600  0.77686616  0.24199034
   0.65621816  0.60767729  0.29862068
   0.48690979  0.61617336  0.29417149
slab_Cel1-OPT                           
           1
    13.711123    0.000000    0.000000
     0.000000   11.198310    0.000000
     0.000000    0.000000   15.000000
   C    N    Cu
    24    32     3
Direct configuration=     9
   0.07069661  0.38882594  0.22260796
   0.98123275  0.21805625  0.16800376
   0.22895547  0.39668518  0.18891814
   0.82458824  0.57579399  0.18503211
   0.15002133  0.24679426  0.12246883
   0.90746441  0.38439876  0.21861721
   0.56886777  0.39368468  0.23181937
   0.47721133  0.22350057  0.18023288
   0.73038631  0.39813978  0.19910012
   0.31051652  0.58153030  0.18027769
   0.64690956  0.25064693  0.13344092
   0.40258077  0.39369905  0.22140431
   0.81813385  0.89046736  0.05625020
   0.73295051  0.72522613  0.12451883
   0.97939432  0.89617004  0.07992572
   0.06849136  0.07719439  0.09371762
   0.90566860  0.74246523  0.14739959
   0.65470230  0.89366847  0.07668332
   0.31825690  0.89557937  0.05365965
   0.22684088  0.72087732  0.10056421
   0.47495564  0.90426313  0.09504334
   0.56567777  0.08097379  0.10946623
   0.38621358  0.76065115  0.16374016
   0.15487787  0.88963609  0.05217490
   0.98792536  0.43945494  0.24763386
   0.89924730  0.26906526  0.19590352
   0.15820399  0.43339935  0.24289962
   0.14805492  0.14331790  0.07964018
   0.98619281  0.10720522  0.13648666
   0.22976410  0.31551923  0.12466375
   0.06742424  0.28625607  0.16888780
   0.82268587  0.45512460  0.21118699
   0.48497623  0.44852488  0.25156653
   0.39585551  0.27588723  0.20640177
   0.65808040  0.43521586  0.25447565
   0.64502857  0.14613142  0.09310284
   0.48269817  0.11199225  0.15082999
   0.72632694  0.31906675  0.13383169
   0.56464969  0.29133192  0.17995835
   0.31879129  0.46064048  0.20374310
   0.73298279  0.94323251  0.03917810
   0.64852512  0.78286646  0.11243662
   0.90415967  0.93496155  0.03143849
   0.90732306  0.63720718  0.18790849
   0.73604976  0.61608616  0.15963725
   0.98380537  0.81203257  0.14227819
   0.81932052  0.78399682  0.10675099
   0.56795438  0.96049936  0.08440212
   0.23703315  0.94567494  0.02618154
   0.14765759  0.77091375  0.06764114
   0.40839746  0.93591390  0.03619566
   0.38055768  0.65813946  0.20962440
   0.23484029  0.60788436  0.12836602
   0.46543355  0.83066917  0.16619195
   0.31100259  0.79366188  0.10906177
   0.06977757  0.95737754  0.06451303
   0.57762932  0.77696746  0.24203007
   0.65629340  0.60771069  0.29879403
   0.48691756  0.61623212  0.29426840
slab_Cel1-OPT                           
           1
    13.710215    0.000000    0.000000
     0.000000   11.199258    0.000000
     0.000000    0.000000   15.000000
   C    N    Cu
    24    32     3
Direct configuration=    10
   0.07070438  0.38879125  0.22263126
   0.98125768  0.21803785  0.16804296
   0.22899283  0.39665254  0.18896463
   0.82455791  0.57569575  0.18516419
   0.14997726  0.24688136  0.12240738
   0.90747141  0.38429442  0.21879693
   0.56887421  0.39358303  0.23178201
   0.47722635  0.22339332  0.18024555
   0.73039956  0.39806264  0.19915241
   0.31053317  0.58149961  0.18035201
   0.64686561  0.25072538  0.13333465
   0.40257601  0.39360874  0.22149327
   0.81811156  0.89044875  0.05624944
   0.73300902  0.72520122  0.12453642
   0.97943244  0.89611960  0.07985488
   0.06848655  0.07713845  0.09360573
   0.90563780  0.74245805  0.14745918
   0.65470062  0.89356790  0.07656788
   0.31824486  0.89561647  0.05365487
   0.22682778  0.72081707  0.10048877
   0.47497830  0.90424548  0.09498356
   0.56567229  0.08093285  0.10935604
   0.38609930  0.76074513  0.16377067
   0.15487226  0.88956704  0.05199536
   0.98794142  0.43945077  0.24773448
   0.89933372  0.26903198  0.19604384
   0.15823886  0.43336079  0.24296078
   0.14800409  0.14341110  0.07954484
   0.98621392  0.10718428  0.13646895
   0.22972734  0.31560910  0.12461920
   0.06741025  0.28628324  0.16886351
   0.82272440  0.45508581  0.21141890
   0.48494735  0.44849584  0.25160117
   0.39587688  0.27583574  0.20651595
   0.65805605  0.43512747  0.25455941
   0.64494907  0.14622772  0.09296423
   0.48272006  0.11198120  0.15081204
   0.72629974  0.31921554  0.13376362
   0.56460368  0.29133705  0.17991916
   0.31882005  0.46060574  0.20386898
   0.73301249  0.94326104  0.03911665
   0.64856734  0.78287286  0.11232932
   0.90418554  0.93492336  0.03138677
   0.90731609  0.63726118  0.18798036
   0.73608489  0.61609541  0.15968272
   0.98380386  0.81208348  0.14226821
   0.81931716  0.78402697  0.10681225
   0.56798413  0.96049031  0.08421652
   0.23700271  0.94572265  0.02611278
   0.14774382  0.77088116  0.06744288
   0.40835398  0.93594306  0.03613805
   0.38046659  0.65824842  0.20966102
   0.23480740  0.60787618  0.12834485
   0.46538636  0.83080935  0.16620680
   0.31092338  0.79373079  0.10908549
   0.06980868  0.95734678  0.06433431
   0.57771122  0.77707604  0.24209444
   0.65635942  0.60777450  0.29901626
   0.48694978  0.61633859  0.29439883
slab_Cel1-OPT                           
           1
    13.707494    0.000000    0.000000
     0.000000   11.202101    0.000000
     0.000000    0.000000   15.000000
   C    N    Cu
    24    32     3
Direct configuration=    11
   0.07072769  0.38868718  0.22270117
   0.98133247  0.21798266  0.16816053
   0.22910492  0.39655463  0.18910409
   0.82446692  0.57540104  0.18556044
   0.14984507  0.24714264  0.12222306
   0.90749241  0.38398143  0.21933606
   0.56889351  0.39327812  0.23166993
   0.47727142  0.22307162  0.18028357
   0.73043930  0.39783122  0.19930929
   0.31058312  0.58140754  0.18057498
   0.64673376  0.25096073  0.13301584
   0.40256173  0.39333782  0.22176015
   0.81804468  0.89039291  0.05624719
   0.73318457  0.72512650  0.12458920
   0.97954683  0.89596830  0.07964235
   0.06847212  0.07697066  0.09327004
   0.90554540  0.74243651  0.14763795
   0.65469558  0.89326622  0.07622154
   0.31820871  0.89572775  0.05364053
   0.22678848  0.72063637  0.10026245
   0.47504629  0.90419251  0.09480423
   0.56565587  0.08081003  0.10902547
   0.38575643  0.76102703  0.16386220
   0.15485543  0.88935990  0.05145676
   0.98798958  0.43943828  0.24803634
   0.89959299  0.26893213  0.19646479
   0.15834345  0.43324513  0.24314424
   0.14785159  0.14369069  0.07925883
   0.98627724  0.10712146  0.13641583
   0.22961704  0.31587868  0.12448557
   0.06736829  0.28636474  0.16879064
   0.82283998  0.45496945  0.21211464
   0.48486070  0.44840872  0.25170509
   0.39594098  0.27568130  0.20685851
   0.65798300  0.43486233  0.25481071
   0.64471055  0.14651661  0.09254842
   0.48278573  0.11194806  0.15075818
   0.72621814  0.31966188  0.13355941
   0.56446565  0.29135245  0.17980156
   0.31890632  0.46050151  0.20424662
   0.73310160  0.94334661  0.03893230
   0.64869399  0.78289207  0.11200742
   0.90426317  0.93480881  0.03123161
   0.90729518  0.63742319  0.18819595
   0.73619032  0.61612313  0.15981910
   0.98379935  0.81223617  0.14223830
   0.81930707  0.78411740  0.10699605
   0.56807340  0.96046317  0.08365970
   0.23691140  0.94586576  0.02590650
   0.14800252  0.77078342  0.06684809
   0.40822356  0.93603054  0.03596521
   0.38019332  0.65857527  0.20977087
   0.23470874  0.60785161  0.12828133
   0.46524476  0.83122985  0.16625136
   0.31068572  0.79393750  0.10915667
   0.06990199  0.95725452  0.06379813
   0.57795694  0.77740176  0.24228757
   0.65655749  0.60796591  0.29968295
   0.48704643  0.61665796  0.29479014
slab_Cel1-OPT                           
           1
    13.706829    0.000000    0.000000
     0.000000   11.201082    0.000000
     0.000000    0.000000   15.000000
   C    N    Cu
    24    32     3
Direct configuration=    12
   0.07073863  0.38864259  0.22271983
   0.98139984  0.21795873  0.16817930
   0.22911470  0.39653628  0.18914665
   0.82450811  0.57538032  0.18565734
   0.14978237  0.24720985  0.12217585
   0.90752801  0.38396934  0.21949179
   0.56885260  0.39324732  0.23168114
   0.47727286  0.22310509  0.18032291
   0.73044283  0.39780534  0.19938558
   0.31055251  0.58139294  0.18059397
   0.64668368  0.25105183  0.13293560
   0.40256626  0.39328811  0.22183226
   0.81809412  0.89035339  0.05625465
   0.73320573  0.72516277  0.12458819
   0.97956097  0.89591670  0.07958244
   0.06848134  0.07696459  0.09318995
   0.90553085  0.74252868  0.14765328
   0.65471671  0.89325590  0.07610923
   0.31814953  0.89572787  0.05363434
   0.22681757  0.72064930  0.10020008
   0.47503310  0.90418919  0.09473599
   0.56565649  0.08078547  0.10894022
   0.38569444  0.76114596  0.16388998
   0.15486749  0.88934361  0.05131275
   0.98803324  0.43939118  0.24812417
   0.89963122  0.26886166  0.19658666
   0.15834139  0.43318482  0.24318568
   0.14781445  0.14378306  0.07917141
   0.98629402  0.10711462  0.13639984
   0.22958749  0.31594653  0.12445915
   0.06736048  0.28638645  0.16877609
   0.82280800  0.45490867  0.21227729
   0.48490673  0.44836361  0.25173930
   0.39597807  0.27557596  0.20694267
   0.65795783  0.43476190  0.25485503
   0.64467113  0.14663411  0.09242151
   0.48280534  0.11188622  0.15072305
   0.72617844  0.31974696  0.13351167
   0.56446022  0.29131484  0.17974282
   0.31890239  0.46049791  0.20432512
   0.73310688  0.94332991  0.03888490
   0.64873487  0.78281649  0.11194062
   0.90424277  0.93474481  0.03119402
   0.90727248  0.63742175  0.18828075
   0.73619953  0.61610742  0.15986599
   0.98378997  0.81223868  0.14222901
   0.81932512  0.78414632  0.10703969
   0.56805808  0.96044154  0.08353121
   0.23692649  0.94587379  0.02584285
   0.14803128  0.77072746  0.06667076
   0.40821803  0.93603506  0.03594031
   0.38015408  0.65867711  0.20982769
   0.23473226  0.60781114  0.12829958
   0.46518762  0.83130115  0.16624903
   0.31062602  0.79399086  0.10916880
   0.06989168  0.95722023  0.06366951
   0.57801490  0.77747693  0.24233960
   0.65659400  0.60801563  0.29986588
   0.48707366  0.61674341  0.29488266
slab_Cel1-OPT                           
           1
    13.704836    0.000000    0.000000
     0.000000   11.198025    0.000000
     0.000000    0.000000   15.000000
   C    N    Cu
    24    32     3
Direct configuration=    13
   0.07077146  0.38850880  0.22277583
   0.98160196  0.21788692  0.16823559