  59  59   0   0
  0.3948347E+02  0.1375970E-08  0.1128670E-08  0.1500000E-08  0.1000000E-15
  1.000000000000000E-004
  CAR 
 slab_Cel1-OPT                           
      4.26342121    -27.70412551  301     -1.99915905      1.00000000
    -27.704  0.0000E+00  0.0000E+00
    -27.598  0.0000E+00  0.0000E+00
    -27.491  0.0000E+00  0.0000E+00
    -27.384  0.0000E+00  0.0000E+00
    -27.278  0.0000E+00  0.0000E+00
    -27.171  0.0000E+00  0.0000E+00
    -27.065  0.0000E+00  0.0000E+00
    -26.958  0.0000E+00  0.0000E+00
    -26.852  0.0000E+00  0.0000E+00
    -26.745  0.6798E-14  0.7244E-15
    -26.639  0.1067E-09  0.1137E-10
    -26.532  0.1924E-06  0.2052E-07
    -26.425  0.4368E-04  0.4675E-05
    -26.319  0.1466E-02  0.1609E-03
    -26.212  0.9524E-02  0.1176E-02
    -26.106  0.2055E-01  0.3365E-02
    -25.999  0.2685E-01  0.6226E-02
    -25.893  0.1467E-01  0.7790E-02
    -25.786  0.1929E-02  0.7995E-02
    -25.680  0.4353E-04  0.8000E-02
    -25.573  0.1365E-06  0.8000E-02
    -25.466  0.3807E-08  0.8000E-02
    -25.360  0.2713E-05  0.8000E-02
    -25.253  0.2651E-03  0.8029E-02
    -25.147  0.4209E-02  0.8477E-02
    -25.040  0.1422E-01  0.9992E-02
    -24.934  0.1550E-01  0.1164E-01
    -24.827  0.1169E-01  0.1289E-01
    -24.720  0.8747E-02  0.1382E-01
    -24.614  0.9307E-02  0.1481E-01
    -24.507  0.5669E-02  0.1542E-01
    -24.401  0.7599E-03  0.1550E-01
    -24.294  0.3522E-04  0.1550E-01
    -24.188  0.5772E-03  0.1556E-01
    -24.081  0.2601E-02  0.1584E-01
    -23.975  0.6384E-02  0.1652E-01
    -23.868  0.2413E-01  0.1909E-01
    -23.761  0.3226E-01  0.2253E-01
    -23.655  0.1547E-01  0.2418E-01
    -23.548  0.2848E-02  0.2448E-01
    -23.442  0.1686E-03  0.2450E-01
    -23.335  0.4228E-03  0.2455E-01
    -23.229  0.4581E-02  0.2503E-01
    -23.122  0.1011E-01  0.2611E-01
    -23.016  0.8094E-02  0.2697E-01
    -22.909  0.8873E-02  0.2792E-01
    -22.802  0.1252E-01  0.2925E-01
    -22.696  0.1281E-01  0.3062E-01
    -22.589  0.9654E-02  0.3165E-01
    -22.483  0.3086E-02  0.3198E-01
    -22.376  0.2288E-03  0.3200E-01
    -22.270  0.3043E-05  0.3200E-01
    -22.163  0.7379E-04  0.3201E-01
    -22.057  0.2005E-02  0.3222E-01
    -21.950  0.1326E-01  0.3363E-01
    -21.843  0.3483E-01  0.3735E-01
    -21.737  0.3899E-01  0.4150E-01
    -21.630  0.2990E-01  0.4469E-01
    -21.524  0.2253E-01  0.4709E-01
    -21.417  0.7910E-02  0.4793E-01
    -21.311  0.7124E-03  0.4801E-01
    -21.204  0.1247E-02  0.4814E-01
    -21.097  0.5270E-02  0.4870E-01
    -20.991  0.1483E-01  0.5028E-01
    -20.884  0.2188E-01  0.5261E-01
    -20.778  0.1924E-01  0.5466E-01
    -20.671  0.1017E-01  0.5575E-01
    -20.565  0.2768E-02  0.5604E-01
    -20.458  0.8129E-02  0.5691E-01
    -20.352  0.2389E-01  0.5945E-01
    -20.245  0.2540E-01  0.6216E-01
    -20.138  0.1439E-01  0.6369E-01
    -20.032  0.2753E-02  0.6399E-01
    -19.925  0.1237E-03  0.6400E-01
    -19.819  0.9545E-06  0.6400E-01
    -19.712  0.9754E-09  0.6400E-01
    -19.606  0.1156E-12  0.6400E-01
    -19.499  0.1563E-17  0.6400E-01
    -19.393  0.0000E+00  0.6400E-01
    -19.286  0.0000E+00  0.6400E-01
    -19.179  0.0000E+00  0.6400E-01
    -19.073  0.0000E+00  0.6400E-01
    -18.966  0.0000E+00  0.6400E-01
    -18.860  0.0000E+00  0.6400E-01
    -18.753  0.0000E+00  0.6400E-01
    -18.647  0.0000E+00  0.6400E-01
    -18.540  0.0000E+00  0.6400E-01
    -18.434  0.0000E+00  0.6400E-01
    -18.327  0.0000E+00  0.6400E-01
    -18.220  0.0000E+00  0.6400E-01
    -18.114  0.0000E+00  0.6400E-01
    -18.007  0.5861E-16  0.6400E-01
    -17.901  0.2598E-11  0.6400E-01
    -17.794  0.1268E-07  0.6400E-01
    -17.688  0.7138E-05  0.6400E-01
    -17.581  0.5122E-03  0.6406E-01
    -17.475  0.5713E-02  0.6466E-01
    -17.368  0.1458E-01  0.6622E-01
    -17.261  0.1535E-01  0.6785E-01
    -17.155  0.1220E-01  0.6915E-01
    -17.048  0.1802E-01  0.7107E-01
    -16.942  0.2186E-01  0.7340E-01
    -16.835  0.1991E-01  0.7552E-01
    -16.729  0.1247E-01  0.7685E-01
    -16.622  0.1052E-01  0.7797E-01
    -16.515  0.1068E-01  0.7911E-01
    -16.409  0.3452E-02  0.7948E-01
    -16.302  0.2144E-03  0.7950E-01
    -16.196  0.7870E-03  0.7959E-01
    -16.089  0.2540E-02  0.7986E-01
    -15.983  0.1244E-02  0.7999E-01
    -15.876  0.8769E-04  0.8000E-01
    -15.770  0.3077E-04  0.8000E-01
    -15.663  0.1422E-02  0.8015E-01
    -15.556  0.1307E-01  0.8155E-01
    -15.450  0.3080E-01  0.8483E-01
    -15.343  0.2120E-01  0.8709E-01
    -15.237  0.4915E-02  0.8761E-01
    -15.130  0.2842E-02  0.8792E-01
    -15.024  0.2399E-02  0.8817E-01
    -14.917  0.2582E-02  0.8845E-01
    -14.811  0.1953E-02  0.8865E-01
    -14.704  0.2521E-02  0.8892E-01
    -14.597  0.8904E-03  0.8902E-01
    -14.491  0.4024E-02  0.8945E-01
    -14.384  0.1379E-01  0.9092E-01
    -14.278  0.1253E-01  0.9225E-01
    -14.171  0.1085E-01  0.9341E-01
    -14.065  0.1113E-01  0.9459E-01
    -13.958  0.1409E-01  0.9609E-01
    -13.852  0.2478E-01  0.9873E-01
    -13.745  0.2689E-01  0.1016E+00
    -13.638  0.3150E-01  0.1050E+00
    -13.532  0.3148E-01  0.1083E+00
    -13.425  0.2173E-01  0.1106E+00
    -13.319  0.1749E-01  0.1125E+00
    -13.212  0.1501E-01  0.1141E+00
    -13.106  0.5304E-02  0.1147E+00
    -12.999  0.5955E-02  0.1153E+00
    -12.892  0.7471E-02  0.1161E+00
    -12.786  0.8501E-02  0.1170E+00
    -12.679  0.7871E-02  0.1178E+00
    -12.573  0.5368E-02  0.1184E+00
    -12.466  0.5098E-02  0.1189E+00
    -12.360  0.8411E-02  0.1198E+00
    -12.253  0.6986E-02  0.1206E+00
    -12.147  0.6048E-02  0.1212E+00
    -12.040  0.6759E-02  0.1220E+00
    -11.933  0.1357E-01  0.1234E+00
    -11.827  0.1869E-01  0.1254E+00
    -11.720  0.2158E-01  0.1277E+00
    -11.614  0.2271E-01  0.1301E+00
    -11.507  0.1963E-01  0.1322E+00
    -11.401  0.1855E-01  0.1342E+00
    -11.294  0.1865E-01  0.1362E+00
    -11.188  0.1852E-01  0.1381E+00
    -11.081  0.1094E-01  0.1393E+00
    -10.974  0.9336E-02  0.1403E+00
    -10.868  0.5891E-02  0.1409E+00
    -10.761  0.4508E-02  0.1414E+00
    -10.655  0.9668E-02  0.1424E+00
    -10.548  0.1986E-01  0.1446E+00
    -10.442  0.2165E-01  0.1469E+00
    -10.335  0.1794E-01  0.1488E+00
    -10.229  0.1572E-01  0.1504E+00
    -10.122  0.1122E-01  0.1516E+00
    -10.015  0.3300E-02  0.1520E+00
     -9.909  0.1752E-02  0.1522E+00
     -9.802  0.3861E-02  0.1526E+00
     -9.696  0.8263E-02  0.1535E+00
     -9.589  0.1035E-01  0.1546E+00
     -9.483  0.1474E-01  0.1561E+00
     -9.376  0.2100E-01  0.1584E+00
     -9.270  0.1429E-01  0.1599E+00
     -9.163  0.2199E-01  0.1623E+00
     -9.056  0.3209E-01  0.1657E+00
     -8.950  0.1949E-01  0.1677E+00
     -8.843  0.1060E-01  0.1689E+00
     -8.737  0.8911E-02  0.1698E+00
     -8.630  0.1748E-02  0.1700E+00
     -8.524  0.1722E-02  0.1702E+00
     -8.417  0.4416E-02  0.1707E+00
     -8.310  0.1083E-01  0.1718E+00
     -8.204  0.1671E-01  0.1736E+00
     -8.097  0.1843E-01  0.1756E+00
     -7.991  0.1816E-01  0.1775E+00
     -7.884  0.2322E-01  0.1800E+00
     -7.778  0.1526E-01  0.1816E+00
     -7.671  0.3549E-02  0.1820E+00
     -7.565  0.1598E-02  0.1821E+00
     -7.458  0.1482E-01  0.1837E+00
     -7.351  0.3513E-01  0.1875E+00
     -7.245  0.3367E-01  0.1911E+00
     -7.138  0.3110E-01  0.1944E+00
     -7.032  0.3606E-01  0.1982E+00
     -6.925  0.3359E-01  0.2018E+00
     -6.819  0.1989E-01  0.2039E+00
     -6.712  0.1119E-01  0.2051E+00
     -6.606  0.1039E-01  0.2062E+00
     -6.499  0.2031E-01  0.2084E+00
     -6.392  0.3289E-01  0.2119E+00
     -6.286  0.2785E-01  0.2149E+00
     -6.179  0.1760E-01  0.2167E+00
     -6.073  0.1197E-01  0.2180E+00
     -5.966  0.1305E-01  0.2194E+00
     -5.860  0.1907E-01  0.2214E+00
     -5.753  0.2214E-01  0.2238E+00
     -5.647  0.2388E-01  0.2263E+00
     -5.540  0.3096E-01  0.2296E+00
     -5.433  0.2698E-01  0.2325E+00
     -5.327  0.3305E-01  0.2360E+00
     -5.220  0.2951E-01  0.2392E+00
     -5.114  0.3094E-01  0.2425E+00
     -5.007  0.3650E-01  0.2464E+00
     -4.901  0.2898E-01  0.2494E+00
     -4.794  0.2742E-01  0.2524E+00
     -4.687  0.3299E-01  0.2559E+00
     -4.581  0.2843E-01  0.2589E+00
     -4.474  0.1537E-01  0.2606E+00
     -4.368  0.1257E-01  0.2619E+00
     -4.261  0.2504E-01  0.2646E+00
     -4.155  0.4048E-01  0.2689E+00
     -4.048  0.3245E-01  0.2723E+00
     -3.942  0.2200E-01  0.2747E+00
     -3.835  0.1096E-01  0.2758E+00
     -3.728  0.2822E-02  0.2761E+00
     -3.622  0.8448E-02  0.2770E+00
     -3.515  0.7867E-02  0.2779E+00
     -3.409  0.1092E-02  0.2780E+00
     -3.302  0.2407E-04  0.2780E+00
     -3.196  0.4214E-03  0.2780E+00
     -3.089  0.6495E-02  0.2787E+00
     -2.983  0.1861E-01  0.2807E+00
     -2.876  0.1602E-01  0.2824E+00
     -2.769  0.1275E-01  0.2838E+00
     -2.663  0.1145E-01  0.2850E+00
     -2.556  0.8147E-02  0.2859E+00
     -2.450  0.1153E-02  0.2860E+00
     -2.343  0.5952E-04  0.2860E+00
     -2.237  0.1538E-02  0.2862E+00
     -2.130  0.8711E-02  0.2871E+00
     -2.024  0.7697E-02  0.2879E+00
     -1.917  0.4737E-02  0.2884E+00
     -1.810  0.1282E-01  0.2898E+00
     -1.704  0.1286E-01  0.2912E+00
     -1.597  0.1222E-01  0.2925E+00
     -1.491  0.1232E-01  0.2938E+00
     -1.384  0.9199E-02  0.2948E+00
     -1.278  0.8816E-02  0.2957E+00
     -1.171  0.1537E-01  0.2973E+00
     -1.065  0.2461E-01  0.3000E+00
     -0.958  0.2445E-01  0.3026E+00
     -0.851  0.1166E-01  0.3038E+00
     -0.745  0.4745E-02  0.3043E+00
     -0.638  0.9397E-02  0.3053E+00
     -0.532  0.1889E-01  0.3073E+00
     -0.425  0.2326E-01  0.3098E+00
     -0.319  0.2188E-01  0.3121E+00
     -0.212  0.1445E-01  0.3137E+00
     -0.105  0.3002E-02  0.3140E+00
      0.001  0.1123E-03  0.3140E+00
      0.108  0.5792E-06  0.3140E+00
      0.214  0.2630E-05  0.3140E+00
      0.321  0.3083E-03  0.3140E+00
      0.427  0.4661E-02  0.3145E+00
      0.534  0.1021E-01  0.3156E+00
      0.640  0.3423E-02  0.3160E+00
      0.747  0.2245E-03  0.3160E+00
      0.854  0.1629E-02  0.3162E+00
      0.960  0.9527E-02  0.3172E+00
      1.067  0.1739E-01  0.3190E+00
      1.173  0.1757E-01  0.3209E+00
      1.280  0.1483E-01  0.3225E+00
      1.386  0.1871E-01  0.3245E+00
      1.493  0.1915E-01  0.3265E+00
      1.599  0.2142E-01  0.3288E+00
      1.706  0.2427E-01  0.3314E+00
      1.813  0.2334E-01  0.3339E+00
      1.919  0.2448E-01  0.3365E+00
      2.026  0.2598E-01  0.3393E+00
      2.132  0.1844E-01  0.3412E+00
      2.239  0.1119E-01  0.3424E+00
      2.345  0.1069E-01  0.3436E+00
      2.452  0.1248E-01  0.3449E+00
      2.558  0.1724E-01  0.3467E+00
      2.665  0.1964E-01  0.3488E+00
      2.772  0.1896E-01  0.3508E+00
      2.878  0.9513E-02  0.3519E+00
      2.985  0.1309E-02  0.3520E+00
      3.091  0.3826E-04  0.3520E+00
      3.198  0.1760E-06  0.3520E+00
      3.304  0.1015E-09  0.3520E+00
      3.411  0.6630E-14  0.3520E+00
      3.518  0.0000E+00  0.3520E+00
      3.624  0.0000E+00  0.3520E+00
      3.731  0.0000E+00  0.3520E+00
      3.837  0.0000E+00  0.3520E+00
      3.944  0.0000E+00  0.3520E+00
      4.050  0.0000E+00  0.3520E+00
      4.157  0.0000E+00  0.3520E+00
      4.263  0.0000E+00  0.3520E+00
