 running on   32 total cores
 distrk:  each k-point on   32 cores,    1 groups
 distr:  one band on    8 cores,    4 groups
 vasp.6.3.2 27Jun22 (build May 04 2024 18:40:40) complex                        
  
 POSCAR found type information on POSCAR C N AuAgPd
 POSCAR found :  5 types and      59 ions
 Reading from existing POTCAR
 scaLAPACK will be used
 Reading from existing POTCAR
 LDA part: xc-table for Pade appr. of Perdew
 POSCAR found type information on POSCAR C N AuAgPd
 POSCAR found :  5 types and      59 ions
 POSCAR, INCAR and KPOINTS ok, starting setup
 FFT: planning ... GRIDC
 FFT: planning ... GRID_SOFT
 FFT: planning ... GRID
 WAVECAR not read
 entering main loop
       N       E                     dE             d eps       ncg     rms          rms(c)
DAV:   1     0.252469429938E+04    0.25247E+04   -0.10432E+05  1592   0.105E+03
DAV:   2    -0.472494812797E+02   -0.25719E+04   -0.24632E+04  2000   0.291E+02
DAV:   3    -0.497433855647E+03   -0.45018E+03   -0.44502E+03  1680   0.133E+02
DAV:   4    -0.512159975656E+03   -0.14726E+02   -0.14297E+02  1600   0.275E+01
DAV:   5    -0.512768220534E+03   -0.60824E+00   -0.60017E+00  1904   0.450E+00    0.454E+01
DAV:   6    -0.485385826385E+03    0.27382E+02   -0.98895E+01  1608   0.289E+01    0.355E+01
DAV:   7    -0.480921333485E+03    0.44645E+01   -0.24065E+01  1592   0.227E+01    0.176E+01
DAV:   8    -0.480759036255E+03    0.16230E+00   -0.16976E+01  1576   0.119E+01    0.157E+01
DAV:   9    -0.478551988591E+03    0.22070E+01   -0.46874E+00  1600   0.110E+01    0.531E+00
DAV:  10    -0.478444216098E+03    0.10777E+00   -0.13213E+00  1600   0.528E+00    0.404E+00
DAV:  11    -0.478371560942E+03    0.72655E-01   -0.60541E-01  1600   0.328E+00    0.217E+00
DAV:  12    -0.478357629929E+03    0.13931E-01   -0.94581E-02  1584   0.916E-01    0.104E+00
DAV:  13    -0.478355537339E+03    0.20926E-02   -0.26543E-02  1568   0.628E-01    0.599E-01
DAV:  14    -0.478359466479E+03   -0.39291E-02   -0.75404E-03  1560   0.303E-01    0.438E-01
DAV:  15    -0.478363952977E+03   -0.44865E-02   -0.76025E-03  1600   0.324E-01    0.663E-01
DAV:  16    -0.478366836124E+03   -0.28831E-02   -0.42755E-03  1568   0.229E-01    0.243E-01
DAV:  17    -0.478371312338E+03   -0.44762E-02   -0.20181E-03  1616   0.107E-01    0.127E-01
DAV:  18    -0.478375531223E+03   -0.42189E-02   -0.92589E-04  1624   0.818E-02    0.156E-01
DAV:  19    -0.478378686800E+03   -0.31556E-02   -0.67078E-04  1544   0.685E-02    0.923E-02
DAV:  20    -0.478380441970E+03   -0.17552E-02   -0.27436E-04  1448   0.389E-02    0.247E-02
DAV:  21    -0.478381633741E+03   -0.11918E-02   -0.18607E-04  1496   0.453E-02    0.971E-02
DAV:  22    -0.478381806595E+03   -0.17285E-03   -0.46841E-05  1368   0.160E-02    0.781E-02
DAV:  23    -0.478381863252E+03   -0.56657E-04   -0.30536E-06   984   0.576E-03    0.866E-02
DAV:  24    -0.478381879115E+03   -0.15863E-04   -0.98099E-07   960   0.333E-03    0.807E-02
DAV:  25    -0.478382259958E+03   -0.38084E-03   -0.26043E-04  1560   0.794E-02    0.876E-02
DAV:  26    -0.478382540454E+03   -0.28050E-03   -0.91590E-05  1416   0.219E-02    0.662E-02
DAV:  27    -0.478382625058E+03   -0.84604E-04   -0.41032E-05  1168   0.328E-02    0.177E-02
DAV:  28    -0.478382786540E+03   -0.16148E-03   -0.62217E-05  1408   0.235E-02    0.155E-02
DAV:  29    -0.478382833194E+03   -0.46654E-04   -0.28938E-05  1024   0.254E-02    0.326E-02
DAV:  30    -0.478382853012E+03   -0.19818E-04   -0.16496E-05  1016   0.990E-03    0.231E-02
DAV:  31    -0.478382923640E+03   -0.70628E-04   -0.49515E-06   984   0.600E-03    0.307E-02
DAV:  32    -0.478382952240E+03   -0.28600E-04   -0.38763E-06   976   0.741E-03    0.130E-02
DAV:  33    -0.478382961165E+03   -0.89245E-05   -0.15043E-06   976   0.320E-03
   1 F= -.47838296E+03 E0= -.47834197E+03  d E =-.478383E+03
 curvature:   0.00 expect dE= 0.000E+00 dE for cont linesearch  0.000E+00
 trial: gam= 0.00000 g(F)=  0.819E+00 g(S)=  0.250E-01 ort = 0.000E+00 (trialstep = 0.100E+01)
 search vector abs. value=  0.844E+00
 bond charge predicted
       N       E                     dE             d eps       ncg     rms          rms(c)
DAV:   1    -0.479100894061E+03   -0.71794E+00   -0.49077E+01  1408   0.127E+01    0.325E+00
DAV:   2    -0.479899457905E+03   -0.79856E+00   -0.16479E+00  1632   0.570E+00    0.852E+00
DAV:   3    -0.479109814600E+03    0.78964E+00   -0.10268E+00  1552   0.336E+00    0.427E+00
DAV:   4    -0.479103308806E+03    0.65058E-02   -0.58074E-02  1568   0.667E-01    0.405E+00
DAV:   5    -0.479067432823E+03    0.35876E-01   -0.11792E-01  1760   0.994E-01    0.134E+00
DAV:   6    -0.479071951403E+03   -0.45186E-02   -0.38202E-02  1584   0.549E-01    0.145E+00
DAV:   7    -0.479066893117E+03    0.50583E-02   -0.60305E-03  1560   0.256E-01    0.125E+00
DAV:   8    -0.479062300626E+03    0.45925E-02   -0.33045E-03  1672   0.194E-01    0.641E-01
DAV:   9    -0.479061903831E+03    0.39679E-03   -0.63035E-04  1544   0.863E-02    0.453E-01
DAV:  10    -0.479061348393E+03    0.55544E-03   -0.54262E-04  1792   0.868E-02    0.938E-02
DAV:  11    -0.479061511277E+03   -0.16288E-03   -0.17607E-04  1496   0.371E-02    0.101E-01
DAV:  12    -0.479061510478E+03    0.79886E-06   -0.13518E-05  1056   0.140E-02
   2 F= -.47906151E+03 E0= -.47902239E+03  d E =-.678549E+00
 trial-energy change:   -0.678549  1 .order   -0.685426   -0.843666   -0.527186
 step:   2.6658(harm=  2.6658)  dis= 0.11527  next Energy=  -479.507475 (dE=-0.112E+01)
 bond charge predicted
       N       E                     dE             d eps       ncg     rms          rms(c)
DAV:   1    -0.479629974728E+03   -0.56846E+00   -0.13819E+02  1408   0.210E+01    0.409E+00
DAV:   2    -0.480965178851E+03   -0.13352E+01   -0.31723E+00  1624   0.691E+00    0.120E+01
DAV:   3    -0.479649845134E+03    0.13153E+01   -0.39996E+00  1560   0.428E+00    0.369E+00
DAV:   4    -0.479623700988E+03    0.26144E-01   -0.13597E-01  1520   0.104E+00    0.374E+00
DAV:   5    -0.479602346708E+03    0.21354E-01   -0.40614E-02  1576   0.622E-01    0.208E+00
DAV:   6    -0.479606917431E+03   -0.45707E-02   -0.59346E-02  1544   0.741E-01    0.121E+00
DAV:   7    -0.479601030015E+03    0.58874E-02   -0.10468E-02  1576   0.352E-01    0.120E+00
DAV:   8    -0.479594843382E+03    0.61866E-02   -0.51184E-03  1584   0.236E-01    0.644E-01
DAV:   9    -0.479593961966E+03    0.88142E-03   -0.16798E-03  1624   0.120E-01    0.425E-01
DAV:  10    -0.479593534018E+03    0.42795E-03   -0.43999E-04  1576   0.663E-02    0.176E-01
DAV:  11    -0.479593600690E+03   -0.66672E-04   -0.16820E-04  1608   0.387E-02    0.108E-01
DAV:  12    -0.479593629140E+03   -0.28450E-04   -0.33274E-05  1216   0.195E-02    0.403E-02
DAV:  13    -0.479593677623E+03   -0.48483E-04   -0.17199E-05  1032   0.136E-02    0.522E-03
DAV:  14    -0.479593693999E+03   -0.16377E-04   -0.54894E-06   984   0.692E-03    0.493E-03
DAV:  15    -0.479593703512E+03   -0.95125E-05   -0.15470E-06   944   0.323E-03
   3 F= -.47959370E+03 E0= -.47955862E+03  d E =-.121074E+01
 curvature:  -1.33 expect dE=-0.292E+00 dE for cont linesearch -0.297E-01
 ZBRENT: extrapolating
 opt :   3.2510  next Energy=  -479.633811 (dE=-0.125E+01)
 bond charge predicted
       N       E                     dE             d eps       ncg     rms          rms(c)
DAV:   1    -0.479646670856E+03   -0.52977E-01   -0.16785E+01  1408   0.723E+00    0.152E+00
DAV:   2    -0.479954628885E+03   -0.30796E+00   -0.45573E-01  1600   0.252E+00    0.620E+00
DAV:   3    -0.479657555844E+03    0.29707E+00   -0.60324E-01  1552   0.175E+00    0.105E+00
DAV:   4    -0.479649010689E+03    0.85452E-02   -0.24251E-02  1544   0.419E-01    0.147E+00
DAV:   5    -0.479644183287E+03    0.48274E-02   -0.12343E-02  1808   0.435E-01    0.536E-01
DAV:   6    -0.479642821625E+03    0.13617E-02   -0.54432E-03  1536   0.222E-01    0.292E-01
DAV:   7    -0.479642740583E+03    0.81043E-04   -0.88580E-04  1608   0.105E-01    0.365E-01
DAV:   8    -0.479642264277E+03    0.47631E-03   -0.39181E-04  1600   0.672E-02    0.199E-01
DAV:   9    -0.479642203673E+03    0.60603E-04   -0.11814E-04  1584   0.379E-02    0.105E-01
DAV:  10    -0.479642214740E+03   -0.11067E-04   -0.23642E-05  1160   0.166E-02    0.567E-02
DAV:  11    -0.479642224038E+03   -0.92975E-05   -0.96685E-06   952   0.110E-02
   4 F= -.47964222E+03 E0= -.47960887E+03  d E =-.125926E+01
 curvature:  -1.80 expect dE=-0.495E+00 dE for cont linesearch -0.209E-02
 trial: gam= 0.28878 g(F)=  0.224E+00 g(S)=  0.511E-01 ort = 0.313E-01 (trialstep = 0.145E+01)
 search vector abs. value=  0.363E+00
 bond charge predicted
       N       E                     dE             d eps       ncg     rms          rms(c)
DAV:   1    -0.479934520682E+03   -0.29231E+00   -0.35822E+01  1408   0.125E+01    0.169E+00
DAV:   2    -0.479968374749E+03   -0.33854E-01   -0.56167E-01  1584   0.200E+00    0.923E-01
DAV:   3    -0.480007160001E+03   -0.38785E-01   -0.70337E-02  1576   0.910E-01    0.305E+00
DAV:   4    -0.479965389001E+03    0.41771E-01   -0.79519E-02  1544   0.675E-01    0.570E-01
DAV:   5    -0.479963306973E+03    0.20820E-02   -0.11543E-02  1544   0.299E-01    0.742E-01
DAV:   6    -0.479960511071E+03    0.27959E-02   -0.31156E-03  1576   0.171E-01    0.856E-02
DAV:   7    -0.479960625497E+03   -0.11443E-03   -0.45430E-04  1568   0.714E-02    0.140E-01
DAV:   8    -0.479960561311E+03    0.64186E-04   -0.96757E-05  1608   0.308E-02    0.407E-02
DAV:   9    -0.479960595364E+03   -0.34053E-04   -0.26143E-05  1080   0.139E-02    0.222E-02
DAV:  10    -0.479960621853E+03   -0.26489E-04   -0.77908E-06   976   0.937E-03    0.641E-03
DAV:  11    -0.479960642525E+03   -0.20672E-04   -0.26835E-06   944   0.517E-03    0.312E-03
DAV:  12    -0.479960663340E+03   -0.20815E-04   -0.23817E-06   960   0.300E-03    0.266E-03
DAV:  13    -0.479960678465E+03   -0.15126E-04   -0.10760E-06   960   0.190E-03    0.150E-03
DAV:  14    -0.479960694404E+03   -0.15939E-04   -0.15050E-06  1008   0.157E-03    0.153E-03
DAV:  15    -0.479960702560E+03   -0.81553E-05   -0.66174E-07   968   0.122E-03
   5 F= -.47996070E+03 E0= -.47992735E+03  d E =-.318479E+00
 trial-energy change:   -0.318479  1 .order   -0.318295   -0.411828   -0.224762
 step:   3.1926(harm=  3.1926)  dis= 0.07637  next Energy=  -480.095546 (dE=-0.453E+00)
 bond charge predicted
       N       E                     dE             d eps       ncg     rms          rms(c)
DAV:   1    -0.480055365144E+03   -0.94671E-01   -0.51749E+01  1408   0.149E+01    0.202E+00
DAV:   2    -0.480114207578E+03   -0.58842E-01   -0.81704E-01  1592   0.243E+00    0.161E+00
DAV:   3    -0.480195757658E+03   -0.81550E-01   -0.14218E-01  1584   0.133E+00    0.441E+00
DAV:   4    -0.480105892107E+03    0.89866E-01   -0.26243E-01  1552   0.964E-01    0.825E-01
DAV:   5    -0.480098287951E+03    0.76042E-02   -0.23496E-02  1536   0.438E-01    0.104E+00
DAV:   6    -0.480092898987E+03    0.53890E-02   -0.61798E-03  1552   0.234E-01    0.118E-01
DAV:   7    -0.480093069513E+03   -0.17053E-03   -0.89520E-04  1528   0.104E-01    0.252E-01
DAV:   8    -0.480092785310E+03    0.28420E-03   -0.23939E-04  1600   0.528E-02    0.553E-02
DAV:   9    -0.480092839272E+03   -0.53962E-04   -0.61206E-05  1256   0.211E-02    0.503E-02
DAV:  10    -0.480092862923E+03   -0.23651E-04   -0.16739E-05  1000   0.141E-02    0.961E-03
DAV:  11    -0.480092894548E+03   -0.31625E-04   -0.63202E-06   968   0.749E-03    0.438E-03
DAV:  12    -0.480092923716E+03   -0.29167E-04   -0.28809E-06   976   0.352E-03    0.316E-03
DAV:  13    -0.480092947350E+03   -0.23635E-04   -0.17461E-06   944   0.257E-03    0.218E-03
DAV:  14    -0.480092965605E+03   -0.18255E-04   -0.15487E-06   992   0.188E-03    0.236E-03
DAV:  15    -0.480092981033E+03   -0.15428E-04   -0.14026E-06  1016   0.165E-03    0.838E-04
DAV:  16    -0.480092985660E+03   -0.46276E-05   -0.48786E-07   976   0.115E-03
   6 F= -.48009299E+03 E0= -.48005924E+03  d E =-.450762E+00
 curvature:  -2.04 expect dE=-0.589E+00 dE for cont linesearch -0.871E-04
 trial: gam= 1.15472 g(F)=  0.284E+00 g(S)=  0.429E-02 ort =-0.394E-02 (trialstep = 0.856E+00)
 search vector abs. value=  0.764E+00
 bond charge predicted
       N       E                     dE             d eps       ncg     rms          rms(c)
DAV:   1    -0.480277387242E+03   -0.18441E+00   -0.30696E+01  1408   0.105E+01    0.117E+00
DAV:   2    -0.480331841268E+03   -0.54454E-01   -0.39230E-01  1560   0.160E+00    0.259E+00
DAV:   3    -0.480308715123E+03    0.23126E-01   -0.64380E-02  1544   0.658E-01    0.804E-01
DAV:   4    -0.480305836708E+03    0.28784E-02   -0.13230E-02  1592   0.357E-01    0.955E-01
DAV:   5    -0.480302108039E+03    0.37287E-02   -0.65239E-03  1600   0.251E-01    0.129E-01
DAV:   6    -0.480302087006E+03    0.21032E-04   -0.87959E-04  1544   0.103E-01    0.180E-01
DAV:   7    -0.480301945005E+03    0.14200E-03   -0.27882E-04  1592   0.480E-02    0.469E-02
DAV:   8    -0.480301984164E+03   -0.39159E-04   -0.62575E-05  1280   0.235E-02    0.419E-02
DAV:   9    -0.480302002502E+03   -0.18338E-04   -0.11998E-05   992   0.129E-02    0.947E-03
DAV:  10    -0.480302023819E+03   -0.21316E-04   -0.41479E-06   952   0.641E-03    0.590E-03
DAV:  11    -0.480302043182E+03   -0.19363E-04   -0.23562E-06   944   0.374E-03    0.226E-03
DAV:  12    -0.480302060339E+03   -0.17157E-04   -0.17397E-06   968   0.249E-03    0.130E-03
DAV:  13    -0.480302069595E+03   -0.92562E-05   -0.95280E-07   952   0.161E-03
   7 F= -.48030207E+03 E0= -.48027164E+03  d E =-.209084E+00
 trial-energy change:   -0.209084  1 .order   -0.209411   -0.242881   -0.175941
 step:   3.1049(harm=  3.1049)  dis= 0.14058  next Energy=  -480.533616 (dE=-0.441E+00)
 bond charge predicted
       N       E                     dE             d eps       ncg     rms          rms(c)
DAV:   1    -0.480351164201E+03   -0.49104E-01   -0.21541E+02  1416   0.276E+01    0.286E+00
DAV:   2    -0.480602423455E+03   -0.25126E+00   -0.27652E+00  1584   0.408E+00    0.382E+00
DAV:   3    -0.480607217317E+03   -0.47939E-02   -0.35224E-01  1592   0.151E+00    0.254E+00
DAV:   4    -0.480547002859E+03    0.60214E-01   -0.86155E-02  1576   0.101E+00    0.144E+00
DAV:   5    -0.480538036783E+03    0.89661E-02   -0.34517E-02  1592   0.581E-01    0.351E-01
DAV:   6    -0.480537431121E+03    0.60566E-03   -0.59347E-03  1648   0.257E-01    0.308E-01
DAV:   7    -0.480537085295E+03    0.34583E-03   -0.17015E-03  1608   0.135E-01    0.103E-01
DAV:   8    -0.480537176871E+03   -0.91576E-04   -0.53406E-04  1568   0.735E-02    0.626E-02
DAV:   9    -0.480537280333E+03   -0.10346E-03   -0.10208E-04  1584   0.334E-02    0.211E-02
DAV:  10    -0.480537387024E+03   -0.10669E-03   -0.20509E-05  1096   0.157E-02    0.885E-03
DAV:  11    -0.480537496799E+03   -0.10978E-03   -0.13024E-05  1048   0.105E-02    0.443E-03
DAV:  12    -0.480537589539E+03   -0.92740E-04   -0.95104E-06  1064   0.620E-03    0.488E-03
DAV:  13    -0.480537648941E+03   -0.59402E-04   -0.58735E-06  1024   0.429E-03    0.258E-03
DAV:  14    -0.480537687704E+03   -0.38763E-04   -0.46528E-06  1032   0.326E-03    0.191E-03
DAV:  15    -0.480537701395E+03   -0.13691E-04   -0.16951E-06   976   0.235E-03    0.851E-04
DAV:  16    -0.480537712181E+03   -0.10785E-04   -0.12939E-06   960   0.167E-03    0.549E-04
DAV:  17    -0.480537719504E+03   -0.73237E-05   -0.71339E-07   960   0.119E-03
   8 F= -.48053772E+03 E0= -.48051487E+03  d E =-.444734E+00
 curvature:  -4.18 expect dE=-0.120E+01 dE for cont linesearch -0.125E-03
 trial: gam= 0.95375 g(F)=  0.258E+00 g(S)=  0.293E-01 ort = 0.479E-02 (trialstep = 0.101E+01)
 search vector abs. value=  0.991E+00
 bond charge predicted
       N       E                     dE             d eps       ncg     rms          rms(c)
DAV:   1    -0.480738299425E+03   -0.20059E+00   -0.56134E+01  1432   0.140E+01    0.157E+00
DAV:   2    -0.481133414078E+03   -0.39511E+00   -0.88988E-01  1584   0.280E+00    0.750E+00
DAV:   3    -0.480815340416E+03    0.31807E+00   -0.12426E+00  1520   0.167E+00    0.123E+00
DAV:   4    -0.480782442139E+03    0.32898E-01   -0.29818E-02  1472   0.475E-01    0.103E+00
DAV:   5    -0.480777888642E+03    0.45535E-02   -0.61578E-03  1696   0.303E-01    0.438E-01
DAV:   6    -0.480777813851E+03    0.74791E-04   -0.50232E-03  1544   0.194E-01    0.209E-01
DAV:   7    -0.480777613452E+03    0.20040E-03   -0.91353E-04  1616   0.104E-01    0.140E-01
DAV:   8    -0.480777490012E+03    0.12344E-03   -0.34866E-04  1560   0.640E-02    0.850E-02
DAV:   9    -0.480777487595E+03    0.24169E-05   -0.76946E-05  1480   0.264E-02
   9 F= -.48077749E+03 E0= -.48075833E+03  d E =-.239768E+00
 trial-energy change:   -0.239768  1 .order   -0.240800   -0.293382   -0.188218
 step:   3.2268(harm=  2.8075)  dis= 0.17480  next Energy=  -480.974038 (dE=-0.436E+00)
 bond charge predicted
       N       E                     dE             d eps       ncg     rms          rms(c)
DAV:   1    -0.480717196575E+03    0.60293E-01   -0.27943E+02  1432   0.312E+01    0.301E+00
DAV:   2    -0.481805611183E+03   -0.10884E+01   -0.40930E+00  1560   0.547E+00    0.121E+01
DAV:   3    -0.481068264623E+03    0.73735E+00   -0.24652E+00  1536   0.267E+00    0.237E+00
DAV:   4    -0.480963986035E+03    0.10428E+00   -0.94722E-02  1512   0.903E-01    0.155E+00
DAV:   5    -0.480953365506E+03    0.10621E-01   -0.21180E-02  1664   0.513E-01    0.103E+00
DAV:   6    -0.480955666137E+03   -0.23006E-02   -0.27068E-02  1568   0.523E-01    0.736E-01
DAV:   7    -0.480952726276E+03    0.29399E-02   -0.62111E-03  1560   0.283E-01    0.256E-01
DAV:   8    -0.480951985027E+03    0.74125E-03   -0.12510E-03  1504   0.104E-01    0.178E-01
DAV:   9    -0.480951645012E+03    0.34001E-03   -0.55387E-04  1584   0.752E-02    0.116E-01
DAV:  10    -0.480951597526E+03    0.47486E-04   -0.32621E-04  1608   0.567E-02    0.404E-02
DAV:  11    -0.480951651168E+03   -0.53642E-04   -0.56122E-05  1480   0.206E-02    0.272E-02
DAV:  12    -0.480951688854E+03   -0.37685E-04   -0.52030E-06   952   0.739E-03    0.184E-02
DAV:  13    -0.480951756071E+03   -0.67217E-04   -0.11909E-05  1016   0.825E-03    0.427E-03
DAV:  14    -0.480951773416E+03   -0.17345E-04   -0.26921E-06   976   0.446E-03    0.354E-03
DAV:  15    -0.480951797226E+03   -0.23810E-04   -0.19816E-06   944   0.325E-03    0.213E-03
DAV:  16    -0.480951826926E+03   -0.29700E-04   -0.30338E-06  1000   0.270E-03    0.121E-03
DAV:  17    -0.480951837678E+03   -0.10752E-04   -0.86362E-07   968   0.174E-03    0.927E-04
DAV:  18    -0.480951847009E+03   -0.93308E-05   -0.93287E-07   936   0.143E-03
  10 F= -.48095185E+03 E0= -.48093923E+03  d E =-.414128E+00
 curvature:  -4.51 expect dE=-0.879E+00 dE for cont linesearch -0.270E-02
 trial: gam= 0.89928 g(F)=  0.169E+00 g(S)=  0.259E-01 ort =-0.244E-01 (trialstep = 0.145E+01)
 search vector abs. value=  0.952E+00
 bond charge predicted
       N       E                     dE             d eps       ncg     rms          rms(c)
DAV:   1    -0.481025231570E+03   -0.73394E-01   -0.10790E+02  1408   0.190E+01    0.158E+00
DAV:   2    -0.481130801499E+03   -0.10557E+00   -0.12684E+00  1576   0.267E+00    0.961E-01
DAV:   3    -0.481147885310E+03   -0.17084E-01   -0.64322E-02  1600   0.770E-01    0.213E+00
DAV:   4    -0.481126140812E+03    0.21744E-01   -0.34967E-02  1512   0.533E-01    0.671E-01
DAV:   5    -0.481122404616E+03    0.37362E-02   -0.99351E-03  1536   0.276E-01    0.360E-01
DAV:   6    -0.481121601796E+03    0.80282E-03   -0.14919E-03  1584   0.137E-01    0.743E-02
DAV:   7    -0.481121656432E+03   -0.54636E-04   -0.33415E-04  1496   0.531E-02    0.650E-02
DAV:   8    -0.481121665519E+03   -0.90865E-05   -0.58870E-05  1352   0.217E-02
  11 F= -.48112167E+03 E0= -.48110926E+03  d E =-.169819E+00
 trial-energy change:   -0.169819  1 .order   -0.170628   -0.250812   -0.090444
 step:   2.3099(harm=  2.2685)  dis= 0.12788  next Energy=  -481.148293 (dE=-0.196E+00)
 bond charge predicted
       N       E                     dE             d eps       ncg     rms          rms(c)
DAV:   1    -0.481115717249E+03    0.59392E-02   -0.37668E+01  1416   0.112E+01    0.920E-01
DAV:   2    -0.481152353263E+03   -0.36636E-01   -0.43443E-01  1576   0.157E+00    0.638E-01
DAV:   3    -0.481162984255E+03   -0.10631E-01   -0.29019E-02  1592   0.525E-01    0.153E+00
DAV:   4    -0.481149818497E+03    0.13166E-01   -0.15081E-02  1504   0.371E-01    0.381E-01
DAV:   5    -0.481148724684E+03    0.10938E-02   -0.41500E-03  1480   0.175E-01    0.277E-01
DAV:   6    -0.481148212950E+03    0.51173E-03   -0.62002E-04  1552   0.842E-02    0.454E-02
DAV:   7    -0.481148272029E+03   -0.59079E-04   -0.12986E-04  1504   0.313E-02    0.458E-02
DAV:   8    -0.481148290315E+03   -0.18286E-04   -0.23301E-05  1088   0.134E-02    0.125E-02
DAV:   9    -0.481148331376E+03   -0.41060E-04   -0.10680E-05  1000   0.771E-03    0.452E-03
DAV:  10    -0.481148355002E+03   -0.23626E-04   -0.23848E-06   952   0.414E-03    0.233E-03
DAV:  11    -0.481148381648E+03   -0.26646E-04   -0.22148E-06   928   0.268E-03    0.148E-03
DAV:  12    -0.481148402048E+03   -0.20400E-04   -0.16121E-06   936   0.218E-03    0.117E-03
DAV:  13    -0.481148416975E+03   -0.14927E-04   -0.16619E-06   960   0.182E-03    0.736E-04
DAV:  14    -0.481148423307E+03   -0.63313E-05   -0.95012E-07   960   0.135E-03
  12 F= -.48114842E+03 E0= -.48113607E+03  d E =-.196576E+00
 curvature:  -6.23 expect dE=-0.610E+00 dE for cont linesearch -0.421E-05
 trial: gam= 0.36538 g(F)=  0.849E-01 g(S)=  0.130E-01 ort =-0.802E-03 (trialstep = 0.162E+01)
 search vector abs. value=  0.224E+00
 bond charge predicted
       N       E                     dE             d eps       ncg     rms          rms(c)
DAV:   1    -0.481254349946E+03   -0.10593E+00   -0.27615E+01  1408   0.108E+01    0.166E+00
DAV:   2    -0.481421041943E+03   -0.16669E+00   -0.66941E-01  1584   0.242E+00    0.323E+00
DAV:   3    -0.481258908439E+03    0.16213E+00   -0.19030E-01  1504   0.156E+00    0.550E-01
DAV:   4    -0.481254897626E+03    0.40108E-02   -0.24016E-02  1552   0.372E-01    0.299E-01
DAV:   5    -0.481254464869E+03    0.43276E-03   -0.46297E-03  1664   0.187E-01    0.146E-01
DAV:   6    -0.481254570103E+03   -0.10523E-03   -0.82144E-04  1568   0.104E-01    0.153E-01
DAV:   7    -0.481254477980E+03    0.92123E-04   -0.32634E-04  1560   0.699E-02    0.985E-02
DAV:   8    -0.481254419613E+03    0.58367E-04   -0.64054E-05  1224   0.301E-02    0.268E-02
DAV:   9    -0.481254433276E+03   -0.13664E-04   -0.17119E-05  1072   0.131E-02    0.103E-02
DAV:  10    -0.481254447262E+03   -0.13986E-04   -0.38427E-06   952   0.647E-03    0.417E-03
DAV:  11    -0.481254462904E+03   -0.15642E-04   -0.24410E-06   960   0.458E-03    0.203E-03
DAV:  12    -0.481254475491E+03   -0.12586E-04   -0.16636E-06   960   0.290E-03    0.125E-03
DAV:  13    -0.481254481917E+03   -0.64266E-05   -0.89528E-07   976   0.174E-03
  13 F= -.48125448E+03 E0= -.48124447E+03  d E =-.106059E+00
 trial-energy change:   -0.106059  1 .order   -0.106005   -0.158398   -0.053611
 step:   2.4524(harm=  2.4524)  dis= 0.06129  next Energy=  -481.268142 (dE=-0.120E+00)
 bond charge predicted
       N       E                     dE             d eps       ncg     rms          rms(c)
DAV:   1    -0.481267950117E+03   -0.13475E-01   -0.72301E+00  1408   0.555E+00    0.827E-01
DAV:   2    -0.481313639854E+03   -0.45690E-01   -0.16168E-01  1568   0.122E+00    0.193E+00
DAV:   3    -0.481269579987E+03    0.44060E-01   -0.49826E-02  1504   0.767E-01    0.332E-01
DAV:   4    -0.481268598017E+03    0.98197E-03   -0.53072E-03  1488   0.201E-01    0.267E-01
DAV:   5    -0.481268355163E+03    0.24285E-03   -0.18625E-03  1736   0.149E-01    0.234E-01
DAV:   6    -0.481267987158E+03    0.36801E-03   -0.71242E-04  1520   0.903E-02    0.703E-02
DAV:   7    -0.481267948582E+03    0.38576E-04   -0.88119E-05  1408   0.286E-02    0.198E-02
DAV:   8    -0.481267952054E+03   -0.34717E-05   -0.12191E-05  1016   0.111E-02
  14 F= -.48126795E+03 E0= -.48125909E+03  d E =-.119529E+00
 curvature:  -2.82 expect dE=-0.195E+00 dE for cont linesearch -0.554E-05
 trial: gam= 0.74475 g(F)=  0.653E-01 g(S)=  0.367E-02 ort =-0.664E-03 (trialstep = 0.179E+01)
 search vector abs. value=  0.193E+00
 bond charge predicted
       N       E                     dE             d eps       ncg     rms          rms(c)
DAV:   1    -0.481332536931E+03   -0.64588E-01   -0.29169E+01  1416   0.115E+01    0.104E+00
DAV:   2    -0.481390247564E+03   -0.57711E-01   -0.43278E-01  1576   0.176E+00    0.171E+00
DAV:   3    -0.481362371622E+03    0.27876E-01   -0.62058E-02  1512   0.838E-01    0.753E-01
DAV:   4    -0.481358467049E+03    0.39046E-02   -0.10188E-02  1488   0.334E-01    0.439E-01
DAV:   5    -0.481357629776E+03    0.83727E-03   -0.44218E-03  1664   0.236E-01    0.342E-01
DAV:   6    -0.481356812100E+03    0.81768E-03   -0.15179E-03  1504   0.131E-01    0.614E-02
DAV:   7    -0.481356823761E+03   -0.11662E-04   -0.19918E-04  1504   0.419E-02    0.459E-02
DAV:   8    -0.481356828861E+03   -0.50995E-05   -0.33632E-05  1184   0.195E-02
  15 F= -.48135683E+03 E0= -.48134867E+03  d E =-.888768E-01
 trial-energy change:   -0.088877  1 .order   -0.088703   -0.122528   -0.054878
 step:   3.2391(harm=  3.2391)  dis= 0.07335  next Energy=  -481.378913 (dE=-0.111E+00)
 bond charge predicted
       N       E                     dE             d eps       ncg     rms          rms(c)
DAV:   1    -0.481362983000E+03   -0.61592E-02   -0.19187E+01  1416   0.933E+00    0.841E-01
DAV:   2    -0.481400426796E+03   -0.37444E-01   -0.28366E-01  1584   0.143E+00    0.141E+00
DAV:   3    -0.481382608452E+03    0.17818E-01   -0.40493E-02  1512   0.675E-01    0.611E-01
DAV:   4    -0.481379815601E+03    0.27929E-02   -0.66429E-03  1488   0.271E-01    0.337E-01
DAV:   5    -0.481379292155E+03    0.52345E-03   -0.28580E-03  1664   0.184E-01    0.245E-01
DAV:   6    -0.481378876340E+03    0.41582E-03   -0.87568E-04  1504   0.101E-01    0.478E-02
DAV:   7    -0.481378900996E+03   -0.24656E-04   -0.11826E-04  1512   0.327E-02    0.348E-02
DAV:   8    -0.481378918671E+03   -0.17675E-04   -0.21153E-05  1080   0.159E-02    0.115E-02
DAV:   9    -0.481378945739E+03   -0.27068E-04   -0.89570E-06   952   0.886E-03    0.484E-03
DAV:  10    -0.481378961376E+03   -0.15637E-04   -0.25442E-06   976   0.441E-03    0.235E-03
DAV:  11    -0.481378978496E+03   -0.17120E-04   -0.18180E-06   920   0.275E-03    0.158E-03
DAV:  12    -0.481378993742E+03   -0.15246E-04   -0.16581E-06   976   0.235E-03    0.126E-03
DAV:  13    -0.481379000364E+03   -0.66218E-05   -0.82080E-07   976   0.168E-03
  16 F= -.48137900E+03 E0= -.48137136E+03  d E =-.111048E+00
 curvature:  -4.55 expect dE=-0.367E+00 dE for cont linesearch -0.115E-06
 trial: gam= 1.15419 g(F)=  0.717E-01 g(S)=  0.902E-02 ort =-0.699E-04 (trialstep = 0.119E+01)
 search vector abs. value=  0.337E+00
 bond charge predicted
       N       E                     dE             d eps       ncg     rms          rms(c)
DAV:   1    -0.481435225696E+03   -0.56232E-01   -0.22961E+01  1408   0.102E+01    0.709E-01
DAV:   2    -0.481461380816E+03   -0.26155E-01   -0.29929E-01  1632   0.137E+00    0.612E-01
DAV:   3    -0.481463711310E+03   -0.23305E-02   -0.20101E-02  1576   0.461E-01    0.842E-01
DAV:   4    -0.481458896668E+03    0.48146E-02   -0.69124E-03  1496   0.283E-01    0.339E-01
DAV:   5    -0.481458261123E+03    0.63555E-03   -0.23402E-03  1568   0.165E-01    0.177E-01
DAV:   6    -0.481458163589E+03    0.97535E-04   -0.82333E-04  1600   0.913E-02    0.422E-02
DAV:   7    -0.481458185082E+03   -0.21494E-04   -0.11876E-04  1584   0.322E-02    0.323E-02
DAV:   8    -0.481458184572E+03    0.50974E-06   -0.20738E-05  1032   0.160E-02
  17 F= -.48145818E+03 E0= -.48145100E+03  d E =-.791842E-01
 trial-energy change:   -0.079184  1 .order   -0.079051   -0.095704   -0.062397
 step:   3.4121(harm=  3.4121)  dis= 0.10305  next Energy=  -481.516499 (dE=-0.137E+00)
 bond charge predicted
       N       E                     dE             d eps       ncg     rms          rms(c)
DAV:   1    -0.481434600418E+03    0.23585E-01   -0.80964E+01  1408   0.191E+01    0.137E+00
DAV:   2    -0.481529075700E+03   -0.94475E-01   -0.10695E+00  1616   0.259E+00    0.115E+00
DAV:   3    -0.481535772346E+03   -0.66966E-02   -0.71592E-02  1592   0.879E-01    0.157E+00
DAV:   4    -0.481520379121E+03    0.15393E-01   -0.25362E-02  1520   0.530E-01    0.665E-01
DAV:   5    -0.481517258462E+03    0.31207E-02   -0.79425E-03  1576   0.313E-01    0.332E-01
DAV:   6    -0.481516985213E+03    0.27325E-03   -0.32003E-03  1608   0.177E-01    0.861E-02
DAV:   7    -0.481517049234E+03   -0.64021E-04   -0.46681E-04  1624   0.649E-02    0.625E-02
DAV:   8    -0.481517056186E+03   -0.69514E-05   -0.79376E-05  1568   0.300E-02
  18 F= -.48151706E+03 E0= -.48151060E+03  d E =-.138056E+00
 curvature:  -7.13 expect dE=-0.521E+00 dE for cont linesearch -0.307E-05
 trial: gam= 0.91028 g(F)=  0.725E-01 g(S)=  0.596E-03 ort = 0.381E-03 (trialstep = 0.156E+01)
 search vector abs. value=  0.353E+00
 bond charge predicted
       N       E                     dE             d eps       ncg     rms          rms(c)
DAV:   1    -0.481548375164E+03   -0.31326E-01   -0.41610E+01  1408   0.136E+01    0.930E-01
DAV:   2    -0.481596136213E+03   -0.47761E-01   -0.55599E-01  1600   0.184E+00    0.605E-01
DAV:   3    -0.481593428350E+03    0.27079E-02   -0.20109E-02  1632   0.405E-01    0.403E-01
DAV:   4    -0.481594099483E+03   -0.67113E-03   -0.72152E-03  1600   0.269E-01    0.473E-01
DAV:   5    -0.481592697693E+03    0.14018E-02   -0.40703E-03  1552   0.217E-01    0.252E-01
DAV:   6    -0.481592369011E+03    0.32868E-03   -0.10013E-03  1520   0.116E-01    0.774E-02
DAV:   7    -0.481592350572E+03    0.18438E-04   -0.19406E-04  1584   0.452E-02    0.417E-02
DAV:   8    -0.481592351701E+03   -0.11285E-05   -0.42060E-05  1216   0.195E-02
  19 F= -.48159235E+03 E0= -.48158678E+03  d E =-.752955E-01
 trial-energy change:   -0.075296  1 .order   -0.075109   -0.114451   -0.035766
 step:   2.2665(harm=  2.2665)  dis= 0.07190  next Energy=  -481.600294 (dE=-0.832E-01)
 bond charge predicted
       N       E                     dE             d eps       ncg     rms          rms(c)
DAV:   1    -0.481591653795E+03    0.69678E-03   -0.85763E+00  1408   0.618E+00    0.418E-01
DAV:   2    -0.481601450361E+03   -0.97966E-02   -0.11441E-01  1600   0.836E-01    0.275E-01
DAV:   3    -0.481600984637E+03    0.46572E-03   -0.42731E-03  1632   0.191E-01    0.212E-01
DAV:   4    -0.481601467804E+03   -0.48317E-03   -0.19717E-03  1568   0.143E-01    0.307E-01
DAV:   5    -0.481600630778E+03    0.83703E-03   -0.10401E-03  1520   0.116E-01    0.695E-02
DAV:   6    -0.481600660592E+03   -0.29813E-04   -0.26973E-04  1504   0.480E-02    0.340E-02
DAV:   7    -0.481600661675E+03   -0.10837E-05   -0.40240E-05  1360   0.198E-02
  20 F= -.48160066E+03 E0= -.48159539E+03  d E =-.836055E-01
 curvature:  -5.45 expect dE=-0.233E+00 dE for cont linesearch -0.517E-07
 trial: gam= 0.59199 g(F)=  0.419E-01 g(S)=  0.894E-03 ort = 0.579E-04 (trialstep = 0.170E+01)
 search vector abs. value=  0.167E+00
 bond charge predicted
       N       E                     dE             d eps       ncg     rms          rms(c)
DAV:   1    -0.481631734726E+03   -0.31074E-01   -0.23950E+01  1408   0.100E+01    0.684E-01
DAV:   2    -0.481663548509E+03   -0.31814E-01   -0.31143E-01  1592   0.139E+00    0.915E-01
DAV:   3    -0.481658185128E+03    0.53634E-02   -0.26611E-02  1560   0.516E-01    0.534E-01
DAV:   4    -0.481655747079E+03    0.24380E-02   -0.49222E-03  1504   0.240E-01    0.293E-01
DAV:   5    -0.481655207202E+03    0.53988E-03   -0.28763E-03  1616   0.170E-01    0.155E-01
DAV:   6    -0.481655076187E+03    0.13101E-03   -0.71131E-04  1568   0.877E-02    0.447E-02
DAV:   7    -0.481655083864E+03   -0.76772E-05   -0.11195E-04  1576   0.305E-02    0.274E-02
DAV:   8    -0.481655089408E+03   -0.55437E-05   -0.20082E-05  1032   0.138E-02
  21 F= -.48165509E+03 E0= -.48164922E+03  d E =-.544277E-01
 trial-energy change:   -0.054428  1 .order   -0.054323   -0.072727   -0.035919
 step:   3.3587(harm=  3.3587)  dis= 0.07767  next Energy=  -481.672511 (dE=-0.718E-01)
 bond charge predicted
       N       E                     dE             d eps       ncg     rms          rms(c)
DAV:   1    -0.481650370543E+03    0.47133E-02   -0.22808E+01  1408   0.978E+00    0.667E-01
DAV:   2    -0.481680784392E+03   -0.30414E-01   -0.29700E-01  1600   0.136E+00    0.901E-01
DAV:   3    -0.481675425008E+03    0.53594E-02   -0.25537E-02  1568   0.507E-01    0.512E-01
DAV:   4    -0.481673147906E+03    0.22771E-02   -0.46491E-03  1504   0.232E-01    0.285E-01
DAV:   5    -0.481672637841E+03    0.51006E-03   -0.27287E-03  1616   0.167E-01    0.152E-01
DAV:   6    -0.481672512869E+03    0.12497E-03   -0.69524E-04  1552   0.874E-02    0.438E-02
DAV:   7    -0.481672523939E+03   -0.11070E-04   -0.10951E-04  1536   0.300E-02    0.270E-02
DAV:   8    -0.481672533384E+03   -0.94446E-05   -0.19048E-05  1016   0.134E-02
  22 F= -.48167253E+03 E0= -.48166592E+03  d E =-.718717E-01
 curvature:  -6.54 expect dE=-0.353E+00 dE for cont linesearch -0.224E-05
 trial: gam= 1.26709 g(F)=  0.540E-01 g(S)=  0.227E-04 ort =-0.239E-03 (trialstep = 0.105E+01)
 search vector abs. value=  0.321E+00
 bond charge predicted
       N       E                     dE             d eps       ncg     rms          rms(c)
DAV:   1    -0.481703562158E+03   -0.31038E-01   -0.17987E+01  1408   0.833E+00    0.592E-01
DAV:   2    -0.481730389188E+03   -0.26827E-01   -0.23077E-01  1592   0.120E+00    0.979E-01
DAV:   3    -0.481722004659E+03    0.83845E-02   -0.24214E-02  1536   0.498E-01    0.391E-01
DAV:   4    -0.481720589775E+03    0.14149E-02   -0.33195E-03  1528   0.176E-01    0.226E-01
DAV:   5    -0.481720332761E+03    0.25701E-03   -0.22209E-03  1608   0.139E-01    0.145E-01
DAV:   6    -0.481720200080E+03    0.13268E-03   -0.50879E-04  1600   0.762E-02    0.351E-02
DAV:   7    -0.481720212387E+03   -0.12307E-04   -0.67631E-05  1360   0.237E-02    0.217E-02
DAV:   8    -0.481720224026E+03   -0.11639E-04   -0.17410E-05  1008   0.128E-02    0.977E-03
DAV:   9    -0.481720236467E+03   -0.12441E-04   -0.52087E-06   960   0.672E-03    0.300E-03
DAV:  10    -0.481720245047E+03   -0.85805E-05   -0.14957E-06   952   0.335E-03
  23 F= -.48172025E+03 E0= -.48171407E+03  d E =-.477117E-01
 trial-energy change:   -0.047712  1 .order   -0.047530   -0.056672   -0.038387
 step:   2.9518(harm=  3.2689)  dis= 0.09935  next Energy=  -481.755831 (dE=-0.833E-01)
 bond charge predicted
       N       E                     dE             d eps       ncg     rms          rms(c)
DAV:   1    -0.481705245635E+03    0.14991E-01   -0.58404E+01  1408   0.150E+01    0.109E+00
DAV:   2    -0.481791660377E+03   -0.86415E-01   -0.75612E-01  1592   0.216E+00    0.166E+00
DAV:   3    -0.481764782696E+03    0.26878E-01   -0.78715E-02  1544   0.907E-01    0.662E-01
DAV:   4    -0.481760825037E+03    0.39577E-02   -0.10507E-02  1552   0.313E-01    0.411E-01
DAV:   5    -0.481760112246E+03    0.71279E-03   -0.70538E-03  1608   0.260E-01    0.300E-01
DAV:   6    -0.481759468037E+03    0.64421E-03   -0.18176E-03  1576   0.149E-01    0.646E-02
DAV:   7    -0.481759490945E+03   -0.22908E-04   -0.23603E-04  1536   0.460E-02    0.407E-02
DAV:   8    -0.481759513060E+03   -0.22115E-04   -0.56494E-05  1288   0.224E-02    0.177E-02
DAV:   9    -0.481759544214E+03   -0.31154E-04   -0.13121E-05  1000   0.107E-02    0.483E-03
DAV:  10    -0.481759566366E+03   -0.22152E-04   -0.32471E-06   968   0.516E-03    0.293E-03
DAV:  11    -0.481759591914E+03   -0.25548E-04   -0.24477E-06   952   0.377E-03    0.160E-03
DAV:  12    -0.481759612268E+03   -0.20353E-04   -0.21307E-06   968   0.285E-03    0.123E-03
DAV:  13    -0.481759625405E+03   -0.13137E-04   -0.14344E-06   968   0.208E-03    0.131E-03
DAV:  14    -0.481759636807E+03   -0.11402E-04   -0.15930E-06  1016   0.167E-03    0.564E-04
DAV:  15    -0.481759641157E+03   -0.43507E-05   -0.78532E-07   992   0.125E-03
  24 F= -.48175964E+03 E0= -.48175423E+03  d E =-.871078E-01
 curvature:  -9.56 expect dE=-0.438E+00 dE for cont linesearch -0.723E-03
 trial: gam= 0.74142 g(F)=  0.453E-01 g(S)=  0.530E-03 ort = 0.493E-02 (trialstep = 0.143E+01)
 search vector abs. value=  0.229E+00
 bond charge predicted
       N       E                     dE             d eps       ncg     rms          rms(c)
DAV:   1    -0.481790917295E+03   -0.31280E-01   -0.24036E+01  1408   0.945E+00    0.637E-01
DAV:   2    -0.481818243257E+03   -0.27326E-01   -0.30160E-01  1624   0.129E+00    0.592E-01
DAV:   3    -0.481817857400E+03    0.38586E-03   -0.18829E-02  1584   0.422E-01    0.591E-01
DAV:   4    -0.481814861174E+03    0.29962E-02   -0.50289E-03  1536   0.237E-01    0.260E-01
DAV:   5    -0.481814374978E+03    0.48620E-03   -0.26367E-03  1600   0.138E-01    0.114E-01
DAV:   6    -0.481814344518E+03    0.30460E-04   -0.51396E-04  1608   0.685E-02    0.403E-02
DAV:   7    -0.481814351141E+03   -0.66232E-05   -0.71282E-05  1336   0.243E-02
  25 F= -.48181435E+03 E0= -.48180845E+03  d E =-.547100E-01
 trial-energy change:   -0.054710  1 .order   -0.054711   -0.070975   -0.038446
 step:   3.1290(harm=  3.1290)  dis= 0.09124  next Energy=  -481.837072 (dE=-0.774E-01)
 bond charge predicted
       N       E                     dE             d eps       ncg     rms          rms(c)
DAV:   1    -0.481803894496E+03    0.10450E-01   -0.33594E+01  1408   0.112E+01    0.753E-01
DAV:   2    -0.481841998749E+03   -0.38104E-01   -0.42293E-01  1616   0.152E+00    0.668E-01
DAV:   3    -0.481841757135E+03    0.24161E-03   -0.25533E-02  1568   0.490E-01    0.698E-01
DAV:   4    -0.481837659035E+03    0.40981E-02   -0.69970E-03  1544   0.280E-01    0.308E-01
DAV:   5    -0.481836947466E+03    0.71157E-03   -0.35685E-03  1600   0.162E-01    0.135E-01
DAV:   6    -0.481836917307E+03    0.30160E-04   -0.74091E-04  1584   0.813E-02    0.464E-02
DAV:   7    -0.481836932003E+03   -0.14697E-04   -0.10091E-04  1408   0.288E-02    0.232E-02
DAV:   8    -0.481836944625E+03   -0.12621E-04   -0.22539E-05  1056   0.131E-02    0.966E-03
DAV:   9    -0.481836957504E+03   -0.12879E-04   -0.55537E-06   952   0.682E-03    0.403E-03
DAV:  10    -0.481836967660E+03   -0.10156E-04   -0.17062E-06   952   0.342E-03    0.170E-03
DAV:  11    -0.481836977505E+03   -0.98455E-05   -0.97219E-07   952   0.204E-03
  26 F= -.48183698E+03 E0= -.48183053E+03  d E =-.773363E-01
 curvature:  -7.25 expect dE=-0.315E+00 dE for cont linesearch -0.103E-04
 trial: gam= 1.10454 g(F)=  0.434E-01 g(S)=  0.176E-04 ort =-0.572E-03 (trialstep = 0.126E+01)
 search vector abs. value=  0.322E+00
 bond charge predicted
       N       E                     dE             d eps       ncg     rms          rms(c)
DAV:   1    -0.481853591632E+03   -0.16624E-01   -0.27403E+01  1408   0.949E+00    0.663E-01
DAV:   2    -0.481889877896E+03   -0.36286E-01   -0.34109E-01  1592   0.135E+00    0.949E-01
DAV:   3    -0.481882347723E+03    0.75302E-02   -0.28132E-02  1544   0.521E-01    0.468E-01
DAV:   4    -0.481880279463E+03    0.20683E-02   -0.43354E-03  1528   0.203E-01    0.257E-01
DAV:   5    -0.481879892158E+03    0.38731E-03   -0.32955E-03  1568   0.149E-01    0.151E-01
DAV:   6    -0.481879755921E+03    0.13624E-03   -0.58585E-04  1592   0.800E-02    0.382E-02
DAV:   7    -0.481879768949E+03   -0.13028E-04   -0.83086E-05  1400   0.244E-02    0.217E-02
DAV:   8    -0.481879776386E+03   -0.74364E-05   -0.16866E-05  1008   0.108E-02
  27 F= -.48187978E+03 E0= -.48187261E+03  d E =-.427989E-01
 trial-energy change:   -0.042799  1 .order   -0.042564   -0.053999   -0.031129
 step:   2.7778(harm=  2.9829)  dis= 0.10077  next Energy=  -481.898840 (dE=-0.619E-01)
 bond charge predicted
       N       E                     dE             d eps       ncg     rms          rms(c)
DAV:   1    -0.481863217603E+03    0.16551E-01   -0.39428E+01  1408   0.114E+01    0.798E-01
DAV:   2    -0.481915509037E+03   -0.52291E-01   -0.49173E-01  1600   0.162E+00    0.112E+00
DAV:   3    -0.481904595172E+03    0.10914E-01   -0.40386E-02  1536   0.626E-01    0.556E-01
DAV:   4    -0.481901704298E+03    0.28909E-02   -0.61880E-03  1544   0.243E-01    0.309E-01
DAV:   5    -0.481901160312E+03    0.54399E-03   -0.46525E-03  1576   0.183E-01    0.195E-01
DAV:   6    -0.481900927481E+03    0.23283E-03   -0.92254E-04  1576   0.101E-01    0.456E-02
DAV:   7    -0.481900951471E+03   -0.23990E-04   -0.12970E-04  1568   0.302E-02    0.272E-02
DAV:   8    -0.481900966652E+03   -0.15181E-04   -0.23529E-05  1016   0.127E-02    0.111E-02
DAV:   9    -0.481900986879E+03   -0.20227E-04   -0.85624E-06   960   0.736E-03    0.414E-03
DAV:  10    -0.481901000778E+03   -0.13898E-04   -0.18394E-06   952   0.372E-03    0.193E-03
DAV:  11    -0.481901013743E+03   -0.12965E-04   -0.11150E-06   928   0.217E-03    0.124E-03
DAV:  12    -0.481901026385E+03   -0.12642E-04   -0.95913E-07   944   0.171E-03    0.834E-04
DAV:  13    -0.481901035939E+03   -0.95547E-05   -0.91923E-07   968   0.136E-03
  28 F= -.48190104E+03 E0= -.48189296E+03  d E =-.640584E-01
 curvature: -11.08 expect dE=-0.511E+00 dE for cont linesearch -0.351E-03
 trial: gam= 0.83232 g(F)=  0.455E-01 g(S)=  0.668E-03 ort = 0.319E-02 (trialstep = 0.157E+01)
 search vector abs. value=  0.275E+00
 bond charge predicted
       N       E                     dE             d eps       ncg     rms          rms(c)
DAV:   1    -0.481924331981E+03   -0.23306E-01   -0.36320E+01  1408   0.107E+01    0.766E-01
DAV:   2    -0.481971382421E+03   -0.47050E-01   -0.45402E-01  1592   0.154E+00    0.104E+00
DAV:   3    -0.481962570904E+03    0.88115E-02   -0.35140E-02  1536   0.576E-01    0.546E-01
DAV:   4    -0.481959712213E+03    0.28587E-02   -0.57223E-03  1608   0.239E-01    0.303E-01
DAV:   5    -0.481959115448E+03    0.59676E-03   -0.47243E-03  1560   0.185E-01    0.177E-01
DAV:   6    -0.481958932694E+03    0.18275E-03   -0.85387E-04  1600   0.959E-02    0.449E-02
DAV:   7    -0.481958946637E+03   -0.13943E-04   -0.11752E-04  1584   0.290E-02    0.268E-02
DAV:   8    -0.481958954036E+03   -0.73992E-05   -0.22440E-05  1000   0.136E-02
  29 F= -.48195895E+03 E0= -.48195060E+03  d E =-.579181E-01
 trial-energy change:   -0.057918  1 .order   -0.057556   -0.076462   -0.038650
 step:   3.0080(harm=  3.1672)  dis= 0.10193  next Energy=  -481.977026 (dE=-0.760E-01)
 bond charge predicted
       N       E                     dE             d eps       ncg     rms          rms(c)
DAV:   1    -0.481948767693E+03    0.10179E-01   -0.30746E+01  1408   0.986E+00    0.697E-01
DAV:   2    -0.481987853513E+03   -0.39086E-01   -0.38248E-01  1584   0.141E+00    0.926E-01
DAV:   3    -0.481981267855E+03    0.65857E-02   -0.28391E-02  1536   0.517E-01    0.513E-01
DAV:   4    -0.481978755608E+03    0.25122E-02   -0.47975E-03  1608   0.221E-01    0.278E-01
DAV:   5    -0.481978237924E+03    0.51768E-03   -0.40574E-03  1544   0.169E-01    0.155E-01
DAV:   6    -0.481978113012E+03    0.12491E-03   -0.68976E-04  1552   0.855E-02    0.411E-02
DAV:   7    -0.481978131988E+03   -0.18976E-04   -0.95571E-05  1560   0.262E-02    0.244E-02
DAV:   8    -0.481978145858E+03   -0.13870E-04   -0.18998E-05  1008   0.124E-02    0.104E-02
DAV:   9    -0.481978161054E+03   -0.15196E-04   -0.65098E-06   992   0.681E-03    0.391E-03
DAV:  10    -0.481978171964E+03   -0.10910E-04   -0.14257E-06   960   0.342E-03    0.169E-03
DAV:  11    -0.481978182176E+03   -0.10212E-04   -0.91003E-07   952   0.206E-03    0.105E-03
DAV:  12    -0.481978191600E+03   -0.94248E-05   -0.66007E-07   952   0.140E-03
  30 F= -.48197819E+03 E0= -.48196947E+03  d E =-.771557E-01
 curvature:  -8.82 expect dE=-0.318E+00 dE for cont linesearch -0.123E-03
 trial: gam= 0.83616 g(F)=  0.352E-01 g(S)=  0.759E-03 ort = 0.196E-02 (trialstep = 0.185E+01)
 search vector abs. value=  0.231E+00
 bond charge predicted
       N       E                     dE             d eps       ncg     rms          rms(c)
DAV:   1    -0.481988545392E+03   -0.10363E-01   -0.43259E+01  1416   0.114E+01    0.838E-01
DAV:   2    -0.482040148328E+03   -0.51603E-01   -0.53900E-01  1568   0.163E+00    0.101E+00
DAV:   3    -0.482032823697E+03    0.73246E-02   -0.38624E-02  1560   0.607E-01    0.639E-01
DAV:   4    -0.482028885868E+03    0.39378E-02   -0.76906E-03  1536   0.275E-01    0.318E-01
DAV:   5    -0.482028075867E+03    0.81000E-03   -0.53551E-03  1608   0.193E-01    0.173E-01
DAV:   6    -0.482027905805E+03    0.17006E-03   -0.95094E-04  1576   0.975E-02    0.504E-02
DAV:   7    -0.482027917916E+03   -0.12111E-04   -0.13222E-04  1632   0.311E-02    0.275E-02
DAV:   8    -0.482027933668E+03   -0.15752E-04   -0.25077E-05  1008   0.146E-02    0.109E-02
DAV:   9    -0.482027949162E+03   -0.15495E-04   -0.76550E-06   992   0.757E-03    0.441E-03
DAV:  10    -0.482027961094E+03   -0.11932E-04   -0.19044E-06   968   0.386E-03    0.240E-03
DAV:  11    -0.482027972962E+03   -0.11867E-04   -0.12014E-06   952   0.238E-03    0.124E-03
DAV:  12    -0.482027982824E+03   -0.98621E-05   -0.82004E-07   952   0.165E-03
  31 F= -.48202798E+03 E0= -.48201850E+03  d E =-.497912E-01
 trial-energy change:   -0.049791  1 .order   -0.049702   -0.069813   -0.029592
 step:   3.2191(harm=  3.2191)  dis= 0.10194  next Energy=  -482.038780 (dE=-0.606E-01)
 bond charge predicted
       N       E                     dE             d eps       ncg     rms          rms(c)
DAV:   1    -0.482017584084E+03    0.10389E-01   -0.23356E+01  1416   0.834E+00    0.607E-01
DAV:   2    -0.482044969426E+03   -0.27385E-01   -0.28919E-01  1584   0.119E+00    0.728E-01
DAV:   3    -0.482041582606E+03    0.33868E-02   -0.20118E-02  1544   0.435E-01    0.480E-01
DAV:   4    -0.482039341916E+03    0.22407E-02   -0.41333E-03  1536   0.202E-01    0.231E-01
DAV:   5    -0.482038907518E+03    0.43440E-03   -0.29782E-03  1600   0.137E-01    0.112E-01
DAV:   6    -0.482038849539E+03    0.57980E-04   -0.45228E-04  1584   0.668E-02    0.374E-02
DAV:   7    -0.482038858139E+03   -0.86003E-05   -0.65934E-05  1384   0.221E-02
  32 F= -.48203886E+03 E0= -.48202881E+03  d E =-.606665E-01
 curvature:  -9.89 expect dE=-0.450E+00 dE for cont linesearch -0.117E-06
 trial: gam= 1.24987 g(F)=  0.451E-01 g(S)=  0.463E-03 ort =-0.524E-04 (trialstep = 0.121E+01)
 search vector abs. value=  0.407E+00
 bond charge predicted
       N       E                     dE             d eps       ncg     rms          rms(c)
DAV:   1    -0.482053242254E+03   -0.14393E-01   -0.32429E+01  1424   0.979E+00    0.682E-01
DAV:   2    -0.482094088657E+03   -0.40846E-01   -0.39799E-01  1600   0.138E+00    0.939E-01
DAV:   3    -0.482086766064E+03    0.73226E-02   -0.28442E-02  1544   0.516E-01    0.488E-01
DAV:   4    -0.482084415761E+03    0.23503E-02   -0.46839E-03  1544   0.200E-01    0.263E-01
DAV:   5    -0.482083960889E+03    0.45487E-03   -0.43094E-03  1560   0.162E-01    0.151E-01
DAV:   6    -0.482083816995E+03    0.14389E-03   -0.62359E-04  1616   0.830E-02    0.389E-02
DAV:   7    -0.482083828561E+03   -0.11565E-04   -0.90510E-05  1528   0.254E-02    0.219E-02
DAV:   8    -0.482083841000E+03   -0.12439E-04   -0.19257E-05  1016   0.128E-02    0.105E-02
DAV:   9    -0.482083854233E+03   -0.13233E-04   -0.60530E-06   976   0.663E-03    0.428E-03
DAV:  10    -0.482083863717E+03   -0.94841E-05   -0.13662E-06   952   0.332E-03
  33 F= -.48208386E+03 E0= -.48207405E+03  d E =-.450056E-01
 trial-energy change:   -0.045006  1 .order   -0.044714   -0.055032   -0.034396
 step:   2.8869(harm=  3.2263)  dis= 0.12218  next Energy=  -482.108482 (dE=-0.696E-01)
 bond charge predicted
       N       E                     dE             d eps       ncg     rms          rms(c)
DAV:   1    -0.482052076023E+03    0.31778E-01   -0.62533E+01  1416   0.136E+01    0.947E-01
DAV:   2    -0.482130104113E+03   -0.78028E-01   -0.76713E-01  1592   0.191E+00    0.124E+00
DAV:   3    -0.482116728929E+03    0.13375E-01   -0.53796E-02  1560   0.708E-01    0.672E-01
DAV:   4    -0.482112332879E+03    0.43961E-02   -0.88865E-03  1552   0.277E-01    0.364E-01
DAV:   5    -0.482111473606E+03    0.85927E-03   -0.79549E-03  1560   0.229E-01    0.234E-01
DAV:   6    -0.482111093584E+03    0.38002E-03   -0.13355E-03  1568   0.123E-01    0.532E-02
DAV:   7    -0.482111107012E+03   -0.13428E-04   -0.18614E-04  1616   0.364E-02    0.309E-02
DAV:   8    -0.482111122532E+03   -0.15520E-04   -0.37879E-05  1144   0.177E-02    0.146E-02
DAV:   9    -0.482111142064E+03   -0.19532E-04   -0.10700E-05   976   0.906E-03    0.622E-03
DAV:  10    -0.482111156180E+03   -0.14116E-04   -0.23785E-06   944   0.449E-03    0.276E-03
DAV:  11    -0.482111170730E+03   -0.14551E-04   -0.15117E-06   936   0.282E-03    0.144E-03
DAV:  12    -0.482111183281E+03   -0.12551E-04   -0.11875E-06   944   0.205E-03    0.106E-03
DAV:  13    -0.482111191513E+03   -0.82320E-05   -0.80730E-07   952   0.150E-03
  34 F= -.48211119E+03 E0= -.48210164E+03  d E =-.723334E-01
 curvature: -14.01 expect dE=-0.494E+00 dE for cont linesearch -0.631E-03
 trial: gam= 0.60971 g(F)=  0.336E-01 g(S)=  0.165E-02 ort = 0.428E-02 (trialstep = 0.155E+01)
 search vector abs. value=  0.192E+00
 bond charge predicted
       N       E                     dE             d eps       ncg     rms          rms(c)
DAV:   1    -0.482128147026E+03   -0.16964E-01   -0.23814E+01  1440   0.904E+00    0.598E-01
DAV:   2    -0.482154427343E+03   -0.26280E-01   -0.29940E-01  1600   0.125E+00    0.482E-01
DAV:   3    -0.482154458005E+03   -0.30663E-04   -0.14824E-02  1592   0.355E-01    0.476E-01
DAV:   4    -0.482152635915E+03    0.18221E-02   -0.39024E-03  1536   0.211E-01    0.285E-01
DAV:   5    -0.482151984058E+03    0.65186E-03   -0.24545E-03  1536   0.137E-01    0.106E-01
DAV:   6    -0.482151986977E+03   -0.29191E-05   -0.61077E-04  1592   0.713E-02    0.465E-02
DAV:   7    -0.482151982936E+03    0.40415E-05   -0.10245E-04  1536   0.300E-02    0.238E-02
DAV:   8    -0.482151982834E+03    0.10131E-06   -0.18332E-05  1024   0.121E-02
  35 F= -.48215198E+03 E0= -.48214199E+03  d E =-.407913E-01
 trial-energy change:   -0.040791  1 .order   -0.040608   -0.058447   -0.022769
 step:   2.4847(harm=  2.5314)  dis= 0.06923  next Energy=  -482.158946 (dE=-0.478E-01)
 bond charge predicted
       N       E                     dE             d eps       ncg     rms          rms(c)
DAV:   1    -0.482150609136E+03    0.13738E-02   -0.87856E+00  1432   0.549E+00    0.363E-01
DAV:   2    -0.482160423607E+03   -0.98145E-02   -0.11083E-01  1592   0.763E-01    0.313E-01
DAV:   3    -0.482160460097E+03   -0.36491E-04   -0.58878E-03  1576   0.226E-01    0.309E-01
DAV:   4    -0.482159634979E+03    0.82512E-03   -0.14886E-03  1536   0.130E-01    0.166E-01
DAV:   5    -0.482159419896E+03    0.21508E-03   -0.97449E-04  1536   0.832E-02    0.620E-02
DAV:   6    -0.482159426287E+03   -0.63903E-05   -0.20912E-04  1600   0.419E-02    0.267E-02
DAV:   7    -0.482159427787E+03   -0.15002E-05   -0.33629E-05  1152   0.173E-02
  36 F= -.48215943E+03 E0= -.48214923E+03  d E =-.482363E-01
 curvature:  -6.40 expect dE=-0.121E+00 dE for cont linesearch -0.453E-04
 trial: gam= 0.59962 g(F)=  0.190E-01 g(S)=  0.596E-05 ort = 0.116E-02 (trialstep = 0.173E+01)
 search vector abs. value=  0.893E-01
 bond charge predicted
       N       E                     dE             d eps       ncg     rms          rms(c)
DAV:   1    -0.482169515844E+03   -0.10090E-01   -0.13453E+01  1448   0.713E+00    0.490E-01
DAV:   2    -0.482185678634E+03   -0.16163E-01   -0.17449E-01  1584   0.975E-01    0.508E-01
DAV:   3    -0.482185263288E+03    0.41535E-03   -0.11610E-02  1552   0.330E-01    0.420E-01
DAV:   4    -0.482183585235E+03    0.16781E-02   -0.26998E-03  1528   0.175E-01    0.198E-01
DAV:   5    -0.482183362020E+03    0.22322E-03   -0.16731E-03  1592   0.104E-01    0.686E-02
DAV:   6    -0.482183386363E+03   -0.24342E-04   -0.27047E-04  1616   0.475E-02    0.323E-02
DAV:   7    -0.482183388420E+03   -0.20579E-05   -0.36464E-05  1192   0.179E-02
  37 F= -.48218339E+03 E0= -.48217319E+03  d E =-.239606E-01
 trial-energy change:   -0.023961  1 .order   -0.023698   -0.034116   -0.013279
 step:   2.7202(harm=  2.8376)  dis= 0.04972  next Energy=  -482.187218 (dE=-0.278E-01)
 bond charge predicted
       N       E                     dE             d eps       ncg     rms          rms(c)
DAV:   1    -0.482183136710E+03    0.24965E-03   -0.43588E+00  1448   0.406E+00    0.280E-01
DAV:   2    -0.482188415543E+03   -0.52788E-02   -0.56761E-02  1584   0.556E-01    0.289E-01
DAV:   3    -0.482188257918E+03    0.15763E-03   -0.37727E-03  1544   0.188E-01    0.240E-01
DAV:   4    -0.482187720851E+03    0.53707E-03   -0.88176E-04  1536   0.100E-01    0.113E-01
DAV:   5    -0.482187648134E+03    0.72717E-04   -0.54661E-04  1560   0.602E-02    0.413E-02
DAV:   6    -0.482187657015E+03   -0.88816E-05   -0.91153E-05  1480   0.280E-02
  38 F= -.48218766E+03 E0= -.48217737E+03  d E =-.282292E-01
 curvature:  -6.36 expect dE=-0.106E+00 dE for cont linesearch -0.479E-04
 trial: gam= 0.83562 g(F)=  0.163E-01 g(S)=  0.332E-03 ort = 0.820E-03 (trialstep = 0.193E+01)
 search vector abs. value=  0.803E-01
 bond charge predicted
       N       E                     dE             d eps       ncg     rms          rms(c)
DAV:   1    -0.482194519043E+03   -0.68709E-02   -0.14485E+01  1448   0.770E+00    0.535E-01
DAV:   2    -0.482210959466E+03   -0.16440E-01   -0.19329E-01  1584   0.101E+00    0.354E-01
DAV:   3    -0.482210574489E+03    0.38498E-03   -0.77166E-03  1632   0.245E-01    0.295E-01
DAV:   4    -0.482210746749E+03   -0.17226E-03   -0.28657E-03  1528   0.176E-01    0.328E-01
DAV:   5    -0.482209984225E+03    0.76252E-03   -0.15340E-03  1544   0.131E-01    0.829E-02
DAV:   6    -0.482210007683E+03   -0.23458E-04   -0.41158E-04  1536   0.571E-02    0.363E-02
DAV:   7    -0.482209999970E+03    0.77133E-05   -0.59996E-05  1376   0.231E-02
  39 F= -.48221000E+03 E0= -.48220024E+03  d E =-.223430E-01
 trial-energy change:   -0.022343  1 .order   -0.022297   -0.033346   -0.011247
 step:   2.9130(harm=  2.9130)  dis= 0.04809  next Energy=  -482.212815 (dE=-0.252E-01)
 bond charge predicted
       N       E                     dE             d eps       ncg     rms          rms(c)
DAV:   1    -0.482208867931E+03    0.11398E-02   -0.37481E+00  1448   0.392E+00    0.272E-01
DAV:   2    -0.482213150432E+03   -0.42825E-02   -0.50116E-02  1600   0.515E-01    0.179E-01
DAV:   3    -0.482213054533E+03    0.95899E-04   -0.19723E-03  1624   0.123E-01    0.149E-01
DAV:   4    -0.482213105981E+03   -0.51448E-04   -0.73474E-04  1528   0.885E-02    0.165E-01
DAV:   5    -0.482212903896E+03    0.20209E-03   -0.39628E-04  1528   0.662E-02    0.403E-02
DAV:   6    -0.482212916216E+03   -0.12320E-04   -0.10293E-04  1520   0.283E-02    0.178E-02
DAV:   7    -0.482212915661E+03    0.55516E-06   -0.13630E-05  1000   0.115E-02
  40 F= -.48221292E+03 E0= -.48220335E+03  d E =-.252586E-01
 curvature:  -6.77 expect dE=-0.761E-01 dE for cont linesearch -0.194E-07
 trial: gam= 0.74505 g(F)=  0.112E-01 g(S)=  0.397E-04 ort = 0.152E-04 (trialstep = 0.213E+01)
 search vector abs. value=  0.558E-01
 bond charge predicted
       N       E                     dE             d eps       ncg     rms          rms(c)
DAV:   1    -0.482214500818E+03   -0.15846E-02   -0.12048E+01  1456   0.725E+00    0.484E-01
DAV:   2    -0.482227834522E+03   -0.13334E-01   -0.16068E-01  1600   0.959E-01    0.352E-01
DAV:   3    -0.482228126843E+03   -0.29232E-03   -0.87522E-03  1592   0.282E-01    0.370E-01
DAV:   4    -0.482227144296E+03    0.98255E-03   -0.26023E-03  1560   0.173E-01    0.220E-01
DAV:   5    -0.482226935121E+03    0.20917E-03   -0.10271E-03  1552   0.985E-02    0.811E-02
DAV:   6    -0.482226969183E+03   -0.34062E-04   -0.33335E-04  1624   0.543E-02    0.325E-02
DAV:   7    -0.482226966911E+03    0.22721E-05   -0.58725E-05  1352   0.226E-02
  41 F= -.48222697E+03 E0= -.48221756E+03  d E =-.140513E-01
 trial-energy change:   -0.014051  1 .order   -0.013957   -0.023935   -0.003978
 step:   2.5371(harm=  2.5510)  dis= 0.03408  next Energy=  -482.227351 (dE=-0.144E-01)
 bond charge predicted
       N       E                     dE             d eps       ncg     rms          rms(c)
DAV:   1    -0.482226911611E+03    0.57572E-04   -0.44751E-01  1456   0.140E+00    0.946E-02
DAV:   2    -0.482227419876E+03   -0.50826E-03   -0.60483E-03  1608   0.185E-01    0.657E-02
DAV:   3    -0.482227432978E+03   -0.13102E-04   -0.31352E-04  1624   0.529E-02    0.711E-02
DAV:   4    -0.482227402630E+03    0.30348E-04   -0.94719E-05  1248   0.329E-02    0.432E-02
DAV:   5    -0.482227398092E+03    0.45376E-05   -0.38992E-05  1096   0.200E-02
  42 F= -.48222740E+03 E0= -.48221804E+03  d E =-.144824E-01
 curvature:  -6.32 expect dE=-0.539E-01 dE for cont linesearch -0.420E-05
 trial: gam= 0.70331 g(F)=  0.849E-02 g(S)=  0.411E-04 ort = 0.193E-03 (trialstep = 0.221E+01)
 search vector abs. value=  0.364E-01
 bond charge predicted
       N       E                     dE             d eps       ncg     rms          rms(c)
DAV:   1    -0.482231680070E+03   -0.42774E-02   -0.82237E+00  1464   0.618E+00    0.412E-01
DAV:   2    -0.482240951629E+03   -0.92716E-02   -0.11083E-01  1640   0.807E-01    0.259E-01
DAV:   3    -0.482240513088E+03    0.43854E-03   -0.38463E-03  1664   0.174E-01    0.180E-01
DAV:   4    -0.482240848221E+03   -0.33513E-03   -0.13456E-03  1544   0.120E-01    0.232E-01
DAV:   5    -0.482240466616E+03    0.38161E-03   -0.87363E-04  1528   0.986E-02    0.903E-02
DAV:   6    -0.482240455151E+03    0.11465E-04   -0.21584E-04  1528   0.471E-02    0.251E-02
DAV:   7    -0.482240452730E+03    0.24203E-05   -0.30855E-05  1160   0.167E-02
  43 F= -.48224045E+03 E0= -.48223110E+03  d E =-.130546E-01
 trial-energy change:   -0.013055  1 .order   -0.012990   -0.019140   -0.006840
 step:   3.3809(harm=  3.4374)  dis= 0.03528  next Energy=  -482.242277 (dE=-0.149E-01)
 bond charge predicted
       N       E                     dE             d eps       ncg     rms          rms(c)
DAV:   1    -0.482239906935E+03    0.54822E-03   -0.23139E+00  1456   0.328E+00    0.218E-01
DAV:   2    -0.482242537080E+03   -0.26301E-02   -0.31475E-02  1640   0.429E-01    0.137E-01
DAV:   3    -0.482242416948E+03    0.12013E-03   -0.10823E-03  1664   0.914E-02    0.935E-02
DAV:   4    -0.482242482636E+03   -0.65687E-04   -0.33851E-04  1552   0.595E-02    0.103E-01
DAV:   5    -0.482242424521E+03    0.58115E-04   -0.21676E-04  1448   0.491E-02    0.542E-02
DAV:   6    -0.482242413847E+03    0.10673E-04   -0.59421E-05  1192   0.260E-02    0.126E-02
DAV:   7    -0.482242414524E+03   -0.67666E-06   -0.87822E-06   976   0.924E-03
  44 F= -.48224241E+03 E0= -.48223307E+03  d E =-.150164E-01
 curvature:  -7.21 expect dE=-0.736E-01 dE for cont linesearch -0.764E-05
 trial: gam= 1.20874 g(F)=  0.994E-02 g(S)=  0.265E-03 ort = 0.197E-03 (trialstep = 0.139E+01)
 search vector abs. value=  0.639E-01
 bond charge predicted
       N       E                     dE             d eps       ncg     rms          rms(c)
DAV:   1    -0.482248116931E+03   -0.57031E-02   -0.57331E+00  1464   0.519E+00    0.337E-01
DAV:   2    -0.482254663279E+03   -0.65463E-02   -0.75575E-02  1592   0.665E-01    0.294E-01
DAV:   3    -0.482254668331E+03   -0.50526E-05   -0.43509E-03  1552   0.207E-01    0.294E-01
DAV:   4    -0.482253976084E+03    0.69225E-03   -0.11948E-03  1512   0.122E-01    0.137E-01
DAV:   5    -0.482253977494E+03   -0.14096E-05   -0.57954E-04  1624   0.687E-02    0.520E-02
DAV:   6    -0.482253999508E+03   -0.22014E-04   -0.11330E-04  1544   0.335E-02    0.206E-02
DAV:   7    -0.482254001869E+03   -0.23614E-05   -0.16276E-05  1000   0.123E-02
  45 F= -.48225400E+03 E0= -.48224479E+03  d E =-.115873E-01
 trial-energy change:   -0.011587  1 .order   -0.011540   -0.014549   -0.008532
 step:   3.1771(harm=  3.3674)  dis= 0.04279  next Energy=  -482.259566 (dE=-0.172E-01)
 bond charge predicted
       N       E                     dE             d eps       ncg     rms          rms(c)
DAV:   1    -0.482250282808E+03    0.37167E-02   -0.94134E+00  1472   0.665E+00    0.433E-01
DAV:   2    -0.482261048132E+03   -0.10765E-01   -0.12424E-01  1600   0.852E-01    0.370E-01
DAV:   3    -0.482261088580E+03   -0.40448E-04   -0.70498E-03  1544   0.263E-01    0.377E-01
DAV:   4    -0.482259955605E+03    0.11330E-02   -0.19715E-03  1528   0.156E-01    0.177E-01
DAV:   5    -0.482259925476E+03    0.30129E-04   -0.93602E-04  1632   0.880E-02    0.672E-02
DAV:   6    -0.482259958011E+03   -0.32535E-04   -0.18942E-04  1592   0.430E-02    0.261E-02
DAV:   7    -0.482259962676E+03   -0.46656E-05   -0.27329E-05  1096   0.157E-02
  46 F= -.48225996E+03 E0= -.48225097E+03  d E =-.175482E-01
 curvature: -10.20 expect dE=-0.859E-01 dE for cont linesearch -0.462E-04
 trial: gam= 0.77898 g(F)=  0.802E-02 g(S)=  0.392E-03 ort = 0.538E-03 (trialstep = 0.175E+01)
 search vector abs. value=  0.480E-01
 bond charge predicted
       N       E                     dE             d eps       ncg     rms          rms(c)
DAV:   1    -0.482265294841E+03   -0.53368E-02   -0.67140E+00  1424   0.565E+00    0.447E-01
DAV:   2    -0.482274737006E+03   -0.94422E-02   -0.96864E-02  1592   0.794E-01    0.586E-01
DAV:   3    -0.482272114988E+03    0.26220E-02   -0.98134E-03  1512   0.327E-01    0.312E-01
DAV:   4    -0.482271333164E+03    0.78182E-03   -0.16655E-03  1504   0.142E-01    0.148E-01
DAV:   5    -0.482271334245E+03   -0.10816E-05   -0.86645E-04  1640   0.853E-02    0.710E-02
DAV:   6    -0.482271322657E+03    0.11589E-04   -0.16395E-04  1568   0.434E-02    0.246E-02
DAV:   7    -0.482271327722E+03   -0.50653E-05   -0.23252E-05  1048   0.144E-02
  47 F= -.48227133E+03 E0= -.48226227E+03  d E =-.113650E-01
 trial-energy change:   -0.011365  1 .order   -0.011332   -0.015458   -0.007206
 step:   3.2776(harm=  3.2776)  dis= 0.03631  next Energy=  -482.274441 (dE=-0.145E-01)
 bond charge predicted
       N       E                     dE             d eps       ncg     rms          rms(c)
DAV:   1    -0.482269800215E+03    0.15224E-02   -0.51206E+00  1408   0.494E+00    0.390E-01
DAV:   2    -0.482277014615E+03   -0.72144E-02   -0.74121E-02  1600   0.693E-01    0.513E-01
DAV:   3    -0.482275044734E+03    0.19699E-02   -0.74809E-03  1512   0.285E-01    0.274E-01
DAV:   4    -0.482274435871E+03    0.60886E-03   -0.12723E-03  1496   0.124E-01    0.130E-01
DAV:   5    -0.482274440607E+03   -0.47361E-05   -0.66620E-04  1624   0.741E-02    0.606E-02
DAV:   6    -0.482274435206E+03    0.54003E-05   -0.12214E-04  1536   0.373E-02    0.215E-02
DAV:   7    -0.482274440150E+03   -0.49435E-05   -0.17502E-05   984   0.125E-02
  48 F= -.48227444E+03 E0= -.48226534E+03  d E =-.144775E-01
 curvature:  -8.91 expect dE=-0.799E-01 dE for cont linesearch -0.173E-05
 trial: gam= 1.17225 g(F)=  0.887E-02 g(S)=  0.990E-04 ort =-0.965E-04 (trialstep = 0.132E+01)
 search vector abs. value=  0.747E-01
 bond charge predicted
       N       E                     dE             d eps       ncg     rms          rms(c)
DAV:   1    -0.482277485321E+03   -0.30501E-02   -0.60251E+00  1408   0.531E+00    0.371E-01
DAV:   2    -0.482284972086E+03   -0.74868E-02   -0.81788E-02  1600   0.708E-01    0.416E-01
DAV:   3    -0.482284107006E+03    0.86508E-03   -0.62875E-03  1528   0.257E-01    0.297E-01
DAV:   4    -0.482283387281E+03    0.71972E-03   -0.13165E-03  1496   0.128E-01    0.137E-01
DAV:   5    -0.482283393339E+03   -0.60573E-05   -0.67910E-04  1552   0.747E-02    0.582E-02
DAV:   6    -0.482283399716E+03   -0.63776E-05   -0.12264E-04  1568   0.365E-02    0.207E-02
DAV:   7    -0.482283403805E+03   -0.40891E-05   -0.17191E-05   984   0.125E-02
  49 F= -.48228340E+03 E0= -.48227431E+03  d E =-.896366E-02
 trial-energy change:   -0.008964  1 .order   -0.008925   -0.011696   -0.006154
 step:   2.7871(harm=  2.7871)  dis= 0.03761  next Energy=  -482.286782 (dE=-0.123E-01)
 bond charge predicted
       N       E                     dE             d eps       ncg     rms          rms(c)
DAV:   1    -0.482279863566E+03    0.35362E-02   -0.74313E+00  1408   0.590E+00    0.414E-01
DAV:   2    -0.482289141787E+03   -0.92782E-02   -0.10104E-01  1592   0.788E-01    0.465E-01
DAV:   3    -0.482288037637E+03    0.11042E-02   -0.78194E-03  1536   0.287E-01    0.330E-01
DAV:   4    -0.482287151016E+03    0.88662E-03   -0.16300E-03  1496   0.143E-01    0.152E-01
DAV:   5    -0.482287148519E+03    0.24974E-05   -0.83732E-04  1576   0.836E-02    0.663E-02
DAV:   6    -0.482287150924E+03   -0.24055E-05   -0.15544E-04  1584   0.411E-02    0.230E-02
DAV:   7    -0.482287155716E+03   -0.47916E-05   -0.21335E-05   984   0.139E-02
  50 F= -.48228716E+03 E0= -.48227805E+03  d E =-.127156E-01
 curvature: -11.76 expect dE=-0.104E+00 dE for cont linesearch -0.209E-04
 trial: gam= 0.88106 g(F)=  0.820E-02 g(S)=  0.661E-03 ort = 0.364E-03 (trialstep = 0.161E+01)
 search vector abs. value=  0.675E-01
 bond charge predicted
       N       E                     dE             d eps       ncg     rms          rms(c)
DAV:   1    -0.482289438363E+03   -0.22874E-02   -0.81866E+00  1408   0.620E+00    0.375E-01
DAV:   2    -0.482298722012E+03   -0.92836E-02   -0.10673E-01  1560   0.791E-01    0.281E-01
DAV:   3    -0.482298752355E+03   -0.30343E-04   -0.46580E-03  1584   0.211E-01    0.280E-01
DAV:   4    -0.482298302887E+03    0.44947E-03   -0.14589E-03  1520   0.130E-01    0.182E-01
DAV:   5    -0.482298191339E+03    0.11155E-03   -0.71947E-04  1600   0.860E-02    0.627E-02
DAV:   6    -0.482298220194E+03   -0.28855E-04   -0.18431E-04  1560   0.405E-02    0.250E-02
DAV:   7    -0.482298221746E+03   -0.15522E-05   -0.22294E-05  1024   0.150E-02
  51 F= -.48229822E+03 E0= -.48228932E+03  d E =-.110660E-01
 trial-energy change:   -0.011066  1 .order   -0.011023   -0.014818   -0.007227
 step:   3.0570(harm=  3.1504)  dis= 0.03766  next Energy=  -482.301484 (dE=-0.143E-01)
 bond charge predicted
       N       E                     dE             d eps       ncg     rms          rms(c)
DAV:   1    -0.482294752900E+03    0.34673E-02   -0.65459E+00  1408   0.554E+00    0.336E-01
DAV:   2    -0.482302175906E+03   -0.74230E-02   -0.85516E-02  1560   0.708E-01    0.247E-01
DAV:   3    -0.482302175478E+03    0.42752E-06   -0.36068E-03  1592   0.184E-01    0.242E-01
DAV:   4    -0.482301880342E+03    0.29514E-03   -0.11567E-03  1520   0.115E-01    0.167E-01
DAV:   5    -0.482301775663E+03    0.10468E-03   -0.57300E-04  1560   0.778E-02    0.560E-02
DAV:   6    -0.482301800672E+03   -0.25009E-04   -0.14839E-04  1576   0.363E-02    0.223E-02
DAV:   7    -0.482301802536E+03   -0.18641E-05   -0.17887E-05   984   0.135E-02
  52 F= -.48230180E+03 E0= -.48229302E+03  d E =-.146468E-01
 curvature: -11.54 expect dE=-0.795E-01 dE for cont linesearch -0.267E-04
 trial: gam= 0.79029 g(F)=  0.689E-02 g(S)=  0.507E-06 ort = 0.396E-03 (trialstep = 0.190E+01)
 search vector abs. value=  0.497E-01
 bond charge predicted
       N       E                     dE             d eps       ncg     rms          rms(c)
DAV:   1    -0.482302277158E+03   -0.47649E-03   -0.83871E+00  1408   0.624E+00    0.390E-01
DAV:   2    -0.482311762509E+03   -0.94854E-02   -0.11012E-01  1552   0.804E-01    0.276E-01
DAV:   3    -0.482311762743E+03   -0.23467E-06   -0.47157E-03  1600   0.209E-01    0.271E-01
DAV:   4    -0.482311452516E+03    0.31023E-03   -0.15802E-03  1528   0.134E-01    0.198E-01
DAV:   5    -0.482311274459E+03    0.17806E-03   -0.68941E-04  1528   0.892E-02    0.654E-02
DAV:   6    -0.482311304844E+03   -0.30385E-04   -0.20137E-04  1592   0.420E-02    0.252E-02
DAV:   7    -0.482311304224E+03    0.61987E-06   -0.26921E-05  1112   0.162E-02
  53 F= -.48231130E+03 E0= -.48230213E+03  d E =-.950169E-02
 trial-energy change:   -0.009502  1 .order   -0.009402   -0.013696   -0.005107
 step:   2.9241(harm=  3.0338)  dis= 0.02955  next Energy=  -482.312691 (dE=-0.109E-01)
 bond charge predicted
       N       E                     dE             d eps       ncg     rms          rms(c)
DAV:   1    -0.482310236469E+03    0.10684E-02   -0.24173E+00  1416   0.335E+00    0.210E-01
DAV:   2    -0.482312963598E+03   -0.27271E-02   -0.31629E-02  1560   0.431E-01    0.147E-01
DAV:   3    -0.482312963359E+03    0.23994E-06   -0.13309E-03  1592   0.111E-01    0.146E-01
DAV:   4    -0.482312881372E+03    0.81987E-04   -0.45643E-04  1520   0.720E-02    0.107E-01
DAV:   5    -0.482312829972E+03    0.51400E-04   -0.20134E-04  1504   0.482E-02    0.339E-02
DAV:   6    -0.482312840549E+03   -0.10576E-04   -0.55568E-05  1352   0.221E-02    0.131E-02
DAV:   7    -0.482312841320E+03   -0.77118E-06   -0.74348E-06   928   0.875E-03
  54 F= -.48231284E+03 E0= -.48230343E+03  d E =-.110388E-01
 curvature: -10.37 expect dE=-0.635E-01 dE for cont linesearch -0.216E-04
 trial: gam= 0.88179 g(F)=  0.592E-02 g(S)=  0.206E-03 ort = 0.322E-03 (trialstep = 0.211E+01)
 search vector abs. value=  0.453E-01
 bond charge predicted
       N       E                     dE             d eps       ncg     rms          rms(c)
DAV:   1    -0.482312309515E+03    0.53103E-03   -0.95185E+00  1408   0.661E+00    0.415E-01
DAV:   2    -0.482322904719E+03   -0.10595E-01   -0.12487E-01  1552   0.853E-01    0.332E-01
DAV:   3    -0.482323190677E+03   -0.28596E-03   -0.64790E-03  1576   0.245E-01    0.363E-01
DAV:   4    -0.482322252339E+03    0.93834E-03   -0.19157E-03  1520   0.151E-01    0.186E-01
DAV:   5    -0.482322167273E+03    0.85067E-04   -0.89392E-04  1576   0.924E-02    0.651E-02
DAV:   6    -0.482322191532E+03   -0.24259E-04   -0.19630E-04  1608   0.424E-02    0.259E-02
DAV:   7    -0.482322194046E+03   -0.25143E-05   -0.25630E-05  1080   0.158E-02
  55 F= -.48232219E+03 E0= -.48231285E+03  d E =-.935273E-02
 trial-energy change:   -0.009353  1 .order   -0.009299   -0.013507   -0.005090
 step:   3.3087(harm=  3.3811)  dis= 0.03075  next Energy=  -482.323656 (dE=-0.108E-01)
 bond charge predicted
       N       E                     dE             d eps       ncg     rms          rms(c)
DAV:   1    -0.482320552153E+03    0.16394E-02   -0.30972E+00  1408   0.377E+00    0.236E-01
DAV:   2    -0.482323992574E+03   -0.34404E-02   -0.40635E-02  1568   0.487E-01    0.185E-01
DAV:   3    -0.482324083794E+03   -0.91220E-04   -0.20264E-03  1584   0.136E-01    0.201E-01
DAV:   4    -0.482323800977E+03    0.28282E-03   -0.61166E-04  1520   0.851E-02    0.108E-01
DAV:   5    -0.482323776509E+03    0.24468E-04   -0.29174E-04  1544   0.528E-02    0.367E-02
DAV:   6    -0.482323786591E+03   -0.10081E-04   -0.62668E-05  1416   0.241E-02    0.153E-02
DAV:   7    -0.482323789234E+03   -0.26429E-05   -0.89229E-06   936   0.949E-03
  56 F= -.48232379E+03 E0= -.48231452E+03  d E =-.109479E-01
 curvature: -11.91 expect dE=-0.854E-01 dE for cont linesearch -0.710E-05
 trial: gam= 1.21380 g(F)=  0.717E-02 g(S)=  0.227E-05 ort = 0.164E-03 (trialstep = 0.143E+01)
 search vector abs. value=  0.744E-01
 bond charge predicted
       N       E                     dE             d eps       ncg     rms          rms(c)
DAV:   1    -0.482324588361E+03   -0.80177E-03   -0.72134E+00  1408   0.569E+00    0.355E-01
DAV:   2    -0.482332343534E+03   -0.77552E-02   -0.92722E-02  1568   0.734E-01    0.259E-01
DAV:   3    -0.482332500956E+03   -0.15742E-03   -0.42604E-03  1608   0.193E-01    0.273E-01
DAV:   4    -0.482332088087E+03    0.41287E-03   -0.13557E-03  1512   0.123E-01    0.178E-01
DAV:   5    -0.482331958342E+03    0.12975E-03   -0.56841E-04  1528   0.763E-02    0.592E-02
DAV:   6    -0.482331986482E+03   -0.28141E-04   -0.15786E-04  1608   0.365E-02    0.254E-02
DAV:   7    -0.482331987858E+03   -0.13751E-05   -0.21815E-05  1016   0.155E-02
  57 F= -.48233199E+03 E0= -.48232270E+03  d E =-.819862E-02
 trial-energy change:   -0.008199  1 .order   -0.008162   -0.010549   -0.005774
 step:   3.1612(harm=  3.1612)  dis= 0.03776  next Energy=  -482.335442 (dE=-0.117E-01)
 bond charge predicted
       N       E                     dE             d eps       ncg     rms          rms(c)
DAV:   1    -0.482324641404E+03    0.73451E-02   -0.10549E+01  1408   0.688E+00    0.431E-01
DAV:   2    -0.482336012938E+03   -0.11372E-01   -0.13594E-01  1560   0.888E-01    0.314E-01
DAV:   3    -0.482336278097E+03   -0.26516E-03   -0.62954E-03  1608   0.235E-01    0.337E-01
DAV:   4    -0.482335635687E+03    0.64241E-03   -0.20052E-03  1504   0.150E-01    0.214E-01
DAV:   5    -0.482335442663E+03    0.19302E-03   -0.82938E-04  1528   0.918E-02    0.717E-02
DAV:   6    -0.482335483915E+03   -0.41252E-04   -0.23001E-04  1608   0.440E-02    0.302E-02
DAV:   7    -0.482335486817E+03   -0.29022E-05   -0.33147E-05  1184   0.186E-02
  58 F= -.48233549E+03 E0= -.48232618E+03  d E =-.116976E-01
 curvature: -15.94 expect dE=-0.105E+00 dE for cont linesearch -0.187E-05
 trial: gam= 0.92681 g(F)=  0.640E-02 g(S)=  0.199E-03 ort =-0.935E-04 (trialstep = 0.178E+01)
 search vector abs. value=  0.703E-01
 bond charge predicted
       N       E                     dE             d eps       ncg     rms          rms(c)
DAV:   1    -0.482332398659E+03    0.30853E-02   -0.10704E+01  1408   0.693E+00    0.411E-01
DAV:   2    -0.482344271140E+03   -0.11872E-01   -0.13597E-01  1544   0.882E-01    0.304E-01
DAV:   3    -0.482344431223E+03   -0.16008E-03   -0.57608E-03  1656   0.223E-01    0.319E-01
DAV:   4    -0.482343895943E+03    0.53528E-03   -0.18121E-03  1512   0.143E-01    0.217E-01
DAV:   5    -0.482343710043E+03    0.18590E-03   -0.85366E-04  1512   0.932E-02    0.653E-02
DAV:   6    -0.482343755336E+03   -0.45293E-04   -0.23263E-04  1616   0.431E-02    0.277E-02
DAV:   7    -0.482343757061E+03   -0.17248E-05   -0.31535E-05  1160   0.176E-02
  59 F= -.48234376E+03 E0= -.48233407E+03  d E =-.827024E-02
 trial-energy change:   -0.008270  1 .order   -0.008233   -0.011581   -0.004885
 step:   3.0733(harm=  3.0733)  dis= 0.03664  next Energy=  -482.345501 (dE=-0.100E-01)
 bond charge predicted
       N       E                     dE             d eps       ncg     rms          rms(c)
DAV:   1    -0.482339612629E+03    0.41427E-02   -0.56942E+00  1408   0.505E+00    0.300E-01
DAV:   2    -0.482345943907E+03   -0.63313E-02   -0.72309E-02  1536   0.644E-01    0.226E-01
DAV:   3    -0.482346072253E+03   -0.12835E-03   -0.31894E-03  1656   0.166E-01    0.242E-01
DAV:   4    -0.482345725012E+03    0.34724E-03   -0.98599E-04  1520   0.106E-01    0.155E-01
DAV:   5    -0.482345644474E+03    0.80538E-04   -0.46015E-04  1504   0.681E-02    0.485E-02
DAV:   6    -0.482345668425E+03   -0.23951E-04   -0.12337E-04  1632   0.318E-02    0.206E-02
DAV:   7    -0.482345670437E+03   -0.20117E-05   -0.15919E-05   936   0.129E-02
  60 F= -.48234567E+03 E0= -.48233569E+03  d E =-.101836E-01
 curvature: -16.57 expect dE=-0.108E+00 dE for cont linesearch -0.475E-06
 trial: gam= 0.94428 g(F)=  0.649E-02 g(S)=  0.175E-04 ort = 0.449E-04 (trialstep = 0.204E+01)
 search vector abs. value=  0.693E-01
 bond charge predicted
       N       E                     dE             d eps       ncg     rms          rms(c)
DAV:   1    -0.482340031565E+03    0.56369E-02   -0.13865E+01  1424   0.783E+00    0.488E-01
DAV:   2    -0.482355692175E+03   -0.15661E-01   -0.17593E-01  1536   0.102E+00    0.452E-01
DAV:   3    -0.482355889896E+03   -0.19772E-03   -0.10256E-02  1560   0.311E-01    0.453E-01
DAV:   4    -0.482354364892E+03    0.15250E-02   -0.27950E-03  1528   0.182E-01    0.228E-01
DAV:   5    -0.482354251148E+03    0.11374E-03   -0.12698E-03  1592   0.111E-01    0.866E-02
DAV:   6    -0.482354279034E+03   -0.27886E-04   -0.30522E-04  1608   0.544E-02    0.319E-02
DAV:   7    -0.482354283740E+03   -0.47069E-05   -0.46036E-05  1296   0.202E-02
  61 F= -.48235428E+03 E0= -.48234431E+03  d E =-.861330E-02
 trial-energy change:   -0.008613  1 .order   -0.008566   -0.013343   -0.003788
 step:   2.8114(harm=  2.8434)  dis= 0.03422  next Energy=  -482.355007 (dE=-0.934E-02)
 bond charge predicted
       N       E                     dE             d eps       ncg     rms          rms(c)
DAV:   1    -0.482352976667E+03    0.13024E-02   -0.20083E+00  1440   0.298E+00    0.185E-01
DAV:   2    -0.482355235774E+03   -0.22591E-02   -0.25415E-02  1560   0.388E-01    0.170E-01
DAV:   3    -0.482355277370E+03   -0.41596E-04   -0.14487E-03  1560   0.117E-01    0.171E-01
DAV:   4    -0.482355053398E+03    0.22397E-03   -0.40341E-04  1528   0.695E-02    0.856E-02
DAV:   5    -0.482355046959E+03    0.64386E-05   -0.18669E-04  1520   0.417E-02    0.312E-02
DAV:   6    -0.482355054096E+03   -0.71368E-05   -0.40479E-05  1288   0.202E-02
  62 F= -.48235505E+03 E0= -.48234517E+03  d E =-.938366E-02
 curvature: -15.01 expect dE=-0.818E-01 dE for cont linesearch -0.167E-06
 trial: gam= 0.87763 g(F)=  0.515E-02 g(S)=  0.301E-03 ort =-0.277E-04 (trialstep = 0.219E+01)
 search vector abs. value=  0.588E-01
 bond charge predicted
       N       E                     dE             d eps       ncg     rms          rms(c)
DAV:   1    -0.482350030547E+03    0.50164E-02   -0.13724E+01  1424   0.771E+00    0.539E-01
DAV:   2    -0.482368176575E+03   -0.18146E-01   -0.17887E-01  1528   0.105E+00    0.771E-01
DAV:   3    -0.482364258440E+03    0.39181E-02   -0.15611E-02  1528   0.399E-01    0.393E-01
DAV:   4    -0.482363177314E+03    0.10811E-02   -0.26930E-03  1512   0.173E-01    0.226E-01
DAV:   5    -0.482363125538E+03    0.51776E-04   -0.15922E-03  1600   0.125E-01    0.110E-01
DAV:   6    -0.482363074737E+03    0.50801E-04   -0.34077E-04  1576   0.621E-02    0.328E-02
DAV:   7    -0.482363081550E+03   -0.68132E-05   -0.52131E-05  1328   0.210E-02
  63 F= -.48236308E+03 E0= -.48235248E+03  d E =-.802745E-02
 trial-energy change:   -0.008027  1 .order   -0.007960   -0.011888   -0.004033
 step:   3.2368(harm=  3.3162)  dis= 0.03752  next Energy=  -482.364051 (dE=-0.900E-02)
 bond charge predicted
       N       E                     dE             d eps       ncg     rms          rms(c)
DAV:   1    -0.482361179724E+03    0.18950E-02   -0.31231E+00  1424   0.368E+00    0.252E-01
DAV:   2    -0.482365255821E+03   -0.40761E-02   -0.40539E-02  1536   0.500E-01    0.368E-01
DAV:   3    -0.482364448323E+03    0.80750E-03   -0.34211E-03  1536   0.186E-01    0.192E-01
DAV:   4    -0.482364187485E+03    0.26084E-03   -0.60735E-04  1520   0.820E-02    0.106E-01
DAV:   5    -0.482364182701E+03    0.47840E-05   -0.37750E-04  1584   0.574E-02    0.452E-02
DAV:   6    -0.482364180165E+03    0.25368E-05   -0.66380E-05  1352   0.272E-02
  64 F= -.48236418E+03 E0= -.48235340E+03  d E =-.912607E-02
 curvature: -17.87 expect dE=-0.101E+00 dE for cont linesearch -0.135E-04
 trial: gam= 0.95982 g(F)=  0.557E-02 g(S)=  0.962E-04 ort = 0.211E-03 (trialstep = 0.234E+01)
 search vector abs. value=  0.602E-01
 bond charge predicted
       N       E                     dE             d eps       ncg     rms          rms(c)
DAV:   1    -0.482357421885E+03    0.67608E-02   -0.16102E+01  1408   0.841E+00    0.632E-01
DAV:   2    -0.482381795716E+03   -0.24374E-01   -0.21944E-01  1552   0.120E+00    0.102E+00
DAV:   3    -0.482373660868E+03    0.81348E-02   -0.23919E-02  1528   0.500E-01    0.428E-01
DAV:   4    -0.482372321334E+03    0.13395E-02   -0.35100E-03  1504   0.194E-01    0.249E-01
DAV:   5    -0.482372266014E+03    0.55319E-04   -0.20989E-03  1632   0.148E-01    0.155E-01
DAV:   6    -0.482372117806E+03    0.14821E-03   -0.52295E-04  1560   0.773E-02    0.355E-02
DAV:   7    -0.482372126815E+03   -0.90081E-05   -0.71836E-05  1352   0.239E-02
  65 F= -.48237213E+03 E0= -.48236133E+03  d E =-.794665E-02
 trial-energy change:   -0.007947  1 .order   -0.007778   -0.013739   -0.001818
 step:   2.6687(harm=  2.7002)  dis= 0.03174  next Energy=  -482.372254 (dE=-0.807E-02)
[...]
       N       E                     dE             d eps       ncg     rms          rms(c)
DAV:   1    -0.482424190851E+03    0.16300E-03   -0.13143E+00  1424   0.210E+00    0.128E-01
DAV:   2    -0.482425714863E+03   -0.15240E-02   -0.15405E-02  1560   0.280E-01    0.178E-01
DAV:   3    -0.482425546978E+03    0.16789E-03   -0.93977E-04  1512   0.921E-02    0.111E-01
DAV:   4    -0.482425441344E+03    0.10563E-03   -0.17903E-04  1432   0.416E-02    0.566E-02
DAV:   5    -0.482425426931E+03    0.14414E-04   -0.14911E-04  1560   0.326E-02    0.273E-02
DAV:   6    -0.482425423826E+03    0.31047E-05   -0.21974E-05  1048   0.157E-02
  97 F= -.48242542E+03 E0= -.48241812E+03  d E =-.107817E-02
 trial-energy change:   -0.001078  1 .order   -0.001091   -0.001558   -0.000625
 step:   3.3423(harm=  3.3423)  dis= 0.01459  next Energy=  -482.425646 (dE=-0.130E-02)
 bond charge predicted
       N       E                     dE             d eps       ncg     rms          rms(c)
DAV:   1    -0.482425077512E+03    0.34942E-03   -0.58859E-01  1408   0.140E+00    0.850E-02
DAV:   2    -0.482425755259E+03   -0.67775E-03   -0.69833E-03  1584   0.187E-01    0.108E-01
DAV:   3    -0.482425708062E+03    0.47197E-04   -0.39795E-04  1520   0.595E-02    0.767E-02
DAV:   4    -0.482425656836E+03    0.51225E-04   -0.79682E-05  1192   0.284E-02    0.377E-02
DAV:   5    -0.482425651070E+03    0.57664E-05   -0.66962E-05  1328   0.221E-02
  98 F= -.48242565E+03 E0= -.48241827E+03  d E =-.130541E-02
 curvature: -13.32 expect dE=-0.100E-01 dE for cont linesearch -0.143E-05
 trial: gam= 0.91160 g(F)=  0.742E-03 g(S)=  0.120E-04 ort = 0.258E-04 (trialstep = 0.227E+01)
 search vector abs. value=  0.596E-02
 bond charge predicted
       N       E                     dE             d eps       ncg     rms          rms(c)
DAV:   1    -0.482425246451E+03    0.41038E-03   -0.16389E+00  1408   0.227E+00    0.152E-01
DAV:   2    -0.482427231024E+03   -0.19846E-02   -0.19699E-02  1560   0.315E-01    0.220E-01
DAV:   3    -0.482426955628E+03    0.27540E-03   -0.13610E-03  1520   0.113E-01    0.129E-01
DAV:   4    -0.482426806626E+03    0.14900E-03   -0.25288E-04  1480   0.501E-02    0.638E-02
DAV:   5    -0.482426783172E+03    0.23454E-04   -0.17090E-04  1552   0.348E-02    0.315E-02
DAV:   6    -0.482426779446E+03    0.37264E-05   -0.28332E-05  1176   0.173E-02
  99 F= -.48242678E+03 E0= -.48241951E+03  d E =-.112838E-02
 trial-energy change:   -0.001128  1 .order   -0.001149   -0.001766   -0.000532
 step:   3.2491(harm=  3.2491)  dis= 0.01365  next Energy=  -482.426915 (dE=-0.126E-02)
 bond charge predicted
       N       E                     dE             d eps       ncg     rms          rms(c)
DAV:   1    -0.482426624888E+03    0.15828E-03   -0.30452E-01  1408   0.979E-01    0.674E-02
DAV:   2    -0.482427014336E+03   -0.38945E-03   -0.37051E-03  1584   0.137E-01    0.105E-01
DAV:   3    -0.482426945209E+03    0.69127E-04   -0.27392E-04  1448   0.511E-02    0.545E-02
DAV:   4    -0.482426919089E+03    0.26120E-04   -0.47265E-05  1096   0.218E-02    0.270E-02
DAV:   5    -0.482426916678E+03    0.24117E-05   -0.34096E-05  1088   0.158E-02
 100 F= -.48242692E+03 E0= -.48241954E+03  d E =-.126561E-02
 curvature: -12.44 expect dE=-0.902E-02 dE for cont linesearch -0.679E-05
 trial: gam= 0.93023 g(F)=  0.715E-03 g(S)=  0.994E-05 ort = 0.570E-04 (trialstep = 0.245E+01)
 search vector abs. value=  0.599E-02
 bond charge predicted
       N       E                     dE             d eps       ncg     rms          rms(c)
DAV:   1    -0.482426286738E+03    0.63235E-03   -0.19526E+00  1424   0.242E+00    0.140E-01
DAV:   2    -0.482428283522E+03   -0.19968E-02   -0.22291E-02  1584   0.315E-01    0.103E-01
DAV:   3    -0.482428245754E+03    0.37768E-04   -0.82227E-04  1600   0.717E-02    0.995E-02
DAV:   4    -0.482428218563E+03    0.27191E-04   -0.19011E-04  1320   0.451E-02    0.879E-02
DAV:   5    -0.482428157239E+03    0.61324E-04   -0.14823E-04  1408   0.357E-02    0.275E-02
DAV:   6    -0.482428160323E+03   -0.30839E-05   -0.40112E-05  1104   0.168E-02
 101 F= -.48242816E+03 E0= -.48242074E+03  d E =-.124365E-02
 trial-energy change:   -0.001244  1 .order   -0.001268   -0.001909   -0.000627
 step:   3.6552(harm=  3.6552)  dis= 0.01532  next Energy=  -482.428338 (dE=-0.142E-02)
 bond charge predicted
       N       E                     dE             d eps       ncg     rms          rms(c)
DAV:   1    -0.482427875606E+03    0.28163E-03   -0.46733E-01  1408   0.118E+00    0.698E-02
DAV:   2    -0.482428363851E+03   -0.48824E-03   -0.53903E-03  1584   0.155E-01    0.533E-02
DAV:   3    -0.482428364951E+03   -0.11004E-05   -0.21707E-04  1512   0.388E-02    0.601E-02
DAV:   4    -0.482428342127E+03    0.22824E-04   -0.49363E-05  1168   0.235E-02    0.366E-02
DAV:   5    -0.482428334022E+03    0.81056E-05   -0.34766E-05  1056   0.167E-02
 102 F= -.48242833E+03 E0= -.48242097E+03  d E =-.141734E-02
 curvature: -14.06 expect dE=-0.123E-01 dE for cont linesearch -0.793E-05
 trial: gam= 1.24979 g(F)=  0.862E-03 g(S)=  0.108E-04 ort = 0.581E-04 (trialstep = 0.156E+01)
 search vector abs. value=  0.104E-01
 bond charge predicted
       N       E                     dE             d eps       ncg     rms          rms(c)
DAV:   1    -0.482428095579E+03    0.24655E-03   -0.13688E+00  1408   0.198E+00    0.110E-01
DAV:   2    -0.482429520150E+03   -0.14246E-02   -0.15450E-02  1592   0.255E-01    0.869E-02
DAV:   3    -0.482429506257E+03    0.13893E-04   -0.56015E-04  1576   0.597E-02    0.881E-02
DAV:   4    -0.482429466783E+03    0.39475E-04   -0.12241E-04  1208   0.360E-02    0.662E-02
DAV:   5    -0.482429434717E+03    0.32066E-04   -0.98273E-05  1280   0.276E-02    0.225E-02
DAV:   6    -0.482429437296E+03   -0.25798E-05   -0.29980E-05  1096   0.142E-02
 103 F= -.48242944E+03 E0= -.48242204E+03  d E =-.110327E-02
 trial-energy change:   -0.001103  1 .order   -0.001129   -0.001470   -0.000788
 step:   3.3516(harm=  3.3516)  dis= 0.01906  next Energy=  -482.429918 (dE=-0.158E-02)
 bond charge predicted
       N       E                     dE             d eps       ncg     rms          rms(c)
DAV:   1    -0.482428052267E+03    0.13824E-02   -0.18252E+00  1408   0.228E+00    0.127E-01
DAV:   2    -0.482429979358E+03   -0.19271E-02   -0.20686E-02  1592   0.296E-01    0.110E-01
DAV:   3    -0.482429980831E+03   -0.14738E-05   -0.82368E-04  1568   0.760E-02    0.118E-01
DAV:   4    -0.482429878142E+03    0.10269E-03   -0.17747E-04  1296   0.436E-02    0.689E-02
DAV:   5    -0.482429845262E+03    0.32880E-04   -0.14205E-04  1424   0.310E-02    0.261E-02
DAV:   6    -0.482429847453E+03   -0.21909E-05   -0.34820E-05  1120   0.157E-02
 104 F= -.48242985E+03 E0= -.48242251E+03  d E =-.151343E-02
 curvature: -18.38 expect dE=-0.162E-01 dE for cont linesearch -0.593E-05
 trial: gam= 1.06512 g(F)=  0.874E-03 g(S)=  0.917E-05 ort =-0.578E-04 (trialstep = 0.159E+01)
 search vector abs. value=  0.125E-01
 bond charge predicted
       N       E                     dE             d eps       ncg     rms          rms(c)
DAV:   1    -0.482429067926E+03    0.77734E-03   -0.17307E+00  1408   0.216E+00    0.124E-01
DAV:   2    -0.482430855446E+03   -0.17875E-02   -0.19484E-02  1584   0.283E-01    0.895E-02
DAV:   3    -0.482430802572E+03    0.52874E-04   -0.65183E-04  1624   0.593E-02    0.706E-02
DAV:   4    -0.482430833915E+03   -0.31343E-04   -0.15947E-04  1296   0.391E-02    0.971E-02
DAV:   5    -0.482430757527E+03    0.76388E-04   -0.10966E-04  1184   0.339E-02    0.298E-02
DAV:   6    -0.482430759912E+03   -0.23842E-05   -0.54520E-05  1032   0.179E-02
 105 F= -.48243076E+03 E0= -.48242342E+03  d E =-.912459E-03
 trial-energy change:   -0.000912  1 .order   -0.000969   -0.001302   -0.000637
 step:   3.1024(harm=  3.1024)  dis= 0.02051  next Energy=  -482.431121 (dE=-0.127E-02)
 bond charge predicted
       N       E                     dE             d eps       ncg     rms          rms(c)
DAV:   1    -0.482429463314E+03    0.12942E-02   -0.15842E+00  1408   0.207E+00    0.120E-01
DAV:   2    -0.482431107475E+03   -0.16442E-02   -0.17853E-02  1592   0.271E-01    0.910E-02
DAV:   3    -0.482431092516E+03    0.14959E-04   -0.65181E-04  1600   0.644E-02    0.930E-02
DAV:   4    -0.482431050387E+03    0.42129E-04   -0.14420E-04  1232   0.385E-02    0.722E-02
DAV:   5    -0.482431011400E+03    0.38987E-04   -0.91672E-05  1240   0.276E-02    0.262E-02
DAV:   6    -0.482431013029E+03   -0.16295E-05   -0.41558E-05  1112   0.158E-02
 106 F= -.48243101E+03 E0= -.48242356E+03  d E =-.116558E-02
 curvature: -23.65 expect dE=-0.226E-01 dE for cont linesearch -0.951E-06
 trial: gam= 0.94201 g(F)=  0.944E-03 g(S)=  0.969E-05 ort =-0.224E-04 (trialstep = 0.189E+01)
 search vector abs. value=  0.120E-01
 bond charge predicted
       N       E                     dE             d eps       ncg     rms          rms(c)
DAV:   1    -0.482429951427E+03    0.10600E-02   -0.23687E+00  1408   0.251E+00    0.146E-01
DAV:   2    -0.482432383337E+03   -0.24319E-02   -0.26570E-02  1576   0.327E-01    0.107E-01
DAV:   3    -0.482432302927E+03    0.80409E-04   -0.88011E-04  1632   0.690E-02    0.865E-02
DAV:   4    -0.482432339482E+03   -0.36554E-04   -0.23208E-04  1464   0.476E-02    0.115E-01
DAV:   5    -0.482432227663E+03    0.11182E-03   -0.16675E-04  1368   0.402E-02    0.305E-02
DAV:   6    -0.482432230782E+03   -0.31197E-05   -0.59822E-05  1152   0.194E-02
 107 F= -.48243223E+03 E0= -.48242472E+03  d E =-.121775E-02
 trial-energy change:   -0.001218  1 .order   -0.001222   -0.001762   -0.000682
 step:   3.0818(harm=  3.0818)  dis= 0.02087  next Energy=  -482.432451 (dE=-0.144E-02)
 bond charge predicted
       N       E                     dE             d eps       ncg     rms          rms(c)
DAV:   1    -0.482431510874E+03    0.71679E-03   -0.94436E-01  1408   0.159E+00    0.940E-02
DAV:   2    -0.482432486380E+03   -0.97551E-03   -0.10640E-02  1576   0.207E-01    0.685E-02
DAV:   3    -0.482432461510E+03    0.24870E-04   -0.36023E-04  1632   0.453E-02    0.603E-02
DAV:   4    -0.482432462137E+03   -0.62728E-06   -0.88718E-05  1192   0.299E-02
 108 F= -.48243246E+03 E0= -.48242514E+03  d E =-.144911E-02
 curvature: -19.86 expect dE=-0.147E-01 dE for cont linesearch -0.106E-04
 trial: gam= 0.68779 g(F)=  0.739E-03 g(S)=  0.105E-05 ort = 0.802E-04 (trialstep = 0.213E+01)
 search vector abs. value=  0.654E-02
 bond charge predicted
       N       E                     dE             d eps       ncg     rms          rms(c)
DAV:   1    -0.482431933489E+03    0.52802E-03   -0.15913E+00  1408   0.209E+00    0.143E-01
DAV:   2    -0.482433622770E+03   -0.16893E-02   -0.18276E-02  1584   0.287E-01    0.146E-01
DAV:   3    -0.482433612343E+03    0.10428E-04   -0.10260E-03  1560   0.936E-02    0.143E-01
DAV:   4    -0.482433438800E+03    0.17354E-03   -0.24990E-04  1496   0.508E-02    0.666E-02
DAV:   5    -0.482433411544E+03    0.27257E-04   -0.13518E-04  1456   0.301E-02    0.304E-02
DAV:   6    -0.482433409058E+03    0.24857E-05   -0.31016E-05  1112   0.161E-02
 109 F= -.48243341E+03 E0= -.48242571E+03  d E =-.946921E-03
 trial-energy change:   -0.000947  1 .order   -0.001008   -0.001692   -0.000324
 step:   2.9260(harm=  2.6317)  dis= 0.01489  next Energy=  -482.433467 (dE=-0.100E-02)
 bond charge predicted
       N       E                     dE             d eps       ncg     rms          rms(c)
DAV:   1    -0.482433203907E+03    0.20764E-03   -0.22391E-01  1408   0.784E-01    0.536E-02
DAV:   2    -0.482433449569E+03   -0.24566E-03   -0.26400E-03  1600   0.108E-01    0.502E-02
DAV:   3    -0.482433455413E+03   -0.58439E-05   -0.14385E-04  1376   0.350E-02    0.550E-02
DAV:   4    -0.482433428875E+03    0.26539E-04   -0.35264E-05  1072   0.199E-02    0.233E-02
DAV:   5    -0.482433426979E+03    0.18954E-05   -0.17632E-05  1008   0.114E-02
 110 F= -.48243343E+03 E0= -.48242562E+03  d E =-.964842E-03
 curvature:  -7.13 expect dE=-0.516E-02 dE for cont linesearch -0.550E-05
 trial: gam= 1.20349 g(F)=  0.672E-03 g(S)=  0.514E-04 ort =-0.710E-04 (trialstep = 0.149E+01)
 search vector abs. value=  0.100E-01
 bond charge predicted
       N       E                     dE             d eps       ncg     rms          rms(c)
DAV:   1    -0.482433079941E+03    0.34893E-03   -0.12203E+00  1408   0.178E+00    0.136E-01
DAV:   2    -0.482434919338E+03   -0.18394E-02   -0.14610E-02  1552   0.261E-01    0.289E-01
DAV:   3    -0.482434253884E+03    0.66545E-03   -0.13972E-03  1496   0.115E-01    0.904E-02
DAV:   4    -0.482434183170E+03    0.70715E-04   -0.18239E-04  1328   0.373E-02    0.553E-02
DAV:   5    -0.482434165309E+03    0.17861E-04   -0.13741E-04  1432   0.278E-02    0.295E-02
DAV:   6    -0.482434160734E+03    0.45752E-05   -0.18684E-05  1032   0.140E-02
 111 F= -.48243416E+03 E0= -.48242638E+03  d E =-.733754E-03
 trial-energy change:   -0.000734  1 .order   -0.000736   -0.000952   -0.000519
 step:   3.2816(harm=  3.2816)  dis= 0.02121  next Energy=  -482.434474 (dE=-0.105E-02)
 bond charge predicted
       N       E                     dE             d eps       ncg     rms          rms(c)
DAV:   1    -0.482432872972E+03    0.12923E-02   -0.17561E+00  1408   0.213E+00    0.166E-01
DAV:   2    -0.482435645188E+03   -0.27722E-02   -0.21227E-02  1536   0.317E-01    0.364E-01
DAV:   3    -0.482434556920E+03    0.10883E-02   -0.21236E-03  1496   0.142E-01    0.106E-01
DAV:   4    -0.482434460313E+03    0.96607E-04   -0.27019E-04  1400   0.448E-02    0.670E-02
DAV:   5    -0.482434433552E+03    0.26761E-04   -0.19549E-04  1496   0.335E-02    0.370E-02
DAV:   6    -0.482434425621E+03    0.79316E-05   -0.28942E-05  1112   0.171E-02
 112 F= -.48243443E+03 E0= -.48242660E+03  d E =-.998642E-03
 curvature: -25.76 expect dE=-0.247E-01 dE for cont linesearch -0.112E-05
 trial: gam= 0.88882 g(F)=  0.930E-03 g(S)=  0.287E-04 ort =-0.209E-04 (trialstep = 0.185E+01)
 search vector abs. value=  0.884E-02
 bond charge predicted
       N       E                     dE             d eps       ncg     rms          rms(c)
DAV:   1    -0.482433861074E+03    0.57248E-03   -0.16768E+00  1408   0.216E+00    0.138E-01
DAV:   2    -0.482435753973E+03   -0.18929E-02   -0.19897E-02  1568   0.297E-01    0.168E-01
DAV:   3    -0.482435669239E+03    0.84734E-04   -0.10936E-03  1552   0.938E-02    0.127E-01
DAV:   4    -0.482435518086E+03    0.15115E-03   -0.22818E-04  1432   0.476E-02    0.673E-02
DAV:   5    -0.482435479092E+03    0.38994E-04   -0.19414E-04  1568   0.352E-02    0.266E-02
DAV:   6    -0.482435476175E+03    0.29168E-05   -0.26139E-05  1096   0.158E-02
 113 F= -.48243548E+03 E0= -.48242754E+03  d E =-.105055E-02
 trial-energy change:   -0.001051  1 .order   -0.001040   -0.001738   -0.000342
 step:   2.3031(harm=  2.3031)  dis= 0.01368  next Energy=  -482.435508 (dE=-0.108E-02)
 bond charge predicted
       N       E                     dE             d eps       ncg     rms          rms(c)
DAV:   1    -0.482435415854E+03    0.63238E-04   -0.10053E-01  1416   0.530E-01    0.355E-02
DAV:   2    -0.482435535324E+03   -0.11947E-03   -0.12132E-03  1600   0.734E-02    0.462E-02
DAV:   3    -0.482435527931E+03    0.73923E-05   -0.70810E-05  1192   0.244E-02
 114 F= -.48243553E+03 E0= -.48242738E+03  d E =-.110231E-02
 curvature: -10.83 expect dE=-0.666E-02 dE for cont linesearch -0.101E-06
 trial: gam= 0.68418 g(F)=  0.605E-03 g(S)=  0.942E-05 ort = 0.906E-05 (trialstep = 0.194E+01)
 search vector abs. value=  0.476E-02
 bond charge predicted
       N       E                     dE             d eps       ncg     rms          rms(c)
DAV:   1    -0.482435436364E+03    0.98959E-04   -0.98679E-01  1416   0.163E+00    0.997E-02
DAV:   2    -0.482436468713E+03   -0.10323E-02   -0.11164E-02  1560   0.218E-01    0.961E-02
DAV:   3    -0.482436468845E+03   -0.13281E-06   -0.49734E-04  1608   0.605E-02    0.963E-02
DAV:   4    -0.482436394119E+03    0.74726E-04   -0.11657E-04  1192   0.351E-02    0.570E-02
DAV:   5    -0.482436370830E+03    0.23289E-04   -0.95777E-05  1312   0.250E-02    0.216E-02
DAV:   6    -0.482436370284E+03    0.54643E-06   -0.20265E-05  1048   0.126E-02
 115 F= -.48243637E+03 E0= -.48242839E+03  d E =-.842352E-03
 trial-energy change:   -0.000842  1 .order   -0.000861   -0.001205   -0.000517
 step:   3.3982(harm=  3.3982)  dis= 0.01426  next Energy=  -482.436583 (dE=-0.105E-02)
 bond charge predicted
       N       E                     dE             d eps       ncg     rms          rms(c)
DAV:   1    -0.482436004445E+03    0.36638E-03   -0.55596E-01  1408   0.122E+00    0.750E-02
DAV:   2    -0.482436637900E+03   -0.63345E-03   -0.64693E-03  1600   0.167E-01    0.939E-02
DAV:   3    -0.482436613354E+03    0.24547E-04   -0.34686E-04  1560   0.529E-02    0.710E-02
DAV:   4    -0.482436567137E+03    0.46217E-04   -0.61952E-05  1152   0.254E-02    0.375E-02
DAV:   5    -0.482436557211E+03    0.99261E-05   -0.52878E-05  1104   0.183E-02
 116 F= -.48243656E+03 E0= -.48242846E+03  d E =-.102928E-02
 curvature: -13.04 expect dE=-0.110E-01 dE for cont linesearch -0.183E-05
 trial: gam= 1.33945 g(F)=  0.829E-03 g(S)=  0.142E-04 ort = 0.259E-04 (trialstep = 0.112E+01)
 search vector abs. value=  0.946E-02
 bond charge predicted
       N       E                     dE             d eps       ncg     rms          rms(c)
DAV:   1    -0.482436694556E+03   -0.12742E-03   -0.66558E-01  1424   0.132E+00    0.770E-02
DAV:   2    -0.482437424878E+03   -0.73032E-03   -0.75349E-03  1592   0.174E-01    0.793E-02
DAV:   3    -0.482437418199E+03    0.66789E-05   -0.33547E-04  1504   0.497E-02    0.784E-02
DAV:   4    -0.482437368184E+03    0.50015E-04   -0.64807E-05  1168   0.258E-02    0.377E-02
DAV:   5    -0.482437355833E+03    0.12351E-04   -0.64843E-05  1160   0.194E-02    0.166E-02
DAV:   6    -0.482437356091E+03   -0.25853E-06   -0.11647E-05   992   0.999E-03
 117 F= -.48243736E+03 E0= -.48242933E+03  d E =-.798880E-03
 trial-energy change:   -0.000799  1 .order   -0.000802   -0.000987   -0.000618
 step:   3.0033(harm=  3.0033)  dis= 0.01719  next Energy=  -482.437876 (dE=-0.132E-02)
 bond charge predicted
       N       E                     dE             d eps       ncg     rms          rms(c)
DAV:   1    -0.482436051482E+03    0.13044E-02   -0.18617E+00  1424   0.221E+00    0.126E-01
DAV:   2    -0.482438081347E+03   -0.20299E-02   -0.21020E-02  1592   0.290E-01    0.125E-01
DAV:   3    -0.482438070980E+03    0.10367E-04   -0.88854E-04  1560   0.797E-02    0.128E-01
DAV:   4    -0.482437936964E+03    0.13402E-03   -0.17122E-04  1256   0.417E-02    0.637E-02
DAV:   5    -0.482437897667E+03    0.39297E-04   -0.18076E-04  1520   0.315E-02    0.274E-02
DAV:   6    -0.482437896325E+03    0.13421E-05   -0.29532E-05  1112   0.151E-02
 118 F= -.48243790E+03 E0= -.48242984E+03  d E =-.133911E-02
 curvature: -16.18 expect dE=-0.964E-02 dE for cont linesearch -0.391E-05
 trial: gam= 0.60603 g(F)=  0.592E-03 g(S)=  0.390E-05 ort = 0.478E-04 (trialstep = 0.150E+01)
 search vector abs. value=  0.413E-02
 bond charge predicted
       N       E                     dE             d eps       ncg     rms          rms(c)
DAV:   1    -0.482438041581E+03   -0.14391E-03   -0.51685E-01  1424   0.118E+00    0.747E-02
DAV:   2    -0.482438674662E+03   -0.63308E-03   -0.62209E-03  1584   0.165E-01    0.107E-01
DAV:   3    -0.482438621852E+03    0.52809E-04   -0.36710E-04  1512   0.545E-02    0.685E-02
DAV:   4    -0.482438579319E+03    0.42533E-04   -0.58985E-05  1136   0.237E-02    0.347E-02
DAV:   5    -0.482438567938E+03    0.11381E-04   -0.59346E-05  1120   0.189E-02    0.156E-02
DAV:   6    -0.482438567571E+03    0.36746E-06   -0.95376E-06  1008   0.966E-03
 119 F= -.48243857E+03 E0= -.48243045E+03  d E =-.671246E-03
 trial-energy change:   -0.000671  1 .order   -0.000665   -0.000937   -0.000392
 step:   2.5813(harm=  2.5813)  dis= 0.00920  next Energy=  -482.438702 (dE=-0.806E-03)
 reached required accuracy - stopping structural energy minimisation
