<?xml version="1.0" encoding="ISO-8859-1"?>
<modeling>
 <generator>
  <i name="program" type="string">vasp </i>
  <i name="version" type="string">6.3.2  </i>
  <i name="subversion" type="string">27Jun22 (build May 04 2024 18:40:40) complex                          parallel </i>
  <i name="platform" type="string">LinuxIFC </i>
  <i name="date" type="string">2024 09 02 </i>
  <i name="time" type="string">23:10:08 </i>
 </generator>
 <incar>
  <i type="string" name="SYSTEM">slab_Cel1-OPT</i>
  <i type="int" name="ISTART">     0</i>
  <i type="string" name="PREC">N</i>
  <i type="string" name="ALGO">N</i>
  <i type="int" name="ICHARG">     2</i>
  <i type="int" name="NELM">   200</i>
  <i type="int" name="IBRION">     2</i>
  <i name="EDIFF">      0.00001000</i>
  <i name="EDIFFG">     -0.05000000</i>
  <i type="int" name="NSW">  1000</i>
  <i type="int" name="ISIF">     3</i>
  <i name="ENCUT">    400.00000000</i>
  <i name="POTIM">      0.10000000</i>
  <i type="string" name="LREAL">AUTO</i>
  <i type="int" name="ISMEAR">     0</i>
  <i name="SIGMA">      0.10000000</i>
  <i type="logical" name="LWAVE"> F  </i>
  <i type="logical" name="LCHARG"> F  </i>
  <i type="logical" name="LELF"> F  </i>
  <i type="logical" name="LAECHG"> F  </i>
  <i type="logical" name="LDIPOL"> T  </i>
  <i type="int" name="IDIPOL">     3</i>
 </incar>
 <primitive_cell>
  <structure name="primitive_cell" >
   <crystal>
    <varray name="basis" >
     <v>      13.75970367       0.00000000       0.00000000 </v>
     <v>       0.00000000      11.28669971       0.00000000 </v>
     <v>       0.00000000       0.00000000      15.00000000 </v>
    </varray>
    <i name="volume">   2329.52465126 </i>
    <varray name="rec_basis" >
     <v>       0.07267598       0.00000000       0.00000000 </v>
     <v>       0.00000000       0.08859986       0.00000000 </v>
     <v>       0.00000000       0.00000000       0.06666667 </v>
    </varray>
   </crystal>
   <varray name="positions" >
    <v>       0.07054120       0.38816457       0.22227495 </v>
    <v>       0.98151180       0.21832942       0.16785344 </v>
    <v>       0.22877304       0.39667288       0.18904348 </v>
    <v>       0.82472337       0.57572318       0.18403191 </v>
    <v>       0.14970601       0.24663792       0.12277753 </v>
    <v>       0.90758628       0.38434512       0.21811946 </v>
    <v>       0.56886571       0.39316130       0.23173729 </v>
    <v>       0.47768100       0.22391730       0.18017943 </v>
    <v>       0.73035049       0.39802658       0.19909345 </v>
    <v>       0.31101118       0.58132963       0.17977696 </v>
    <v>       0.64681854       0.25040749       0.13377315 </v>
    <v>       0.40275100       0.39355427       0.22106508 </v>
    <v>       0.81808056       0.88988957       0.05647519 </v>
    <v>       0.73319531       0.72568325       0.12448457 </v>
    <v>       0.97932824       0.89597624       0.07999408 </v>
    <v>       0.06867909       0.07698375       0.09423854 </v>
    <v>       0.90528082       0.74258583       0.14719628 </v>
    <v>       0.65472406       0.89333727       0.07691603 </v>
    <v>       0.31825350       0.89473226       0.05377466 </v>
    <v>       0.22716619       0.72126926       0.10084126 </v>
    <v>       0.47498917       0.90396535       0.09489577 </v>
    <v>       0.56592959       0.08075138       0.11024766 </v>
    <v>       0.38612516       0.76037560       0.16363174 </v>
    <v>       0.15509033       0.88950396       0.05271529 </v>
    <v>       0.98784551       0.43883046       0.24713656 </v>
    <v>       0.89991795       0.26975381       0.19549767 </v>
    <v>       0.15759857       0.43325808       0.24240148 </v>
    <v>       0.14788829       0.14353661       0.08017307 </v>
    <v>       0.98633649       0.10796021       0.13653167 </v>
    <v>       0.22915942       0.31533454       0.12527490 </v>
    <v>       0.06735802       0.28598388       0.16888911 </v>
    <v>       0.82274912       0.45552252       0.21014877 </v>
    <v>       0.48493735       0.44793349       0.25146232 </v>
    <v>       0.39648714       0.27665554       0.20625030 </v>
    <v>       0.65756919       0.43524210       0.25419888 </v>
    <v>       0.64488604       0.14640144       0.09374788 </v>
    <v>       0.48286722       0.11321356       0.15081376 </v>
    <v>       0.72606390       0.31870920       0.13454719 </v>
    <v>       0.56470606       0.29135323       0.18008364 </v>
    <v>       0.31888640       0.46086995       0.20329135 </v>
    <v>       0.73287748       0.94248397       0.03965616 </v>
    <v>       0.64891188       0.78317499       0.11254597 </v>
    <v>       0.90382696       0.93469024       0.03189926 </v>
    <v>       0.90701680       0.63807548       0.18754912 </v>
    <v>       0.73647441       0.61699787       0.15934394 </v>
    <v>       0.98321706       0.81212363       0.14197152 </v>
    <v>       0.81925020       0.78400528       0.10639513 </v>
    <v>       0.56804185       0.96074410       0.08520074 </v>
    <v>       0.23699719       0.94478449       0.02657725 </v>
    <v>       0.14820250       0.77173059       0.06843984 </v>
    <v>       0.40793432       0.93556381       0.03646331 </v>
    <v>       0.38047481       0.65838217       0.20939239 </v>
    <v>       0.23501053       0.60894863       0.12850628 </v>
    <v>       0.46527775       0.83024755       0.16578047 </v>
    <v>       0.31113112       0.79334051       0.10891910 </v>
    <v>       0.06990262       0.95754122       0.06514651 </v>
    <v>       0.57736557       0.77647674       0.24193941 </v>
    <v>       0.65582252       0.60772566       0.29790490 </v>
    <v>       0.48700699       0.61617049       0.29396059 </v>
   </varray>
  </structure>
  <varray name="primitive_index" >
   <v type="int" >        1 </v>
   <v type="int" >        2 </v>
   <v type="int" >        3 </v>
   <v type="int" >        4 </v>
   <v type="int" >        5 </v>
   <v type="int" >        6 </v>
   <v type="int" >        7 </v>
   <v type="int" >        8 </v>
   <v type="int" >        9 </v>
   <v type="int" >       10 </v>
   <v type="int" >       11 </v>
   <v type="int" >       12 </v>
   <v type="int" >       13 </v>
   <v type="int" >       14 </v>
   <v type="int" >       15 </v>
   <v type="int" >       16 </v>
   <v type="int" >       17 </v>
   <v type="int" >       18 </v>
   <v type="int" >       19 </v>
   <v type="int" >       20 </v>
   <v type="int" >       21 </v>
   <v type="int" >       22 </v>
   <v type="int" >       23 </v>
   <v type="int" >       24 </v>
   <v type="int" >       25 </v>
   <v type="int" >       26 </v>
   <v type="int" >       27 </v>
   <v type="int" >       28 </v>
   <v type="int" >       29 </v>
   <v type="int" >       30 </v>
   <v type="int" >       31 </v>
   <v type="int" >       32 </v>
   <v type="int" >       33 </v>
   <v type="int" >       34 </v>
   <v type="int" >       35 </v>
   <v type="int" >       36 </v>
   <v type="int" >       37 </v>
   <v type="int" >       38 </v>
   <v type="int" >       39 </v>
   <v type="int" >       40 </v>
   <v type="int" >       41 </v>
   <v type="int" >       42 </v>
   <v type="int" >       43 </v>
   <v type="int" >       44 </v>
   <v type="int" >       45 </v>
   <v type="int" >       46 </v>
   <v type="int" >       47 </v>
   <v type="int" >       48 </v>
   <v type="int" >       49 </v>
   <v type="int" >       50 </v>
   <v type="int" >       51 </v>
   <v type="int" >       52 </v>
   <v type="int" >       53 </v>
   <v type="int" >       54 </v>
   <v type="int" >       55 </v>
   <v type="int" >       56 </v>
   <v type="int" >       57 </v>
   <v type="int" >       58 </v>
   <v type="int" >       59 </v>
  </varray>
 </primitive_cell>
 <kpoints>
  <generation param="Gamma">
   <v type="int" name="divisions">       2        2        1 </v>
   <v name="usershift">      0.00000000       0.00000000       0.00000000 </v>
   <v name="genvec1">      0.50000000       0.00000000       0.00000000 </v>
   <v name="genvec2">      0.00000000       0.50000000       0.00000000 </v>
   <v name="genvec3">      0.00000000       0.00000000       1.00000000 </v>
   <v name="shift">      0.00000000       0.00000000       0.00000000 </v>
  </generation>
  <varray name="kpointlist" >
   <v>       0.00000000       0.00000000       0.00000000 </v>
   <v>       0.50000000       0.00000000       0.00000000 </v>
   <v>       0.00000000       0.50000000       0.00000000 </v>
   <v>       0.50000000       0.50000000       0.00000000 </v>
  </varray>
  <varray name="weights" >
   <v>       0.25000000 </v>
   <v>       0.25000000 </v>
   <v>       0.25000000 </v>
   <v>       0.25000000 </v>
  </varray>
 </kpoints>
 <parameters>
  <separator name="general" >
   <i type="string" name="SYSTEM">slab_Cel1-OPT</i>
   <i type="logical" name="LCOMPAT"> F  </i>
  </separator>
  <separator name="electronic" >
   <i type="string" name="PREC">n</i>
   <i name="ENMAX">    400.00000000</i>
   <i name="ENAUG">    644.87300000</i>
   <i name="EDIFF">      0.00001000</i>
   <i type="int" name="IALGO">    38</i>
   <i type="int" name="IWAVPR">    11</i>
   <i type="int" name="NBANDS">   176</i>
   <i type="int" name="NBANDSLOW">    -1</i>
   <i type="int" name="NBANDSHIGH">    -1</i>
   <i name="NELECT">    288.00000000</i>
   <i type="int" name="TURBO">     0</i>
   <i type="int" name="IRESTART">     0</i>
   <i type="int" name="NREBOOT">     0</i>
   <i type="int" name="NMIN">     0</i>
   <i name="EREF">      0.00000000</i>
   <separator name="electronic smearing" >
    <i type="int" name="ISMEAR">     0</i>
    <i name="SIGMA">      0.10000000</i>
    <i name="KSPACING">      0.50000000</i>
    <i type="logical" name="KGAMMA"> T  </i>
    <i type="logical" name="KBLOWUP"> T  </i>
   </separator>
   <separator name="electronic projectors" >
    <i type="logical" name="LREAL"> T  </i>
    <v name="ROPT">     -0.00050000     -0.00050000     -0.00050000     -0.00050000     -0.00050000</v>
    <i type="int" name="LMAXPAW">  -100</i>
    <i type="int" name="LMAXMIX">     2</i>
    <i type="logical" name="NLSPLINE"> F  </i>
   </separator>
   <separator name="electronic startup" >
    <i type="int" name="ISTART">     0</i>
    <i type="int" name="ICHARG">     2</i>
    <i type="int" name="INIWAV">     1</i>
   </separator>
   <separator name="electronic spin" >
    <i type="int" name="ISPIN">     1</i>
    <i type="logical" name="LNONCOLLINEAR"> F  </i>
    <v name="MAGMOM">      1.00000000      1.00000000      1.00000000      1.00000000      1.00000000      1.00000000      1.00000000      1.00000000      1.00000000      1.00000000      1.00000000      1.00000000      1.00000000      1.00000000      1.00000000      1.00000000      1.00000000      1.00000000      1.00000000      1.00000000
      1.00000000      1.00000000      1.00000000      1.00000000      1.00000000      1.00000000      1.00000000      1.00000000      1.00000000      1.00000000      1.00000000      1.00000000      1.00000000      1.00000000      1.00000000      1.00000000      1.00000000      1.00000000      1.00000000      1.00000000
      1.00000000      1.00000000      1.00000000      1.00000000      1.00000000      1.00000000      1.00000000      1.00000000      1.00000000      1.00000000      1.00000000      1.00000000      1.00000000      1.00000000      1.00000000      1.00000000      1.00000000      1.00000000      1.00000000</v>
    <i name="NUPDOWN">     -1.00000000</i>
    <i type="logical" name="LSORBIT"> F  </i>
    <v name="SAXIS">      0.00000000      0.00000000      1.00000000</v>
    <i type="logical" name="LSPIRAL"> F  </i>
    <v name="QSPIRAL">      0.00000000      0.00000000      0.00000000</v>
    <i type="logical" name="LZEROZ"> F  </i>
   </separator>
   <separator name="electronic exchange-correlation" >
    <i type="logical" name="LASPH"> F  </i>
    <i type="logical" name="LMETAGGA"> F  </i>
   </separator>
   <separator name="electronic convergence" >
    <i type="int" name="NELM">   200</i>
    <i type="int" name="NELMDL">    -5</i>
    <i type="int" name="NELMIN">     2</i>
    <i name="ENINI">    400.00000000</i>
    <separator name="electronic convergence detail" >
     <i type="logical" name="LDIAG"> T  </i>
     <i type="logical" name="LSUBROT"> F  </i>
     <i name="WEIMIN">      0.00100000</i>
     <i name="EBREAK">      0.00000001</i>
     <i name="DEPER">      0.30000000</i>
     <i type="int" name="NRMM">     4</i>
     <i name="TIME">      0.40000000</i>
    </separator>
   </separator>
   <separator name="electronic mixer" >
    <i name="AMIX">      0.40000000</i>
    <i name="BMIX">      1.00000000</i>
    <i name="AMIN">      0.10000000</i>
    <i name="AMIX_MAG">      1.60000000</i>
    <i name="BMIX_MAG">      1.00000000</i>
    <separator name="electronic mixer details" >
     <i type="int" name="IMIX">     4</i>
     <i type="logical" name="MIXFIRST"> F  </i>
     <i type="int" name="MAXMIX">   -45</i>
     <i name="WC">    100.00000000</i>
     <i type="int" name="INIMIX">     1</i>
     <i type="int" name="MIXPRE">     1</i>
     <i type="int" name="MREMOVE">     5</i>
    </separator>
   </separator>
   <separator name="electronic dipolcorrection" >
    <i type="logical" name="LDIPOL"> T  </i>
    <i type="logical" name="LMONO"> F  </i>
    <i type="int" name="IDIPOL">     3</i>
    <i name="EPSILON">      1.00000000</i>
    <v name="DIPOL">   -100.00000000   -100.00000000   -100.00000000</v>
    <i name="EFIELD">      0.00000000</i>
   </separator>
  </separator>
  <separator name="grids" >
   <i type="int" name="NGX">    70</i>
   <i type="int" name="NGY">    56</i>
   <i type="int" name="NGZ">    80</i>
   <i type="int" name="NGXF">   140</i>
   <i type="int" name="NGYF">   112</i>
   <i type="int" name="NGZF">   160</i>
   <i type="logical" name="ADDGRID"> F  </i>
  </separator>
  <separator name="ionic" >
   <i type="int" name="NSW">  1000</i>
   <i type="int" name="IBRION">     2</i>
   <i type="int" name="MDALGO">     0</i>
   <i type="int" name="ISIF">     3</i>
   <i name="PSTRESS">      0.00000000</i>
   <i name="EDIFFG">     -0.05000000</i>
   <i type="int" name="NFREE">     1</i>
   <i name="POTIM">      0.10000000</i>
   <i name="SMASS">     -3.00000000</i>
   <i name="SCALEE">      1.00000000</i>
  </separator>
  <separator name="ionic md" >
   <i name="TEBEG">      0.00010000</i>
   <i name="TEEND">      0.00010000</i>
   <i type="int" name="NBLOCK">     1</i>
   <i type="int" name="KBLOCK">  1000</i>
   <i type="int" name="NPACO">   256</i>
   <i name="APACO">     10.00000000</i>
  </separator>
  <separator name="symmetry" >
   <i type="int" name="ISYM">     2</i>
   <i name="SYMPREC">      0.00001000</i>
  </separator>
  <separator name="dos" >
   <i type="int" name="LORBIT">     0</i>
   <v name="RWIGS">     -1.00000000     -1.00000000     -1.00000000     -1.00000000     -1.00000000</v>
   <i type="int" name="NEDOS">   301</i>
   <i name="EMIN">     10.00000000</i>
   <i name="EMAX">    -10.00000000</i>
   <i name="EFERMI">      0.00000000</i>
  </separator>
  <separator name="writing" >
   <i type="int" name="NWRITE">     2</i>
   <i type="logical" name="LWAVE"> F  </i>
   <i type="logical" name="LDOWNSAMPLE"> F  </i>
   <i type="logical" name="LCHARG"> F  </i>
   <i type="logical" name="LPARD"> F  </i>
   <i type="logical" name="LVTOT"> F  </i>
   <i type="logical" name="LVHAR"> F  </i>
   <i type="logical" name="LELF"> F  </i>
   <i type="logical" name="LOPTICS"> F  </i>
   <v name="STM">      0.00000000      0.00000000      0.00000000      0.00000000      0.00000000      0.00000000      0.00000000</v>
  </separator>
  <separator name="performance" >
   <i type="int" name="NPAR">     4</i>
   <i type="int" name="NSIM">     4</i>
   <i type="int" name="NBLK">    -1</i>
   <i type="logical" name="LPLANE"> T  </i>
   <i type="logical" name="LSCALAPACK"> T  </i>
   <i type="logical" name="LSCAAWARE"> F  </i>
   <i type="logical" name="LSCALU"> F  </i>
   <i type="logical" name="LASYNC"> F  </i>
   <i type="logical" name="LORBITALREAL"> F  </i>
  </separator>
  <separator name="miscellaneous" >
   <i type="int" name="IDIOT">     3</i>
   <i type="int" name="PHON_NSTRUCT">    -1</i>
   <i type="logical" name="LMUSIC"> F  </i>
   <v name="POMASS">     12.01100000     14.00100000    196.96600000    107.86800000    106.42000000</v>
   <v name="DARWINR">      0.00000000      0.00000000      0.00000000      0.00000000      0.00000000</v>
   <v name="DARWINV">      1.00000000      1.00000000      1.00000000      1.00000000      1.00000000</v>
   <i type="logical" name="LCORR"> T  </i>
  </separator>
  <i type="logical" name="GGA_COMPAT"> T  </i>
  <i type="logical" name="LBERRY"> F  </i>
  <i type="int" name="ICORELEVEL">     0</i>
  <i type="logical" name="LDAU"> F  </i>
  <i type="int" name="I_CONSTRAINED_M">     0</i>
  <separator name="electronic exchange-correlation" >
   <i type="string" name="GGA">--</i>
   <i type="int" name="VOSKOWN">     0</i>
   <i type="logical" name="LHFCALC"> F  </i>
   <i type="string" name="PRECFOCK"></i>
   <i type="logical" name="LSYMGRAD"> F  </i>
   <i type="logical" name="LHFONE"> F  </i>
   <i type="logical" name="LRHFCALC"> F  </i>
   <i type="logical" name="LTHOMAS"> F  </i>
   <i type="logical" name="LMODELHF"> F  </i>
   <i type="logical" name="LFOCKACE"> F  </i>
   <i name="ENCUT4O">     -1.00000000</i>
   <i type="int" name="EXXOEP">     0</i>
   <i type="int" name="FOURORBIT">     0</i>
   <i name="AEXX">      0.00000000</i>
   <i name="HFALPHA">      0.00000000</i>
   <i name="MCALPHA">      0.00000000</i>
   <i name="ALDAX">      1.00000000</i>
   <i name="AGGAX">      1.00000000</i>
   <i name="ALDAC">      1.00000000</i>
   <i name="AGGAC">      1.00000000</i>
   <i type="int" name="NKREDX">     1</i>
   <i type="int" name="NKREDY">     1</i>
   <i type="int" name="NKREDZ">     1</i>
   <i type="logical" name="SHIFTRED"> F  </i>
   <i type="logical" name="ODDONLY"> F  </i>
   <i type="logical" name="EVENONLY"> F  </i>
   <i type="int" name="LMAXFOCK">     0</i>
   <i type="int" name="NMAXFOCKAE">     0</i>
   <i type="logical" name="LFOCKAEDFT"> F  </i>
   <i name="HFSCREEN">      0.00000000</i>
   <i name="HFSCREENC">      0.00000000</i>
   <i type="int" name="NBANDSGWLOW">     0</i>
  </separator>
  <separator name="vdW DFT" >
   <i type="logical" name="LUSE_VDW"> F  </i>
   <i name="Zab_VDW">     -0.84910000</i>
   <i name="PARAM1">      0.12340000</i>
   <i name="PARAM2">      1.00000000</i>
   <i name="PARAM3">      0.00000000</i>
  </separator>
  <separator name="model GW" >
   <i type="int" name="MODEL_GW">     0</i>
   <i name="MODEL_EPS0">     23.69008120</i>
   <i name="MODEL_ALPHA">      1.00000000</i>
  </separator>
  <separator name="linear response parameters" >
   <i type="logical" name="LEPSILON"> F  </i>
   <i type="logical" name="LRPA"> F  </i>
   <i type="logical" name="LNABLA"> F  </i>
   <i type="logical" name="LVEL"> F  </i>
   <i name="CSHIFT">      0.10000000</i>
   <i name="OMEGAMAX">     -1.00000000</i>
   <i name="DEG_THRESHOLD">      0.00200000</i>
   <i name="RTIME">     -0.10000000</i>
   <i name="WPLASMAI">      0.00000000</i>
   <v name="DFIELD">      0.00000000      0.00000000      0.00000000</v>
   <v name="WPLASMA">      0.00000000      0.00000000      0.00000000      0.00000000      0.00000000      0.00000000      0.00000000      0.00000000      0.00000000</v>
  </separator>
  <separator name="orbital magnetization" >
   <i type="logical" name="NUCIND"> F  </i>
   <v name="MAGPOS">      0.00000000      0.00000000      0.00000000</v>
   <i type="logical" name="LNICSALL"> T  </i>
   <i type="logical" name="ORBITALMAG"> F  </i>
   <i type="logical" name="LMAGBLOCH"> F  </i>
   <i type="logical" name="LCHIMAG"> F  </i>
   <i type="logical" name="LGAUGE"> T  </i>
   <i type="int" name="MAGATOM">     0</i>
   <v name="MAGDIPOL">      0.00000000      0.00000000      0.00000000</v>
   <v name="AVECCONST">      0.00000000      0.00000000      0.00000000</v>
  </separator>
  <separator name="response functions" >
   <i type="logical" name="LFINITE_TEMPERATURE"> F  </i>
   <i type="logical" name="LADDER"> F  </i>
   <i type="logical" name="LRPAFORCE"> F  </i>
   <i type="logical" name="LFXC"> F  </i>
   <i type="logical" name="LHARTREE"> T  </i>
   <i type="int" name="IBSE">     0</i>
   <v type="int" name="KPOINT">    -1     0     0     0</v>
   <i type="logical" name="LTCTC"> F  </i>
   <i type="logical" name="LTCTE"> F  </i>
   <i type="logical" name="LTETE"> F  </i>
   <i type="logical" name="LTRIPLET"> F  </i>
   <i type="logical" name="LFXCEPS"> F  </i>
   <i type="logical" name="LFXHEG"> F  </i>
   <i type="int" name="NATURALO">     2</i>
   <i type="logical" name="LHOLEGF"> F  </i>
   <i type="logical" name="L2ORDER"> F  </i>
   <i type="logical" name="LDMP1"> F  </i>
   <i type="logical" name="LMP2LT"> F  </i>
   <i type="logical" name="LSMP2LT"> F  </i>
   <i type="logical" name="LGWLF"> F  </i>
   <i name="ENCUTGW">     -2.00000000</i>
   <i name="ENCUTGWSOFT">     -2.00000000</i>
   <i name="ENCUTLF">     -1.00000000</i>
   <i type="logical" name="LESF_SPLINES"> F  </i>
   <i type="int" name="LMAXMP2">    -1</i>
   <i name="SCISSOR">      0.00000000</i>
   <i type="int" name="NOMEGA">     0</i>
   <i type="int" name="NOMEGAR">     0</i>
   <i type="int" name="NBANDSGW">    -1</i>
   <i type="int" name="NBANDSO">    -1</i>
   <i type="int" name="NBANDSV">    -1</i>
   <i type="int" name="NELMGW">     1</i>
   <i type="int" name="NELMHF">     1</i>
   <i type="int" name="DIM">     3</i>
   <i type="int" name="IESPILON">     4</i>
   <i type="int" name="ANTIRES">     0</i>
   <i name="OMEGAMAX">    -30.00000000</i>
   <i name="OMEGAMIN">    -30.00000000</i>
   <i name="OMEGATL">   -200.00000000</i>
   <i type="int" name="OMEGAGRID">     0</i>
   <i name="CSHIFT">     -0.10000000</i>
   <i type="logical" name="LSELFENERGY"> F  </i>
   <i type="logical" name="LSPECTRAL"> F  </i>
   <i type="logical" name="LSPECTRALGW"> F  </i>
   <i type="logical" name="LSINGLES"> F  </i>
   <i type="logical" name="LFERMIGW"> F  </i>
   <i type="logical" name="ODDONLYGW"> F  </i>
   <i type="logical" name="EVENONLYGW"> F  </i>
   <i type="int" name="NKREDLFX">     1</i>
   <i type="int" name="NKREDLFY">     1</i>
   <i type="int" name="NKREDLFZ">     1</i>
   <i type="int" name="MAXMEM">  2800</i>
   <i type="int" name="TELESCOPE">     0</i>
   <i type="int" name="NTAUPAR">    -1</i>
   <i type="int" name="NOMEGAPAR">    -1</i>
   <i name="DAMP_NEWTON">      0.80000001</i>
   <i name="LAMBDA">      1.00000000</i>
  </separator>
  <separator name="External order field" >
   <i name="OFIELD_KAPPA">      0.00000000</i>
   <v name="OFIELD_K">      0.00000000      0.00000000      0.00000000</v>
   <i name="OFIELD_Q6_NEAR">      0.00000000</i>
   <i name="OFIELD_Q6_FAR">      0.00000000</i>
   <i name="OFIELD_A">      0.00000000</i>
  </separator>
  <separator name="optional k-points parameters" >
   <i type="int" name="KPOINTS_OPT_MODE">     1</i>
   <i type="logical" name="LKPOINTS_OPT"> F  </i>
  </separator>
  <separator name="solvation model" >
   <i type="logical" name="LSOL"> F  </i>
  </separator>
 </parameters>
 <atominfo>
  <atoms>      59 </atoms>
  <types>       5 </types>
  <array name="atoms" >
   <dimension dim="1">ion</dimension>
   <field type="string">element</field>
   <field type="int">atomtype</field>
   <set>
    <rc><c>C </c><c>   1</c></rc>
    <rc><c>C </c><c>   1</c></rc>
    <rc><c>C </c><c>   1</c></rc>
    <rc><c>C </c><c>   1</c></rc>
    <rc><c>C </c><c>   1</c></rc>
    <rc><c>C </c><c>   1</c></rc>
    <rc><c>C </c><c>   1</c></rc>
    <rc><c>C </c><c>   1</c></rc>
    <rc><c>C </c><c>   1</c></rc>
    <rc><c>C </c><c>   1</c></rc>
    <rc><c>C </c><c>   1</c></rc>
    <rc><c>C </c><c>   1</c></rc>
    <rc><c>C </c><c>   1</c></rc>
    <rc><c>C </c><c>   1</c></rc>
    <rc><c>C </c><c>   1</c></rc>
    <rc><c>C </c><c>   1</c></rc>
    <rc><c>C </c><c>   1</c></rc>
    <rc><c>C </c><c>   1</c></rc>
    <rc><c>C </c><c>   1</c></rc>
    <rc><c>C </c><c>   1</c></rc>
    <rc><c>C </c><c>   1</c></rc>
    <rc><c>C </c><c>   1</c></rc>
    <rc><c>C </c><c>   1</c></rc>
    <rc><c>C </c><c>   1</c></rc>
    <rc><c>N </c><c>   2</c></rc>
    <rc><c>N </c><c>   2</c></rc>
    <rc><c>N </c><c>   2</c></rc>
    <rc><c>N </c><c>   2</c></rc>
    <rc><c>N </c><c>   2</c></rc>
    <rc><c>N </c><c>   2</c></rc>
    <rc><c>N </c><c>   2</c></rc>
    <rc><c>N </c><c>   2</c></rc>
    <rc><c>N </c><c>   2</c></rc>
    <rc><c>N </c><c>   2</c></rc>
    <rc><c>N </c><c>   2</c></rc>
    <rc><c>N </c><c>   2</c></rc>
    <rc><c>N </c><c>   2</c></rc>
    <rc><c>N </c><c>   2</c></rc>
    <rc><c>N </c><c>   2</c></rc>
    <rc><c>N </c><c>   2</c></rc>
    <rc><c>N </c><c>   2</c></rc>
    <rc><c>N </c><c>   2</c></rc>
    <rc><c>N </c><c>   2</c></rc>
    <rc><c>N </c><c>   2</c></rc>
    <rc><c>N </c><c>   2</c></rc>
    <rc><c>N </c><c>   2</c></rc>
    <rc><c>N </c><c>   2</c></rc>
    <rc><c>N </c><c>   2</c></rc>
    <rc><c>N </c><c>   2</c></rc>
    <rc><c>N </c><c>   2</c></rc>
    <rc><c>N </c><c>   2</c></rc>
    <rc><c>N </c><c>   2</c></rc>
    <rc><c>N </c><c>   2</c></rc>
    <rc><c>N </c><c>   2</c></rc>
    <rc><c>N </c><c>   2</c></rc>
    <rc><c>N </c><c>   2</c></rc>
    <rc><c>Au</c><c>   3</c></rc>
    <rc><c>Ag</c><c>   4</c></rc>
    <rc><c>Pd</c><c>   5</c></rc>
   </set>
  </array>
  <array name="atomtypes" >
   <dimension dim="1">type</dimension>
   <field type="int">atomspertype</field>
   <field type="string">element</field>
   <field>mass</field>
   <field>valence</field>
   <field type="string">pseudopotential</field>
   <set>
    <rc><c>  24</c><c>C </c><c>     12.01100000</c><c>      4.00000000</c><c>  PAW_PBE C 08Apr2002                   </c></rc>
    <rc><c>  32</c><c>N </c><c>     14.00100000</c><c>      5.00000000</c><c>  PAW_PBE N 08Apr2002                   </c></rc>
    <rc><c>   1</c><c>Au</c><c>    196.96600000</c><c>     11.00000000</c><c>  PAW_PBE Au 04Oct2007                  </c></rc>
    <rc><c>   1</c><c>Ag</c><c>    107.86800000</c><c>     11.00000000</c><c>  PAW_PBE Ag 02Apr2005                  </c></rc>
    <rc><c>   1</c><c>Pd</c><c>    106.42000000</c><c>     10.00000000</c><c>  PAW_PBE Pd 04Jan2005                  </c></rc>
   </set>
  </array>
 </atominfo>
 <structure name="initialpos" >
  <crystal>
   <varray name="basis" >
    <v>      13.75970367       0.00000000       0.00000000 </v>
    <v>       0.00000000      11.28669971       0.00000000 </v>
    <v>       0.00000000       0.00000000      15.00000000 </v>
   </varray>
   <i name="volume">   2329.52465126 </i>
   <varray name="rec_basis" >
    <v>       0.07267598       0.00000000       0.00000000 </v>
    <v>       0.00000000       0.08859986       0.00000000 </v>
    <v>       0.00000000       0.00000000       0.06666667 </v>
   </varray>
  </crystal>
  <varray name="positions" >
   <v>       0.07054120       0.38816457       0.22227495 </v>
   <v>       0.98151180       0.21832942       0.16785344 </v>
   <v>       0.22877304       0.39667288       0.18904348 </v>
   <v>       0.82472337       0.57572318       0.18403191 </v>
   <v>       0.14970601       0.24663792       0.12277753 </v>
   <v>       0.90758628       0.38434512       0.21811946 </v>
   <v>       0.56886571       0.39316130       0.23173729 </v>
   <v>       0.47768100       0.22391730       0.18017943 </v>
   <v>       0.73035049       0.39802658       0.19909345 </v>
   <v>       0.31101118       0.58132963       0.17977696 </v>
   <v>       0.64681854       0.25040749       0.13377315 </v>
   <v>       0.40275100       0.39355427       0.22106508 </v>
   <v>       0.81808056       0.88988957       0.05647519 </v>
   <v>       0.73319531       0.72568325       0.12448457 </v>
   <v>       0.97932824       0.89597624       0.07999408 </v>
   <v>       0.06867909       0.07698375       0.09423854 </v>
   <v>       0.90528082       0.74258583       0.14719628 </v>
   <v>       0.65472406       0.89333727       0.07691603 </v>
   <v>       0.31825350       0.89473226       0.05377466 </v>
   <v>       0.22716619       0.72126926       0.10084126 </v>
   <v>       0.47498917       0.90396535       0.09489577 </v>
   <v>       0.56592959       0.08075138       0.11024766 </v>
   <v>       0.38612516       0.76037560       0.16363174 </v>
   <v>       0.15509033       0.88950396       0.05271529 </v>
   <v>       0.98784551       0.43883046       0.24713656 </v>
   <v>       0.89991795       0.26975381       0.19549767 </v>
   <v>       0.15759857       0.43325808       0.24240148 </v>
   <v>       0.14788829       0.14353661       0.08017307 </v>
   <v>       0.98633649       0.10796021       0.13653167 </v>
   <v>       0.22915942       0.31533454       0.12527490 </v>
   <v>       0.06735802       0.28598388       0.16888911 </v>
   <v>       0.82274912       0.45552252       0.21014877 </v>
   <v>       0.48493735       0.44793349       0.25146232 </v>
   <v>       0.39648714       0.27665554       0.20625030 </v>
   <v>       0.65756919       0.43524210       0.25419888 </v>
   <v>       0.64488604       0.14640144       0.09374788 </v>
   <v>       0.48286722       0.11321356       0.15081376 </v>
   <v>       0.72606390       0.31870920       0.13454719 </v>
   <v>       0.56470606       0.29135323       0.18008364 </v>
   <v>       0.31888640       0.46086995       0.20329135 </v>
   <v>       0.73287748       0.94248397       0.03965616 </v>
   <v>       0.64891188       0.78317499       0.11254597 </v>
   <v>       0.90382696       0.93469024       0.03189926 </v>
   <v>       0.90701680       0.63807548       0.18754912 </v>
   <v>       0.73647441       0.61699787       0.15934394 </v>
   <v>       0.98321706       0.81212363       0.14197152 </v>
   <v>       0.81925020       0.78400528       0.10639513 </v>
   <v>       0.56804185       0.96074410       0.08520074 </v>
   <v>       0.23699719       0.94478449       0.02657725 </v>
   <v>       0.14820250       0.77173059       0.06843984 </v>
   <v>       0.40793432       0.93556381       0.03646331 </v>
   <v>       0.38047481       0.65838217       0.20939239 </v>
   <v>       0.23501053       0.60894863       0.12850628 </v>
   <v>       0.46527775       0.83024755       0.16578047 </v>
   <v>       0.31113112       0.79334051       0.10891910 </v>
   <v>       0.06990262       0.95754122       0.06514651 </v>
   <v>       0.57736557       0.77647674       0.24193941 </v>
   <v>       0.65582252       0.60772566       0.29790490 </v>
   <v>       0.48700699       0.61617049       0.29396059 </v>
  </varray>
 </structure>
 <calculation>
  <scstep>
   <time name="dav">    5.38    5.39</time>
   <time name="total">    5.47    5.50</time>
   <dipole>
    <v name="dipole">      0.00000000       0.00000000       0.00005191 </v>
    <i name="Tr[quadrupol]">  -8096.91870011 </i>
    <i name="Echarged">      0.00000000 </i>
    <i name="Edipol_quadrupol">      0.00000000 </i>
    <i name="Eion">      0.00000000 </i>
   </dipole>
   <energy>
    <i name="alphaZ">    176.89629935 </i>
    <i name="ewald">  28784.59497549 </i>
    <i name="hartreedc"> -41054.90131813 </i>
    <i name="XCdc">    932.67589902 </i>
    <i name="pawpsdc">  11846.67449192 </i>
    <i name="pawaedc"> -11767.02918859 </i>
    <i name="eentropy">     -0.08604689 </i>
    <i name="bandstr">  -1161.46710268 </i>
    <i name="atom">  14767.33628989 </i>
    <i name="e_fr_energy">   2524.69429938 </i>
    <i name="e_wo_entrp">   2524.78034627 </i>
    <i name="e_0_energy">   2524.73732282 </i>
   </energy>
  </scstep>
  <scstep>
   <time name="dav">    6.45    6.47</time>
   <time name="total">    6.45    6.47</time>
   <dipole>
    <v name="dipole">      0.00000000       0.00000000       0.00005191 </v>
    <i name="Tr[quadrupol]">  -8096.91870011 </i>
    <i name="Echarged">      0.00000000 </i>
    <i name="Edipol_quadrupol">      0.00000000 </i>
    <i name="Eion">      0.00000000 </i>
   </dipole>
   <energy>
    <i name="e_fr_energy">    -47.24948128 </i>
    <i name="e_wo_entrp">    -47.22297966 </i>
    <i name="e_0_energy">    -47.23623047 </i>
   </energy>
  </scstep>
  <scstep>
   <time name="dav">    5.62    5.64</time>
   <time name="total">    5.62    5.64</time>
   <dipole>
    <v name="dipole">      0.00000000       0.00000000       0.00005191 </v>
    <i name="Tr[quadrupol]">  -8096.91870011 </i>
    <i name="Echarged">      0.00000000 </i>
    <i name="Edipol_quadrupol">      0.00000000 </i>
    <i name="Eion">      0.00000000 </i>
   </dipole>
   <energy>
    <i name="e_fr_energy">   -497.43385565 </i>
    <i name="e_wo_entrp">   -497.37026306 </i>
    <i name="e_0_energy">   -497.40205935 </i>
   </energy>
  </scstep>
  <scstep>
   <time name="dav">    5.39    5.41</time>
   <time name="total">    5.39    5.41</time>
   <dipole>
    <v name="dipole">      0.00000000       0.00000000       0.00005191 </v>
    <i name="Tr[quadrupol]">  -8096.91870011 </i>
    <i name="Echarged">      0.00000000 </i>
    <i name="Edipol_quadrupol">      0.00000000 </i>
    <i name="Eion">      0.00000000 </i>
   </dipole>
   <energy>
    <i name="e_fr_energy">   -512.15997566 </i>
    <i name="e_wo_entrp">   -512.06339211 </i>
    <i name="e_0_energy">   -512.11168388 </i>
   </energy>
  </scstep>
  <scstep>
   <time name="dav">    6.21    6.22</time>
   <time name="total">    6.40    6.42</time>
   <dipole>
    <v name="dipole">      0.00000000       0.00000000       0.00005191 </v>
    <i name="Tr[quadrupol]">  -8096.91870011 </i>
    <i name="Echarged">      0.00000000 </i>
    <i name="Edipol_quadrupol">      0.00000000 </i>
    <i name="Eion">      0.00000000 </i>
   </dipole>
   <energy>
    <i name="e_fr_energy">   -512.76822053 </i>
    <i name="e_wo_entrp">   -512.66627348 </i>
    <i name="e_0_energy">   -512.71724701 </i>
   </energy>
  </scstep>
  <scstep>
   <time name="dav">    5.40    5.41</time>
   <time name="total">    5.68    5.69</time>
   <dipole>
    <v name="dipole">      0.00000000       0.00000000      -0.47222887 </v>
    <i name="Tr[quadrupol]">  -8098.18903212 </i>
    <i name="Echarged">      0.00000000 </i>
    <i name="Edipol_quadrupol">      0.00000000 </i>
    <i name="Eion">      0.00000000 </i>
   </dipole>
   <energy>
    <i name="e_fr_energy">   -485.38582639 </i>
    <i name="e_wo_entrp">   -485.38582639 </i>
    <i name="e_0_energy">   -485.38582639 </i>
   </energy>
  </scstep>
  <scstep>
   <time name="dav">    5.35    5.36</time>
   <time name="total">    5.64    5.65</time>
   <dipole>
    <v name="dipole">      0.00000000       0.00000000      -0.19943140 </v>
    <i name="Tr[quadrupol]">  -8098.50216229 </i>
    <i name="Echarged">      0.00000000 </i>
    <i name="Edipol_quadrupol">      0.00000000 </i>
    <i name="Eion">      0.00000000 </i>
   </dipole>
   <energy>
    <i name="e_fr_energy">   -480.92133348 </i>
    <i name="e_wo_entrp">   -480.83761431 </i>
    <i name="e_0_energy">   -480.87947390 </i>
   </energy>
  </scstep>
  <scstep>
   <time name="dav">    5.30    5.32</time>
   <time name="total">    5.59    5.60</time>
   <dipole>
    <v name="dipole">      0.00000000       0.00000000      -0.31123288 </v>
    <i name="Tr[quadrupol]">  -8099.26430036 </i>
    <i name="Echarged">      0.00000000 </i>
    <i name="Edipol_quadrupol">      0.00000000 </i>
    <i name="Eion">      0.00000000 </i>
   </dipole>
   <energy>
    <i name="e_fr_energy">   -480.75903625 </i>
    <i name="e_wo_entrp">   -480.75903610 </i>
    <i name="e_0_energy">   -480.75903618 </i>
   </energy>
  </scstep>
  <scstep>
   <time name="dav">    5.36    5.38</time>
   <time name="total">    5.65    5.67</time>
   <dipole>
    <v name="dipole">      0.00000000       0.00000000      -0.15717416 </v>
    <i name="Tr[quadrupol]">  -8099.54434067 </i>
    <i name="Echarged">      0.00000000 </i>
    <i name="Edipol_quadrupol">      0.00000000 </i>
    <i name="Eion">      0.00000000 </i>
   </dipole>
   <energy>
    <i name="e_fr_energy">   -478.55198859 </i>
    <i name="e_wo_entrp">   -478.50431819 </i>
    <i name="e_0_energy">   -478.52815339 </i>
   </energy>
  </scstep>
  <scstep>
   <time name="dav">    5.38    5.40</time>
   <time name="total">    5.67    5.69</time>
   <dipole>
    <v name="dipole">      0.00000000       0.00000000      -0.14193696 </v>
    <i name="Tr[quadrupol]">  -8099.76990644 </i>
    <i name="Echarged">      0.00000000 </i>
    <i name="Edipol_quadrupol">      0.00000000 </i>
    <i name="Eion">      0.00000000 </i>
   </dipole>
   <energy>
    <i name="e_fr_energy">   -478.44421610 </i>
    <i name="e_wo_entrp">   -478.35063040 </i>
    <i name="e_0_energy">   -478.39742325 </i>
   </energy>
  </scstep>
  <scstep>
   <time name="dav">    5.43    5.47</time>
   <time name="total">    5.72    5.76</time>
   <dipole>
    <v name="dipole">      0.00000000       0.00000000      -0.11056244 </v>
    <i name="Tr[quadrupol]">  -8100.04008976 </i>
    <i name="Echarged">      0.00000000 </i>
    <i name="Edipol_quadrupol">      0.00000000 </i>
    <i name="Eion">      0.00000000 </i>
   </dipole>
   <energy>
    <i name="e_fr_energy">   -478.37156094 </i>
    <i name="e_wo_entrp">   -478.30244345 </i>
    <i name="e_0_energy">   -478.33700220 </i>
   </energy>
  </scstep>
  <scstep>
   <time name="dav">    5.34    5.35</time>
   <time name="total">    5.63    5.64</time>
   <dipole>
    <v name="dipole">      0.00000000       0.00000000      -0.08050717 </v>
    <i name="Tr[quadrupol]">  -8100.36779364 </i>
    <i name="Echarged">      0.00000000 </i>
    <i name="Edipol_quadrupol">      0.00000000 </i>
    <i name="Eion">      0.00000000 </i>
   </dipole>
   <energy>
    <i name="e_fr_energy">   -478.35762993 </i>
    <i name="e_wo_entrp">   -478.27991177 </i>
    <i name="e_0_energy">   -478.31877085 </i>
   </energy>
  </scstep>
  <scstep>
   <time name="dav">    5.31    5.32</time>
   <time name="total">    5.59    5.61</time>
   <dipole>
    <v name="dipole">      0.00000000       0.00000000      -0.05957497 </v>
    <i name="Tr[quadrupol]">  -8100.61349460 </i>
    <i name="Echarged">      0.00000000 </i>
    <i name="Edipol_quadrupol">      0.00000000 </i>
    <i name="Eion">      0.00000000 </i>
   </dipole>
   <energy>
    <i name="e_fr_energy">   -478.35553734 </i>
    <i name="e_wo_entrp">   -478.27329848 </i>
    <i name="e_0_energy">   -478.31441791 </i>
   </energy>
  </scstep>
  <scstep>
   <time name="dav">    5.28    5.29</time>
   <time name="total">    5.57    5.58</time>
   <dipole>
    <v name="dipole">      0.00000000       0.00000000      -0.05106166 </v>
    <i name="Tr[quadrupol]">  -8100.82666527 </i>
    <i name="Echarged">      0.00000000 </i>
    <i name="Edipol_quadrupol">      0.00000000 </i>
    <i name="Eion">      0.00000000 </i>
   </dipole>
   <energy>
    <i name="e_fr_energy">   -478.35946648 </i>
    <i name="e_wo_entrp">   -478.28150804 </i>
    <i name="e_0_energy">   -478.32048726 </i>
   </energy>
  </scstep>
  <scstep>
   <time name="dav">    5.38    5.40</time>
   <time name="total">    5.67    5.68</time>
   <dipole>
    <v name="dipole">      0.00000000       0.00000000      -0.02985247 </v>
    <i name="Tr[quadrupol]">  -8101.04740277 </i>
    <i name="Echarged">      0.00000000 </i>
    <i name="Edipol_quadrupol">      0.00000000 </i>
    <i name="Eion">      0.00000000 </i>
   </dipole>
   <energy>
    <i name="e_fr_energy">   -478.36395298 </i>
    <i name="e_wo_entrp">   -478.27963228 </i>
    <i name="e_0_energy">   -478.32179263 </i>
   </energy>
  </scstep>
  <scstep>
   <time name="dav">    5.29    5.30</time>
   <time name="total">    5.58    5.60</time>
   <dipole>
    <v name="dipole">      0.00000000       0.00000000      -0.01797384 </v>
    <i name="Tr[quadrupol]">  -8101.31753791 </i>
    <i name="Echarged">      0.00000000 </i>
    <i name="Edipol_quadrupol">      0.00000000 </i>
    <i name="Eion">      0.00000000 </i>
   </dipole>
   <energy>
    <i name="e_fr_energy">   -478.36683612 </i>
    <i name="e_wo_entrp">   -478.28570643 </i>
    <i name="e_0_energy">   -478.32627128 </i>
   </energy>
  </scstep>
  <scstep>
   <time name="dav">    5.42    5.43</time>
   <time name="total">    5.71    5.73</time>
   <dipole>
    <v name="dipole">      0.00000000       0.00000000      -0.00013238 </v>
    <i name="Tr[quadrupol]">  -8101.59023115 </i>
    <i name="Echarged">      0.00000000 </i>
    <i name="Edipol_quadrupol">      0.00000000 </i>
    <i name="Eion">      0.00000000 </i>
   </dipole>
   <energy>
    <i name="e_fr_energy">   -478.37131234 </i>
    <i name="e_wo_entrp">   -478.28853939 </i>
    <i name="e_0_energy">   -478.32992586 </i>
   </energy>
  </scstep>
  <scstep>
   <time name="dav">    5.45    5.46</time>
   <time name="total">    5.74    5.75</time>
   <dipole>
    <v name="dipole">      0.00000000       0.00000000       0.01279419 </v>
    <i name="Tr[quadrupol]">  -8101.83407753 </i>
    <i name="Echarged">      0.00000000 </i>
    <i name="Edipol_quadrupol">      0.00000000 </i>
    <i name="Eion">      0.00000000 </i>
   </dipole>
   <energy>
    <i name="e_fr_energy">   -478.37553122 </i>
    <i name="e_wo_entrp">   -478.29349933 </i>
    <i name="e_0_energy">   -478.33451528 </i>
   </energy>
  </scstep>
  <scstep>
   <time name="dav">    5.23    5.24</time>
   <time name="total">    5.52    5.53</time>
   <dipole>
    <v name="dipole">      0.00000000       0.00000000       0.01620546 </v>
    <i name="Tr[quadrupol]">  -8102.05067478 </i>
    <i name="Echarged">      0.00000000 </i>
    <i name="Edipol_quadrupol">      0.00000000 </i>
    <i name="Eion">      0.00000000 </i>
   </dipole>
   <energy>
    <i name="e_fr_energy">   -478.37868680 </i>
    <i name="e_wo_entrp">   -478.29606638 </i>
    <i name="e_0_energy">   -478.33737659 </i>
   </energy>
  </scstep>
  <scstep>
   <time name="dav">    4.99    5.01</time>
   <time name="total">    5.28    5.30</time>
   <dipole>
    <v name="dipole">      0.00000000       0.00000000       0.02129716 </v>
    <i name="Tr[quadrupol]">  -8102.18967123 </i>
    <i name="Echarged">      0.00000000 </i>
    <i name="Edipol_quadrupol">      0.00000000 </i>
    <i name="Eion">      0.00000000 </i>
   </dipole>
   <energy>
    <i name="e_fr_energy">   -478.38044197 </i>
    <i name="e_wo_entrp">   -478.29825722 </i>
    <i name="e_0_energy">   -478.33934960 </i>
   </energy>
  </scstep>
  <scstep>
   <time name="dav">    5.11    5.12</time>
   <time name="total">    5.40    5.41</time>
   <dipole>
    <v name="dipole">      0.00000000       0.00000000       0.04896880 </v>
    <i name="Tr[quadrupol]">  -8102.35174400 </i>
    <i name="Echarged">      0.00000000 </i>
    <i name="Edipol_quadrupol">      0.00000000 </i>
    <i name="Eion">      0.00000000 </i>
   </dipole>
   <energy>
    <i name="e_fr_energy">   -478.38163374 </i>
    <i name="e_wo_entrp">   -478.29899472 </i>
    <i name="e_0_energy">   -478.34031423 </i>
   </energy>
  </scstep>
  <scstep>
   <time name="dav">    4.82    4.83</time>
   <time name="total">    5.13    5.15</time>
   <dipole>
    <v name="dipole">      0.00000000       0.00000000       0.05810769 </v>
    <i name="Tr[quadrupol]">  -8102.40522875 </i>
    <i name="Echarged">      0.00000000 </i>
    <i name="Edipol_quadrupol">      0.00000000 </i>
    <i name="Eion">      0.00000000 </i>
   </dipole>
   <energy>
    <i name="e_fr_energy">   -478.38180660 </i>
    <i name="e_wo_entrp">   -478.29924379 </i>
    <i name="e_0_energy">   -478.34052519 </i>
   </energy>
  </scstep>
  <scstep>
   <time name="dav">    3.78    3.79</time>
   <time name="total">    4.07    4.08</time>
   <dipole>
    <v name="dipole">      0.00000000       0.00000000       0.06225648 </v>
    <i name="Tr[quadrupol]">  -8102.42777279 </i>
    <i name="Echarged">      0.00000000 </i>
    <i name="Edipol_quadrupol">      0.00000000 </i>
    <i name="Eion">      0.00000000 </i>
   </dipole>
   <energy>
    <i name="e_fr_energy">   -478.38186325 </i>
    <i name="e_wo_entrp">   -478.29924982 </i>
    <i name="e_0_energy">   -478.34055654 </i>
   </energy>
  </scstep>
  <scstep>
   <time name="dav">    3.72    3.73</time>
   <time name="total">    4.01    4.02</time>
   <dipole>
    <v name="dipole">      0.00000000       0.00000000       0.06384726 </v>
    <i name="Tr[quadrupol]">  -8102.43886594 </i>
    <i name="Echarged">      0.00000000 </i>
    <i name="Edipol_quadrupol">      0.00000000 </i>
    <i name="Eion">      0.00000000 </i>
   </dipole>
   <energy>
    <i name="e_fr_energy">   -478.38187912 </i>
    <i name="e_wo_entrp">   -478.29929891 </i>
    <i name="e_0_energy">   -478.34058901 </i>
   </energy>
  </scstep>
  <scstep>
   <time name="dav">    5.27    5.28</time>
   <time name="total">    5.56    5.57</time>
   <dipole>
    <v name="dipole">      0.00000000       0.00000000       0.05093894 </v>
    <i name="Tr[quadrupol]">  -8102.46207498 </i>
    <i name="Echarged">      0.00000000 </i>
    <i name="Edipol_quadrupol">      0.00000000 </i>
    <i name="Eion">      0.00000000 </i>
   </dipole>
   <energy>
    <i name="e_fr_energy">   -478.38225996 </i>
    <i name="e_wo_entrp">   -478.30082991 </i>
    <i name="e_0_energy">   -478.34154494 </i>
   </energy>
  </scstep>
  <scstep>
   <time name="dav">    4.89    4.90</time>
   <time name="total">    5.18    5.19</time>
   <dipole>
    <v name="dipole">      0.00000000       0.00000000       0.04495421 </v>
    <i name="Tr[quadrupol]">  -8102.48876381 </i>
    <i name="Echarged">      0.00000000 </i>
    <i name="Edipol_quadrupol">      0.00000000 </i>
    <i name="Eion">      0.00000000 </i>
   </dipole>
   <energy>
    <i name="e_fr_energy">   -478.38254045 </i>
    <i name="e_wo_entrp">   -478.30098641 </i>
    <i name="e_0_energy">   -478.34176343 </i>
   </energy>
  </scstep>
  <scstep>
   <time name="dav">    4.25    4.26</time>
   <time name="total">    4.54    4.56</time>
   <dipole>
    <v name="dipole">      0.00000000       0.00000000       0.04482203 </v>
    <i name="Tr[quadrupol]">  -8102.49944798 </i>
    <i name="Echarged">      0.00000000 </i>
    <i name="Edipol_quadrupol">      0.00000000 </i>
    <i name="Eion">      0.00000000 </i>
   </dipole>
   <energy>
    <i name="e_fr_energy">   -478.38262506 </i>
    <i name="e_wo_entrp">   -478.30066246 </i>
    <i name="e_0_energy">   -478.34164376 </i>
   </energy>
  </scstep>
  <scstep>
   <time name="dav">    4.87    4.88</time>
   <time name="total">    5.16    5.17</time>
   <dipole>
    <v name="dipole">      0.00000000       0.00000000       0.04204297 </v>
    <i name="Tr[quadrupol]">  -8102.51192828 </i>
    <i name="Echarged">      0.00000000 </i>
    <i name="Edipol_quadrupol">      0.00000000 </i>
    <i name="Eion">      0.00000000 </i>
   </dipole>
   <energy>
    <i name="e_fr_energy">   -478.38278654 </i>
    <i name="e_wo_entrp">   -478.30059138 </i>
    <i name="e_0_energy">   -478.34168896 </i>
   </energy>
  </scstep>
  <scstep>
   <time name="dav">    3.88    3.89</time>
   <time name="total">    4.17    4.19</time>
   <dipole>
    <v name="dipole">      0.00000000       0.00000000       0.03793143 </v>
    <i name="Tr[quadrupol]">  -8102.50926207 </i>
    <i name="Echarged">      0.00000000 </i>
    <i name="Edipol_quadrupol">      0.00000000 </i>
    <i name="Eion">      0.00000000 </i>
   </dipole>
   <energy>
    <i name="e_fr_energy">   -478.38283319 </i>
    <i name="e_wo_entrp">   -478.30094425 </i>
    <i name="e_0_energy">   -478.34188872 </i>
   </energy>
  </scstep>
  <scstep>
   <time name="dav">    3.86    3.87</time>
   <time name="total">    4.15    4.16</time>
   <dipole>
    <v name="dipole">      0.00000000       0.00000000       0.03656838 </v>
    <i name="Tr[quadrupol]">  -8102.50525801 </i>
    <i name="Echarged">      0.00000000 </i>
    <i name="Edipol_quadrupol">      0.00000000 </i>
    <i name="Eion">      0.00000000 </i>
   </dipole>
   <energy>
    <i name="e_fr_energy">   -478.38285301 </i>
    <i name="e_wo_entrp">   -478.30094590 </i>
    <i name="e_0_energy">   -478.34189946 </i>
   </energy>
  </scstep>
  <scstep>
   <time name="dav">    3.78    3.79</time>
   <time name="total">    4.07    4.08</time>
   <dipole>
    <v name="dipole">      0.00000000       0.00000000       0.03377951 </v>
    <i name="Tr[quadrupol]">  -8102.50595804 </i>
    <i name="Echarged">      0.00000000 </i>
    <i name="Edipol_quadrupol">      0.00000000 </i>
    <i name="Eion">      0.00000000 </i>
   </dipole>
   <energy>
    <i name="e_fr_energy">   -478.38292364 </i>
    <i name="e_wo_entrp">   -478.30106126 </i>
    <i name="e_0_energy">   -478.34199245 </i>
   </energy>
  </scstep>
  <scstep>
   <time name="dav">    3.75    3.76</time>
   <time name="total">    4.04    4.05</time>
   <dipole>
    <v name="dipole">      0.00000000       0.00000000       0.03299888 </v>
    <i name="Tr[quadrupol]">  -8102.50833344 </i>
    <i name="Echarged">      0.00000000 </i>
    <i name="Edipol_quadrupol">      0.00000000 </i>
    <i name="Eion">      0.00000000 </i>
   </dipole>
   <energy>
    <i name="e_fr_energy">   -478.38295224 </i>
    <i name="e_wo_entrp">   -478.30097880 </i>
    <i name="e_0_energy">   -478.34196552 </i>
   </energy>
  </scstep>
  <scstep>
   <time name="dav">    3.76    3.77</time>
   <time name="total">    3.86    3.87</time>
   <dipole>
    <v name="dipole">      0.00000000       0.00000000       0.03272832 </v>
    <i name="Tr[quadrupol]">  -8102.50586293 </i>
    <i name="Echarged">      0.00000000 </i>
    <i name="Edipol_quadrupol">      0.00000000 </i>
    <i name="Eion">      0.00000000 </i>
   </dipole>
   <energy>
    <i name="alphaZ">    177.02786204 </i>
    <i name="ewald">  28784.59497549 </i>
    <i name="hartreedc"> -41682.04326305 </i>
    <i name="XCdc">    963.40529355 </i>
    <i name="pawpsdc">  30956.43198499 </i>
    <i name="pawaedc"> -30899.12601153 </i>
    <i name="eentropy">     -0.08198291 </i>
    <i name="bandstr">  -3545.92810962 </i>
    <i name="atom">  14767.33628989 </i>
    <i name="e_fr_energy">   -478.38296116 </i>
    <i name="e_wo_entrp">   -478.30097825 </i>
    <i name="e_0_energy">   -478.34196971 </i>
   </energy>
  </scstep>
  <structure>
   <crystal>
    <varray name="basis" >
     <v>      13.75970367       0.00000000       0.00000000 </v>
     <v>       0.00000000      11.28669971       0.00000000 </v>
     <v>       0.00000000       0.00000000      15.00000000 </v>
    </varray>
    <i name="volume">   2329.52465126 </i>
    <varray name="rec_basis" >
     <v>       0.07267598       0.00000000       0.00000000 </v>
     <v>       0.00000000       0.08859986       0.00000000 </v>
     <v>       0.00000000       0.00000000       0.06666667 </v>
    </varray>
   </crystal>
   <varray name="positions" >
    <v>       0.07054120       0.38816457       0.22227495 </v>
    <v>       0.98151180       0.21832942       0.16785344 </v>
    <v>       0.22877304       0.39667288       0.18904348 </v>
    <v>       0.82472337       0.57572318       0.18403191 </v>
    <v>       0.14970601       0.24663792       0.12277753 </v>
    <v>       0.90758628       0.38434512       0.21811946 </v>
    <v>       0.56886571       0.39316130       0.23173729 </v>
    <v>       0.47768100       0.22391730       0.18017943 </v>
    <v>       0.73035049       0.39802658       0.19909345 </v>
    <v>       0.31101118       0.58132963       0.17977696 </v>
    <v>       0.64681854       0.25040749       0.13377315 </v>
    <v>       0.40275100       0.39355427       0.22106508 </v>
    <v>       0.81808056       0.88988957       0.05647519 </v>
    <v>       0.73319531       0.72568325       0.12448457 </v>
    <v>       0.97932824       0.89597624       0.07999408 </v>
    <v>       0.06867909       0.07698375       0.09423854 </v>
    <v>       0.90528082       0.74258583       0.14719628 </v>
    <v>       0.65472406       0.89333727       0.07691603 </v>
    <v>       0.31825350       0.89473226       0.05377466 </v>
    <v>       0.22716619       0.72126926       0.10084126 </v>
    <v>       0.47498917       0.90396535       0.09489577 </v>
    <v>       0.56592959       0.08075138       0.11024766 </v>
    <v>       0.38612516       0.76037560       0.16363174 </v>
    <v>       0.15509033       0.88950396       0.05271529 </v>
    <v>       0.98784551       0.43883046       0.24713656 </v>
    <v>       0.89991795       0.26975381       0.19549767 </v>
    <v>       0.15759857       0.43325808       0.24240148 </v>
    <v>       0.14788829       0.14353661       0.08017307 </v>
    <v>       0.98633649       0.10796021       0.13653167 </v>
    <v>       0.22915942       0.31533454       0.12527490 </v>
    <v>       0.06735802       0.28598388       0.16888911 </v>
    <v>       0.82274912       0.45552252       0.21014877 </v>
    <v>       0.48493735       0.44793349       0.25146232 </v>
    <v>       0.39648714       0.27665554       0.20625030 </v>
    <v>       0.65756919       0.43524210       0.25419888 </v>
    <v>       0.64488604       0.14640144       0.09374788 </v>
    <v>       0.48286722       0.11321356       0.15081376 </v>
    <v>       0.72606390       0.31870920       0.13454719 </v>
    <v>       0.56470606       0.29135323       0.18008364 </v>
    <v>       0.31888640       0.46086995       0.20329135 </v>
    <v>       0.73287748       0.94248397       0.03965616 </v>
    <v>       0.64891188       0.78317499       0.11254597 </v>
    <v>       0.90382696       0.93469024       0.03189926 </v>
    <v>       0.90701680       0.63807548       0.18754912 </v>
    <v>       0.73647441       0.61699787       0.15934394 </v>
    <v>       0.98321706       0.81212363       0.14197152 </v>
    <v>       0.81925020       0.78400528       0.10639513 </v>
    <v>       0.56804185       0.96074410       0.08520074 </v>
    <v>       0.23699719       0.94478449       0.02657725 </v>
    <v>       0.14820250       0.77173059       0.06843984 </v>
    <v>       0.40793432       0.93556381       0.03646331 </v>
    <v>       0.38047481       0.65838217       0.20939239 </v>
    <v>       0.23501053       0.60894863       0.12850628 </v>
    <v>       0.46527775       0.83024755       0.16578047 </v>
    <v>       0.31113112       0.79334051       0.10891910 </v>
    <v>       0.06990262       0.95754122       0.06514651 </v>
    <v>       0.57736557       0.77647674       0.24193941 </v>
    <v>       0.65582252       0.60772566       0.29790490 </v>
    <v>       0.48700699       0.61617049       0.29396059 </v>
   </varray>
  </structure>
  <varray name="forces" >
   <v>       0.00004558      -0.00596238      -0.02039246 </v>
   <v>       0.02589531       0.07633036       0.02860224 </v>
   <v>      -0.00215290       0.04934394      -0.02607685 </v>
   <v>       0.24128400       0.01062644       0.10384070 </v>
   <v>       0.02650998       0.10146160       0.06019388 </v>
   <v>       0.04926572       0.02195052       0.02836666 </v>
   <v>      -0.15445075      -0.12049968      -0.03624166 </v>
   <v>      -0.03172375       0.18055277       0.10308445 </v>
   <v>      -0.06789845       0.11357295       0.14653777 </v>
   <v>      -0.28149431      -0.13897944      -0.07160247 </v>
   <v>      -0.00857357       0.18303531       0.04121556 </v>
   <v>      -0.06011513       0.03069110       0.00319245 </v>
   <v>       0.04996759       0.01228745       0.01094433 </v>
   <v>       0.38334363      -0.04366796      -0.35938065 </v>
   <v>       0.01169311       0.15586372      -0.06462185 </v>
   <v>      -0.01455685       0.10708472      -0.01175916 </v>
   <v>       0.07013029       0.22270614      -0.10315307 </v>
   <v>       0.10783144       0.34746358      -0.17310260 </v>
   <v>      -0.08170523       0.05817956      -0.07918075 </v>
   <v>      -0.00051921       0.09981646       0.00728417 </v>
   <v>       0.14781814       0.29247912      -0.21911245 </v>
   <v>      -0.07765073       0.20906529       0.01129050 </v>
   <v>      -0.35017939      -0.10119139      -0.15479271 </v>
   <v>      -0.09765162       0.05988219       0.00234661 </v>
   <v>       0.04142005       0.00061208      -0.01854479 </v>
   <v>      -0.04780580      -0.00764078       0.00800327 </v>
   <v>       0.04700066       0.00277419      -0.00375094 </v>
   <v>      -0.04579919      -0.07143822      -0.01606489 </v>
   <v>       0.05909970      -0.02374999      -0.03042151 </v>
   <v>      -0.00321427      -0.07957953      -0.06814637 </v>
   <v>      -0.00565346      -0.00899967       0.01283724 </v>
   <v>      -0.00594580      -0.06318183       0.06940186 </v>
   <v>      -0.16175686      -1.00932778      -0.43018671 </v>
   <v>       0.08433884      -0.19564521       0.06558503 </v>
   <v>       0.29034944      -1.83740312      -0.45321319 </v>
   <v>      -0.03238018      -0.06301275      -0.01143493 </v>
   <v>       0.08460303      -0.17329220      -0.09133490 </v>
   <v>      -0.11254497      -0.13511728      -0.18759803 </v>
   <v>      -0.07943724      -0.18967551      -0.13464659 </v>
   <v>      -0.02984475      -0.00149391      -0.11285942 </v>
   <v>      -0.02044069      -0.04704711       0.02786842 </v>
   <v>       0.70355387       0.05302519      -1.35450499 </v>
   <v>       0.00771045      -0.02434634       0.03931294 </v>
   <v>      -0.09675726      -0.23099238       0.00699812 </v>
   <v>       0.30612065       0.03073350      -0.67027332 </v>
   <v>      -0.08523012      -0.20484876       0.06175342 </v>
   <v>      -0.05707653      -0.02411375       0.15492302 </v>
   <v>      -0.04870039      -0.14509756      -0.04840328 </v>
   <v>       0.13626914      -0.03035735       0.06545793 </v>
   <v>      -0.02259317      -0.05915989      -0.05214987 </v>
   <v>       0.04514768      -0.11257966       0.04199256 </v>
   <v>      -0.94748828       0.13513565      -0.89814655 </v>
   <v>       0.02487139       0.02136559       0.14047794 </v>
   <v>      -1.74581575       0.94913172      -1.19323388 </v>
   <v>       0.04431177      -0.01389695       0.04404083 </v>
   <v>      -0.03463874      -0.12680168      -0.03154530 </v>
   <v>       0.93215568       4.48152996       0.95207314 </v>
   <v>       4.31712426      -1.07625333       2.65108429 </v>
   <v>      -3.42606609      -1.64134768       2.23716682 </v>
  </varray>
  <varray name="stress" >
   <v>       6.82640777       4.09987683       1.05689141 </v>
   <v>       4.09987682       5.07350803      -3.16184147 </v>
   <v>       1.05689137      -3.16184143      -5.76507497 </v>
  </varray>
  <energy>
   <i name="e_fr_energy">   -478.38296116 </i>
   <i name="e_wo_entrp">   -478.30097825 </i>
   <i name="e_0_energy">   -478.34196971 </i>
  </energy>
  <time name="totalsc">  178.73  179.25</time>
 </calculation>
 <calculation>
  <scstep>
   <time name="dav">    4.92    4.93</time>
   <time name="total">    5.21    5.22</time>
   <dipole>
    <v name="dipole">      0.00000000       0.00000000       0.03272554 </v>
    <i name="Tr[quadrupol]">  -8112.59623448 </i>
    <i name="Echarged">      0.00000000 </i>
    <i name="Edipol_quadrupol">      0.00000000 </i>
    <i name="Eion">      0.00000000 </i>
   </dipole>
   <energy>
    <i name="alphaZ">    176.52721283 </i>
    <i name="ewald">  28588.97984748 </i>
    <i name="hartreedc"> -41481.21371496 </i>
    <i name="XCdc">    962.23714295 </i>
    <i name="pawpsdc">  30956.47492620 </i>
    <i name="pawaedc"> -30899.16909808 </i>
    <i name="eentropy">     -0.04075755 </i>
    <i name="bandstr">  -3550.23274281 </i>
    <i name="atom">  14767.33628989 </i>
    <i name="e_fr_energy">   -479.10089406 </i>
    <i name="e_wo_entrp">   -479.06013651 </i>
    <i name="e_0_energy">   -479.08051528 </i>
   </energy>
  </scstep>
  <scstep>
   <time name="dav">    5.45    5.46</time>
   <time name="total">    5.73    5.75</time>
   <dipole>
    <v name="dipole">      0.00000000       0.00000000       0.13049835 </v>
    <i name="Tr[quadrupol]">  -8112.54213789 </i>
    <i name="Echarged">      0.00000000 </i>
    <i name="Edipol_quadrupol">      0.00000000 </i>
    <i name="Eion">      0.00000000 </i>
   </dipole>
   <energy>
    <i name="e_fr_energy">   -479.89945791 </i>
    <i name="e_wo_entrp">   -479.82450604 </i>
    <i name="e_0_energy">   -479.86198197 </i>
   </energy>
  </scstep>
  <scstep>
   <time name="dav">    5.25    5.27</time>
   <time name="total">    5.54    5.55</time>
   <dipole>
    <v name="dipole">      0.00000000       0.00000000       0.06336196 </v>
    <i name="Tr[quadrupol]">  -8112.58488849 </i>
    <i name="Echarged">      0.00000000 </i>
    <i name="Edipol_quadrupol">      0.00000000 </i>
    <i name="Eion">      0.00000000 </i>
   </dipole>
   <energy>
    <i name="e_fr_energy">   -479.10981460 </i>
    <i name="e_wo_entrp">   -479.03651959 </i>
    <i name="e_0_energy">   -479.07316710 </i>
   </energy>
  </scstep>
  <scstep>
   <time name="dav">    5.28    5.29</time>
   <time name="total">    5.56    5.58</time>
   <dipole>
    <v name="dipole">      0.00000000       0.00000000       0.06359363 </v>
    <i name="Tr[quadrupol]">  -8112.58677366 </i>
    <i name="Echarged">      0.00000000 </i>
    <i name="Edipol_quadrupol">      0.00000000 </i>
    <i name="Eion">      0.00000000 </i>
   </dipole>
   <energy>
    <i name="e_fr_energy">   -479.10330881 </i>
    <i name="e_wo_entrp">   -479.02399890 </i>
    <i name="e_0_energy">   -479.06365385 </i>
   </energy>
  </scstep>
  <scstep>
   <time name="dav">    5.79    5.81</time>
   <time name="total">    6.08    6.10</time>
   <dipole>
    <v name="dipole">      0.00000000       0.00000000       0.04503545 </v>
    <i name="Tr[quadrupol]">  -8112.60854029 </i>
    <i name="Echarged">      0.00000000 </i>
    <i name="Edipol_quadrupol">      0.00000000 </i>
    <i name="Eion">      0.00000000 </i>
   </dipole>
   <energy>
    <i name="e_fr_energy">   -479.06743282 </i>
    <i name="e_wo_entrp">   -478.99710724 </i>
    <i name="e_0_energy">   -479.03227003 </i>
   </energy>
  </scstep>
  <scstep>
   <time name="dav">    5.32    5.34</time>
   <time name="total">    5.61    5.63</time>
   <dipole>
    <v name="dipole">      0.00000000       0.00000000       0.03836983 </v>
    <i name="Tr[quadrupol]">  -8112.62099022 </i>
    <i name="Echarged">      0.00000000 </i>
    <i name="Edipol_quadrupol">      0.00000000 </i>
    <i name="Eion">      0.00000000 </i>
   </dipole>
   <energy>
    <i name="e_fr_energy">   -479.07195140 </i>
    <i name="e_wo_entrp">   -479.00334138 </i>
    <i name="e_0_energy">   -479.03764639 </i>
   </energy>
  </scstep>
  <scstep>
   <time name="dav">    5.27    5.29</time>
   <time name="total">    5.56    5.58</time>
   <dipole>
    <v name="dipole">      0.00000000       0.00000000       0.04188094 </v>
    <i name="Tr[quadrupol]">  -8112.61622487 </i>
    <i name="Echarged">      0.00000000 </i>
    <i name="Edipol_quadrupol">      0.00000000 </i>
    <i name="Eion">      0.00000000 </i>
   </dipole>
   <energy>
    <i name="e_fr_energy">   -479.06689312 </i>
    <i name="e_wo_entrp">   -478.99585912 </i>
    <i name="e_0_energy">   -479.03137612 </i>
   </energy>
  </scstep>
  <scstep>
   <time name="dav">    5.56    5.58</time>
   <time name="total">    5.85    5.87</time>
   <dipole>
    <v name="dipole">      0.00000000       0.00000000       0.04490679 </v>
    <i name="Tr[quadrupol]">  -8112.61097883 </i>
    <i name="Echarged">      0.00000000 </i>
    <i name="Edipol_quadrupol">      0.00000000 </i>
    <i name="Eion">      0.00000000 </i>
   </dipole>
   <energy>
    <i name="e_fr_energy">   -479.06230063 </i>
    <i name="e_wo_entrp">   -478.98752364 </i>
    <i name="e_0_energy">   -479.02491213 </i>
   </energy>
  </scstep>
  <scstep>
   <time name="dav">    5.22    5.25</time>
   <time name="total">    5.51    5.54</time>
   <dipole>
    <v name="dipole">      0.00000000       0.00000000       0.04661673 </v>
    <i name="Tr[quadrupol]">  -8112.60900100 </i>
    <i name="Echarged">      0.00000000 </i>
    <i name="Edipol_quadrupol">      0.00000000 </i>
    <i name="Eion">      0.00000000 </i>
   </dipole>
   <energy>
    <i name="e_fr_energy">   -479.06190383 </i>
    <i name="e_wo_entrp">   -478.98581240 </i>
    <i name="e_0_energy">   -479.02385811 </i>
   </energy>
  </scstep>
  <scstep>
   <time name="dav">    5.88    5.91</time>
   <time name="total">    6.17    6.20</time>
   <dipole>
    <v name="dipole">      0.00000000       0.00000000       0.04862143 </v>
    <i name="Tr[quadrupol]">  -8112.60623563 </i>
    <i name="Echarged">      0.00000000 </i>
    <i name="Edipol_quadrupol">      0.00000000 </i>
    <i name="Eion">      0.00000000 </i>
   </dipole>
   <energy>
    <i name="e_fr_energy">   -479.06134839 </i>
    <i name="e_wo_entrp">   -478.98333565 </i>
    <i name="e_0_energy">   -479.02234202 </i>
   </energy>
  </scstep>
  <scstep>
   <time name="dav">    5.17    5.20</time>
   <time name="total">    5.46    5.49</time>
   <dipole>
    <v name="dipole">      0.00000000       0.00000000       0.04900029 </v>
    <i name="Tr[quadrupol]">  -8112.60608559 </i>
    <i name="Echarged">      0.00000000 </i>
    <i name="Edipol_quadrupol">      0.00000000 </i>
    <i name="Eion">      0.00000000 </i>
   </dipole>
   <energy>
    <i name="e_fr_energy">   -479.06151128 </i>
    <i name="e_wo_entrp">   -478.98352947 </i>
    <i name="e_0_energy">   -479.02252037 </i>
   </energy>
  </scstep>
  <scstep>
   <time name="dav">    3.97    3.98</time>
   <time name="total">    4.06    4.08</time>
   <dipole>
    <v name="dipole">      0.00000000       0.00000000       0.04931248 </v>
    <i name="Tr[quadrupol]">  -8112.60593964 </i>
    <i name="Echarged">      0.00000000 </i>
    <i name="Edipol_quadrupol">      0.00000000 </i>
    <i name="Eion">      0.00000000 </i>
   </dipole>
   <energy>
    <i name="alphaZ">    176.59342279 </i>
    <i name="ewald">  28588.97984748 </i>
    <i name="hartreedc"> -41491.77457964 </i>
    <i name="XCdc">    962.67555854 </i>
    <i name="pawpsdc">  30783.15912903 </i>
    <i name="pawaedc"> -30724.48158432 </i>
    <i name="eentropy">     -0.07824837 </i>
    <i name="bandstr">  -3541.47134587 </i>
    <i name="atom">  14767.33628989 </i>
    <i name="e_fr_energy">   -479.06151048 </i>
    <i name="e_wo_entrp">   -478.98326210 </i>
    <i name="e_0_energy">   -479.02238629 </i>
   </energy>
  </scstep>
  <structure>
   <crystal>
    <varray name="basis" >
     <v>      13.78203771       0.00000000       0.00000000 </v>
     <v>       0.00000000      11.30031545       0.00000000 </v>
     <v>       0.00000000       0.00000000      15.00000000 </v>
    </varray>
    <i name="volume">   2336.12060412 </i>
    <varray name="rec_basis" >
     <v>       0.07255821       0.00000000       0.00000000 </v>
     <v>       0.00000000       0.08849310       0.00000000 </v>
     <v>       0.00000000       0.00000000       0.06666667 </v>
    </varray>
   </crystal>
   <varray name="positions" >
    <v>       0.07054123       0.38815948       0.22226183 </v>
    <v>       0.98152996       0.21839467       0.16787184 </v>
    <v>       0.22877153       0.39671506       0.18902671 </v>
    <v>       0.82489256       0.57573226       0.18409871 </v>
    <v>       0.14972460       0.24672465       0.12281625 </v>
    <v>       0.90762083       0.38436388       0.21813770 </v>
    <v>       0.56875741       0.39305829       0.23171398 </v>
    <v>       0.47765876       0.22407164       0.18024574 </v>
    <v>       0.73030288       0.39812367       0.19918771 </v>
    <v>       0.31081379       0.58121082       0.17973090 </v>
    <v>       0.64681253       0.25056396       0.13379966 </v>
    <v>       0.40270884       0.39358050       0.22106713 </v>
    <v>       0.81811560       0.88990007       0.05648223 </v>
    <v>       0.73346411       0.72564592       0.12425341 </v>
    <v>       0.97933644       0.89610948       0.07995251 </v>
    <v>       0.06866888       0.07707530       0.09423098 </v>
    <v>       0.90533000       0.74277621       0.14712993 </v>
    <v>       0.65479967       0.89363431       0.07680469 </v>
    <v>       0.31819620       0.89478200       0.05372373 </v>
    <v>       0.22716582       0.72135459       0.10084595 </v>
    <v>       0.47509282       0.90421538       0.09475482 </v>
    <v>       0.56587514       0.08093010       0.11025492 </v>
    <v>       0.38587961       0.76028909       0.16353217 </v>
    <v>       0.15502185       0.88955515       0.05271679 </v>
    <v>       0.98787456       0.43883098       0.24712463 </v>
    <v>       0.89988442       0.26974728       0.19550282 </v>
    <v>       0.15763153       0.43326045       0.24239907 </v>
    <v>       0.14785617       0.14347554       0.08016274 </v>
    <v>       0.98637793       0.10793991       0.13651210 </v>
    <v>       0.22915717       0.31526651       0.12523107 </v>
    <v>       0.06735405       0.28597619       0.16889737 </v>
    <v>       0.82274495       0.45546850       0.21019342 </v>
    <v>       0.48482392       0.44707066       0.25118560 </v>
    <v>       0.39654628       0.27648829       0.20629249 </v>
    <v>       0.65777278       0.43367138       0.25390736 </v>
    <v>       0.64486334       0.14634757       0.09374053 </v>
    <v>       0.48292654       0.11306542       0.15075501 </v>
    <v>       0.72598498       0.31859369       0.13442652 </v>
    <v>       0.56465036       0.29119108       0.17999703 </v>
    <v>       0.31886548       0.46086867       0.20321876 </v>
    <v>       0.73286315       0.94244375       0.03967409 </v>
    <v>       0.64940522       0.78322032       0.11167470 </v>
    <v>       0.90383236       0.93466943       0.03192455 </v>
    <v>       0.90694895       0.63787802       0.18755362 </v>
    <v>       0.73668907       0.61702414       0.15891279 </v>
    <v>       0.98315730       0.81194851       0.14201124 </v>
    <v>       0.81921018       0.78398466       0.10649478 </v>
    <v>       0.56800770       0.96062006       0.08516960 </v>
    <v>       0.23709275       0.94475854       0.02661935 </v>
    <v>       0.14818666       0.77168002       0.06840630 </v>
    <v>       0.40796598       0.93546757       0.03649032 </v>
    <v>       0.37981042       0.65849769       0.20881467 </v>
    <v>       0.23502797       0.60896690       0.12859664 </v>
    <v>       0.46405356       0.83105892       0.16501294 </v>
    <v>       0.31116219       0.79332863       0.10894743 </v>
    <v>       0.06987833       0.95743282       0.06512622 </v>
    <v>       0.57801921       0.78030781       0.24255182 </v>
    <v>       0.65884976       0.60680562       0.29961017 </v>
    <v>       0.48460457       0.61476737       0.29539961 </v>
   </varray>
  </structure>
  <varray name="forces" >
   <v>       0.03092410       0.00999961      -0.02147911 </v>
   <v>       0.02095936       0.04231809       0.00984109 </v>
   <v>      -0.00562274       0.02156786      -0.03810643 </v>
   <v>       0.06213818       0.07542152      -0.02470238 </v>
   <v>       0.01151312       0.02059514       0.02244611 </v>
   <v>       0.05099719       0.00313835       0.01355974 </v>
   <v>      -0.07732763      -0.34897424      -0.20222827 </v>
   <v>       0.07469094       0.01183927      -0.00882096 </v>
   <v>      -0.00076359      -0.16336577      -0.13438969 </v>
   <v>      -0.29021821      -0.02659222      -0.14547300 </v>
   <v>      -0.04789377       0.08703566       0.00678518 </v>
   <v>      -0.05240078      -0.16400135      -0.05755541 </v>
   <v>      -0.01591474      -0.01814494       0.06456776 </v>
   <v>       0.33607344       0.03679650      -0.39744315 </v>
   <v>      -0.03389263       0.03778227       0.00249527 </v>
   <v>       0.01185558       0.09647482      -0.01373529 </v>
   <v>      -0.04165540       0.02148989      -0.02216730 </v>
   <v>       0.16955114       0.14899405      -0.16396211 </v>
   <v>       0.07365454      -0.01898644       0.01536064 </v>
   <v>       0.04827226       0.09955955       0.02199868 </v>
   <v>      -0.12570159       0.25720521      -0.32848687 </v>
   <v>      -0.00013383       0.16786992      -0.02192398 </v>
   <v>      -0.44515870       0.04867102      -0.35490722 </v>
   <v>       0.00873294      -0.00511624       0.00323986 </v>
   <v>       0.02847532      -0.05437000      -0.06250967 </v>
   <v>       0.05566044       0.03471814      -0.00368116 </v>
   <v>      -0.01528569      -0.03840467      -0.05559538 </v>
   <v>      -0.09218290      -0.01158906       0.04204766 </v>
   <v>       0.08673868       0.06804110      -0.01259052 </v>
   <v>      -0.05846093      -0.06372127      -0.00879760 </v>
   <v>      -0.01216005      -0.00078528       0.02584914 </v>
   <v>       0.01254636      -0.06470118       0.09270231 </v>
   <v>      -0.10014749      -0.65443310      -0.32237357 </v>
   <v>       0.02315296      -0.09585965       0.08087738 </v>
   <v>       0.14786336      -1.26822434      -0.11391480 </v>
   <v>      -0.10498753      -0.05008222       0.03558719 </v>
   <v>       0.07167850      -0.00836705      -0.02105705 </v>
   <v>      -0.08673989      -0.05218885      -0.14048899 </v>
   <v>      -0.11031893      -0.17497234      -0.14334605 </v>
   <v>      -0.06890761      -0.06339894      -0.11991717 </v>
   <v>       0.10770227       0.03625338       0.01911789 </v>
   <v>       0.45226473      -0.02733150      -1.17450688 </v>
   <v>       0.03324667      -0.04397613       0.07245844 </v>
   <v>      -0.04753306      -0.06214203      -0.04889966 </v>
   <v>       0.35286033      -0.12375326      -0.55467008 </v>
   <v>      -0.06095261      -0.06240461      -0.06174593 </v>
   <v>       0.07292239       0.09254859       0.12828171 </v>
   <v>      -0.00061948       0.00471737      -0.06382597 </v>
   <v>      -0.03614785      -0.04203546       0.08730956 </v>
   <v>       0.02408993       0.03005783      -0.03889338 </v>
   <v>      -0.07381204      -0.03203749      -0.12593238 </v>
   <v>      -0.61000290      -0.00387583      -0.62660498 </v>
   <v>      -0.07756460       0.06660961       0.04792968 </v>
   <v>      -1.09186872       0.60439029      -0.59223164 </v>
   <v>      -0.21071472      -0.00435100      -0.13912590 </v>
   <v>      -0.01759836      -0.05783085      -0.01797639 </v>
   <v>       0.70638297       2.69895446       1.55685106 </v>
   <v>       2.66423498      -0.26040895       2.19726922 </v>
   <v>      -1.72649365      -0.75662323       1.83749073 </v>
  </varray>
  <varray name="stress" >
   <v>       1.58910651       4.11785655       1.34778677 </v>
   <v>       4.11785656       0.21801497      -1.92945750 </v>
   <v>       1.34778680      -1.92945751      -6.27520679 </v>
  </varray>
  <energy>
   <i name="e_fr_energy">   -479.06151048 </i>
   <i name="e_wo_entrp">   -478.98326210 </i>
   <i name="e_0_energy">   -479.02238629 </i>
  </energy>
  <time name="totalsc">   72.13   72.41</time>
 </calculation>
 <calculation>
  <scstep>
   <time name="dav">    4.87    4.89</time>
   <time name="total">    5.15    5.18</time>
   <dipole>
    <v name="dipole">      0.00000000       0.00000000       0.04978361 </v>
    <i name="Tr[quadrupol]">  -8129.60242474 </i>
    <i name="Echarged">      0.00000000 </i>
    <i name="Edipol_quadrupol">      0.00000000 </i>
    <i name="Eion">      0.00000000 </i>
   </dipole>
   <energy>
    <i name="alphaZ">    175.76506417 </i>
    <i name="ewald">  28273.15823162 </i>
    <i name="hartreedc"> -41165.73477537 </i>
    <i name="XCdc">    960.80049567 </i>
    <i name="pawpsdc">  30783.23169227 </i>
    <i name="pawaedc"> -30724.55476797 </i>
    <i name="eentropy">     -0.01614868 </i>
    <i name="bandstr">  -3549.61605632 </i>
    <i name="atom">  14767.33628989 </i>
    <i name="e_fr_energy">   -479.62997473 </i>
    <i name="e_wo_entrp">   -479.61382605 </i>
    <i name="e_0_energy">   -479.62190039 </i>
   </energy>
  </scstep>
  <scstep>
   <time name="dav">    5.42    5.44</time>
   <time name="total">    5.70    5.73</time>
   <dipole>
    <v name="dipole">      0.00000000       0.00000000       0.15816850 </v>
    <i name="Tr[quadrupol]">  -8129.44983805 </i>
    <i name="Echarged">      0.00000000 </i>
    <i name="Edipol_quadrupol">      0.00000000 </i>
    <i name="Eion">      0.00000000 </i>
   </dipole>
   <energy>
    <i name="e_fr_energy">   -480.96517885 </i>
    <i name="e_wo_entrp">   -480.85292616 </i>
    <i name="e_0_energy">   -480.90905250 </i>
   </energy>
  </scstep>
  <scstep>
   <time name="dav">    5.25    5.27</time>
   <time name="total">    5.54    5.56</time>
   <dipole>
    <v name="dipole">      0.00000000       0.00000000       0.06275287 </v>
    <i name="Tr[quadrupol]">  -8129.61221990 </i>
    <i name="Echarged">      0.00000000 </i>
    <i name="Edipol_quadrupol">      0.00000000 </i>
    <i name="Eion">      0.00000000 </i>
   </dipole>
   <energy>
    <i name="e_fr_energy">   -479.64984513 </i>
    <i name="e_wo_entrp">   -479.59254727 </i>
    <i name="e_0_energy">   -479.62119620 </i>
   </energy>
  </scstep>
  <scstep>
   <time name="dav">    5.14    5.16</time>
   <time name="total">    5.43    5.45</time>
   <dipole>
    <v name="dipole">      0.00000000       0.00000000       0.06566340 </v>
    <i name="Tr[quadrupol]">  -8129.61044097 </i>
    <i name="Echarged">      0.00000000 </i>
    <i name="Edipol_quadrupol">      0.00000000 </i>
    <i name="Eion">      0.00000000 </i>
   </dipole>
   <energy>
    <i name="e_fr_energy">   -479.62370099 </i>
    <i name="e_wo_entrp">   -479.54866712 </i>
    <i name="e_0_energy">   -479.58618406 </i>
   </energy>
  </scstep>
  <scstep>
   <time name="dav">    5.29    5.32</time>
   <time name="total">    5.58    5.61</time>
   <dipole>
    <v name="dipole">      0.00000000       0.00000000       0.06902578 </v>
    <i name="Tr[quadrupol]">  -8129.60329132 </i>
    <i name="Echarged">      0.00000000 </i>
    <i name="Edipol_quadrupol">      0.00000000 </i>
    <i name="Eion">      0.00000000 </i>
   </dipole>
   <energy>
    <i name="e_fr_energy">   -479.60234671 </i>
    <i name="e_wo_entrp">   -479.53476000 </i>
    <i name="e_0_energy">   -479.56855336 </i>
   </energy>
  </scstep>
  <scstep>
   <time name="dav">    5.22    5.25</time>
   <time name="total">    5.51    5.54</time>
   <dipole>
    <v name="dipole">      0.00000000       0.00000000       0.07112137 </v>
    <i name="Tr[quadrupol]">  -8129.61461685 </i>
    <i name="Echarged">      0.00000000 </i>
    <i name="Edipol_quadrupol">      0.00000000 </i>
    <i name="Eion">      0.00000000 </i>
   </dipole>
   <energy>
    <i name="e_fr_energy">   -479.60691743 </i>
    <i name="e_wo_entrp">   -479.54112142 </i>
    <i name="e_0_energy">   -479.57401943 </i>
   </energy>
  </scstep>
  <scstep>
   <time name="dav">    5.31    5.33</time>
   <time name="total">    5.59    5.62</time>
   <dipole>
    <v name="dipole">      0.00000000       0.00000000       0.06769754 </v>
    <i name="Tr[quadrupol]">  -8129.62055582 </i>
    <i name="Echarged">      0.00000000 </i>
    <i name="Edipol_quadrupol">      0.00000000 </i>
    <i name="Eion">      0.00000000 </i>
   </dipole>
   <energy>
    <i name="e_fr_energy">   -479.60103001 </i>
    <i name="e_wo_entrp">   -479.53695898 </i>
    <i name="e_0_energy">   -479.56899450 </i>
   </energy>
  </scstep>
  <scstep>
   <time name="dav">    5.33    5.36</time>
   <time name="total">    5.62    5.65</time>
   <dipole>
    <v name="dipole">      0.00000000       0.00000000       0.06495081 </v>
    <i name="Tr[quadrupol]">  -8129.62568502 </i>
    <i name="Echarged">      0.00000000 </i>
[...]
       <r>    1.8373    0.0000 </r>
       <r>    1.9329    0.0000 </r>
       <r>    1.9657    0.0000 </r>
       <r>    2.0544    0.0000 </r>
       <r>    2.2873    0.0000 </r>
       <r>    2.5081    0.0000 </r>
       <r>    2.6138    0.0000 </r>
       <r>    2.7209    0.0000 </r>
       <r>    2.7476    0.0000 </r>
      </set>
     </set>
    </set>
   </array>
  </eigenvalues>
  <separator name="orbital magnetization" >
   <v name="MAGDIPOLOUT">      0.00000000      0.00000000      0.00000000</v>
  </separator>
  <dos>
   <i name="efermi">     -1.99915905 </i>
   <total>
    <array>
     <dimension dim="1">gridpoints</dimension>
     <dimension dim="2">spin</dimension>
     <field>energy</field>
     <field>total</field>
     <field>integrated</field>
     <set>
      <set comment="spin 1">
       <r>   -27.7041     0.0000     0.0000 </r>
       <r>   -27.5976     0.0000     0.0000 </r>
       <r>   -27.4910     0.0000     0.0000 </r>
       <r>   -27.3845     0.0000     0.0000 </r>
       <r>   -27.2779     0.0000     0.0000 </r>
       <r>   -27.1713     0.0000     0.0000 </r>
       <r>   -27.0648     0.0000     0.0000 </r>
       <r>   -26.9582     0.0000     0.0000 </r>
       <r>   -26.8517     0.0000     0.0000 </r>
       <r>   -26.7451     0.0000     0.0000 </r>
       <r>   -26.6385     0.0000     0.0000 </r>
       <r>   -26.5320     0.0002     0.0000 </r>
       <r>   -26.4254     0.0437     0.0047 </r>
       <r>   -26.3189     1.4659     0.1609 </r>
       <r>   -26.2123     9.5241     1.1757 </r>
       <r>   -26.1057    20.5476     3.3653 </r>
       <r>   -25.9992    26.8507     6.2264 </r>
       <r>   -25.8926    14.6714     7.7898 </r>
       <r>   -25.7861     1.9289     7.9953 </r>
       <r>   -25.6795     0.0435     8.0000 </r>
       <r>   -25.5730     0.0001     8.0000 </r>
       <r>   -25.4664     0.0000     8.0000 </r>
       <r>   -25.3598     0.0027     8.0003 </r>
       <r>   -25.2533     0.2651     8.0285 </r>
       <r>   -25.1467     4.2088     8.4770 </r>
       <r>   -25.0402    14.2200     9.9923 </r>
       <r>   -24.9336    15.5008    11.6440 </r>
       <r>   -24.8270    11.6873    12.8894 </r>
       <r>   -24.7205     8.7472    13.8215 </r>
       <r>   -24.6139     9.3071    14.8132 </r>
       <r>   -24.5074     5.6687    15.4173 </r>
       <r>   -24.4008     0.7599    15.4983 </r>
       <r>   -24.2943     0.0352    15.5020 </r>
       <r>   -24.1877     0.5772    15.5635 </r>
       <r>   -24.0811     2.6011    15.8407 </r>
       <r>   -23.9746     6.3844    16.5210 </r>
       <r>   -23.8680    24.1320    19.0925 </r>
       <r>   -23.7615    32.2650    22.5306 </r>
       <r>   -23.6549    15.4700    24.1790 </r>
       <r>   -23.5483     2.8476    24.4825 </r>
       <r>   -23.4418     0.1686    24.5004 </r>
       <r>   -23.3352     0.4228    24.5455 </r>
       <r>   -23.2287     4.5811    25.0337 </r>
       <r>   -23.1221    10.1077    26.1107 </r>
       <r>   -23.0156     8.0939    26.9732 </r>
       <r>   -22.9090     8.8731    27.9187 </r>
       <r>   -22.8024    12.5231    29.2531 </r>
       <r>   -22.6959    12.8064    30.6178 </r>
       <r>   -22.5893     9.6543    31.6465 </r>
       <r>   -22.4828     3.0858    31.9753 </r>
       <r>   -22.3762     0.2288    31.9997 </r>
       <r>   -22.2696     0.0030    32.0000 </r>
       <r>   -22.1631     0.0738    32.0079 </r>
       <r>   -22.0565     2.0055    32.2216 </r>
       <r>   -21.9500    13.2625    33.6348 </r>
       <r>   -21.8434    34.8286    37.3461 </r>
       <r>   -21.7369    38.9899    41.5008 </r>
       <r>   -21.6303    29.9030    44.6872 </r>
       <r>   -21.5237    22.5274    47.0877 </r>
       <r>   -21.4172     7.9105    47.9307 </r>
       <r>   -21.3106     0.7124    48.0066 </r>
       <r>   -21.2041     1.2471    48.1395 </r>
       <r>   -21.0975     5.2700    48.7010 </r>
       <r>   -20.9909    14.8305    50.2813 </r>
       <r>   -20.8844    21.8813    52.6130 </r>
       <r>   -20.7778    19.2385    54.6630 </r>
       <r>   -20.6713    10.1743    55.7471 </r>
       <r>   -20.5647     2.7683    56.0421 </r>
       <r>   -20.4581     8.1295    56.9084 </r>
       <r>   -20.3516    23.8893    59.4540 </r>
       <r>   -20.2450    25.3970    62.1603 </r>
       <r>   -20.1385    14.3877    63.6934 </r>
       <r>   -20.0319     2.7527    63.9867 </r>
       <r>   -19.9254     0.1237    63.9999 </r>
       <r>   -19.8188     0.0010    64.0000 </r>
       <r>   -19.7122     0.0000    64.0000 </r>
       <r>   -19.6057     0.0000    64.0000 </r>
       <r>   -19.4991     0.0000    64.0000 </r>
       <r>   -19.3926     0.0000    64.0000 </r>
       <r>   -19.2860     0.0000    64.0000 </r>
       <r>   -19.1794     0.0000    64.0000 </r>
       <r>   -19.0729     0.0000    64.0000 </r>
       <r>   -18.9663     0.0000    64.0000 </r>
       <r>   -18.8598     0.0000    64.0000 </r>
       <r>   -18.7532     0.0000    64.0000 </r>
       <r>   -18.6467     0.0000    64.0000 </r>
       <r>   -18.5401     0.0000    64.0000 </r>
       <r>   -18.4335     0.0000    64.0000 </r>
       <r>   -18.3270     0.0000    64.0000 </r>
       <r>   -18.2204     0.0000    64.0000 </r>
       <r>   -18.1139     0.0000    64.0000 </r>
       <r>   -18.0073     0.0000    64.0000 </r>
       <r>   -17.9007     0.0000    64.0000 </r>
       <r>   -17.7942     0.0000    64.0000 </r>
       <r>   -17.6876     0.0071    64.0008 </r>
       <r>   -17.5811     0.5122    64.0553 </r>
       <r>   -17.4745     5.7127    64.6641 </r>
       <r>   -17.3680    14.5786    66.2176 </r>
       <r>   -17.2614    15.3539    67.8536 </r>
       <r>   -17.1548    12.1958    69.1532 </r>
       <r>   -17.0483    18.0247    71.0739 </r>
       <r>   -16.9417    21.8551    73.4027 </r>
       <r>   -16.8352    19.9125    75.5246 </r>
       <r>   -16.7286    12.4721    76.8536 </r>
       <r>   -16.6220    10.5174    77.9743 </r>
       <r>   -16.5155    10.6847    79.1129 </r>
       <r>   -16.4089     3.4517    79.4807 </r>
       <r>   -16.3024     0.2144    79.5035 </r>
       <r>   -16.1958     0.7870    79.5874 </r>
       <r>   -16.0893     2.5403    79.8581 </r>
       <r>   -15.9827     1.2435    79.9906 </r>
       <r>   -15.8761     0.0877    79.9999 </r>
       <r>   -15.7696     0.0308    80.0032 </r>
       <r>   -15.6630     1.4219    80.1547 </r>
       <r>   -15.5565    13.0675    81.5472 </r>
       <r>   -15.4499    30.8047    84.8297 </r>
       <r>   -15.3433    21.2044    87.0892 </r>
       <r>   -15.2368     4.9150    87.6129 </r>
       <r>   -15.1302     2.8425    87.9158 </r>
       <r>   -15.0237     2.3986    88.1714 </r>
       <r>   -14.9171     2.5822    88.4466 </r>
       <r>   -14.8105     1.9531    88.6547 </r>
       <r>   -14.7040     2.5213    88.9233 </r>
       <r>   -14.5974     0.8904    89.0182 </r>
       <r>   -14.4909     4.0238    89.4470 </r>
       <r>   -14.3843    13.7853    90.9159 </r>
       <r>   -14.2778    12.5258    92.2507 </r>
       <r>   -14.1712    10.8486    93.4067 </r>
       <r>   -14.0646    11.1257    94.5922 </r>
       <r>   -13.9581    14.0927    96.0939 </r>
       <r>   -13.8515    24.7766    98.7341 </r>
       <r>   -13.7450    26.8896   101.5994 </r>
       <r>   -13.6384    31.4997   104.9559 </r>
       <r>   -13.5318    31.4813   108.3106 </r>
       <r>   -13.4253    21.7335   110.6264 </r>
       <r>   -13.3187    17.4948   112.4907 </r>
       <r>   -13.2122    15.0081   114.0899 </r>
       <r>   -13.1056     5.3041   114.6551 </r>
       <r>   -12.9991     5.9549   115.2896 </r>
       <r>   -12.8925     7.4705   116.0857 </r>
       <r>   -12.7859     8.5011   116.9916 </r>
       <r>   -12.6794     7.8714   117.8303 </r>
       <r>   -12.5728     5.3676   118.4023 </r>
       <r>   -12.4663     5.0976   118.9455 </r>
       <r>   -12.3597     8.4108   119.8417 </r>
       <r>   -12.2531     6.9860   120.5861 </r>
       <r>   -12.1466     6.0478   121.2306 </r>
       <r>   -12.0400     6.7592   121.9508 </r>
       <r>   -11.9335    13.5719   123.3970 </r>
       <r>   -11.8269    18.6897   125.3886 </r>
       <r>   -11.7204    21.5826   127.6884 </r>
       <r>   -11.6138    22.7116   130.1085 </r>
       <r>   -11.5072    19.6282   132.2001 </r>
       <r>   -11.4007    18.5533   134.1771 </r>
       <r>   -11.2941    18.6500   136.1644 </r>
       <r>   -11.1876    18.5204   138.1379 </r>
       <r>   -11.0810    10.9403   139.3037 </r>
       <r>   -10.9744     9.3362   140.2985 </r>
       <r>   -10.8679     5.8907   140.9262 </r>
       <r>   -10.7613     4.5079   141.4066 </r>
       <r>   -10.6548     9.6677   142.4368 </r>
       <r>   -10.5482    19.8605   144.5531 </r>
       <r>   -10.4417    21.6539   146.8605 </r>
       <r>   -10.3351    17.9449   148.7727 </r>
       <r>   -10.2285    15.7212   150.4479 </r>
       <r>   -10.1220    11.2177   151.6432 </r>
       <r>   -10.0154     3.2999   151.9949 </r>
       <r>    -9.9089     1.7522   152.1816 </r>
       <r>    -9.8023     3.8614   152.5930 </r>
       <r>    -9.6957     8.2627   153.4735 </r>
       <r>    -9.5892    10.3521   154.5766 </r>
       <r>    -9.4826    14.7384   156.1471 </r>
       <r>    -9.3761    20.9966   158.3845 </r>
       <r>    -9.2695    14.2924   159.9074 </r>
       <r>    -9.1629    21.9889   162.2506 </r>
       <r>    -9.0564    32.0948   165.6705 </r>
       <r>    -8.9498    19.4923   167.7476 </r>
       <r>    -8.8433    10.6026   168.8774 </r>
       <r>    -8.7367     8.9106   169.8269 </r>
       <r>    -8.6302     1.7477   170.0131 </r>
       <r>    -8.5236     1.7218   170.1966 </r>
       <r>    -8.4170     4.4164   170.6672 </r>
       <r>    -8.3105    10.8279   171.8210 </r>
       <r>    -8.2039    16.7123   173.6018 </r>
       <r>    -8.0974    18.4271   175.5654 </r>
       <r>    -7.9908    18.1556   177.5000 </r>
       <r>    -7.8842    23.2226   179.9746 </r>
       <r>    -7.7777    15.2580   181.6005 </r>
       <r>    -7.6711     3.5492   181.9787 </r>
       <r>    -7.5646     1.5984   182.1490 </r>
       <r>    -7.4580    14.8202   183.7282 </r>
       <r>    -7.3515    35.1317   187.4718 </r>
       <r>    -7.2449    33.6668   191.0593 </r>
       <r>    -7.1383    31.0968   194.3729 </r>
       <r>    -7.0318    36.0569   198.2151 </r>
       <r>    -6.9252    33.5918   201.7946 </r>
       <r>    -6.8187    19.8914   203.9142 </r>
       <r>    -6.7121    11.1945   205.1070 </r>
       <r>    -6.6055    10.3886   206.2140 </r>
       <r>    -6.4990    20.3114   208.3784 </r>
       <r>    -6.3924    32.8877   211.8828 </r>
       <r>    -6.2859    27.8516   214.8507 </r>
       <r>    -6.1793    17.5957   216.7256 </r>
       <r>    -6.0728    11.9733   218.0015 </r>
       <r>    -5.9662    13.0521   219.3923 </r>
       <r>    -5.8596    19.0675   221.4241 </r>
       <r>    -5.7531    22.1449   223.7838 </r>
       <r>    -5.6465    23.8846   226.3289 </r>
       <r>    -5.5400    30.9621   229.6282 </r>
       <r>    -5.4334    26.9829   232.5035 </r>
       <r>    -5.3268    33.0531   236.0255 </r>
       <r>    -5.2203    29.5065   239.1697 </r>
       <r>    -5.1137    30.9443   242.4671 </r>
       <r>    -5.0072    36.5014   246.3566 </r>
       <r>    -4.9006    28.9844   249.4452 </r>
       <r>    -4.7941    27.4245   252.3675 </r>
       <r>    -4.6875    32.9867   255.8825 </r>
       <r>    -4.5809    28.4334   258.9123 </r>
       <r>    -4.4744    15.3736   260.5505 </r>
       <r>    -4.3678    12.5736   261.8903 </r>
       <r>    -4.2613    25.0432   264.5589 </r>
       <r>    -4.1547    40.4801   268.8724 </r>
       <r>    -4.0481    32.4484   272.3301 </r>
       <r>    -3.9416    22.0020   274.6746 </r>
       <r>    -3.8350    10.9586   275.8423 </r>
       <r>    -3.7285     2.8223   276.1430 </r>
       <r>    -3.6219     8.4480   277.0432 </r>
       <r>    -3.5153     7.8669   277.8815 </r>
       <r>    -3.4088     1.0917   277.9978 </r>
       <r>    -3.3022     0.0241   278.0004 </r>
       <r>    -3.1957     0.4214   278.0453 </r>
       <r>    -3.0891     6.4955   278.7375 </r>
       <r>    -2.9826    18.6123   280.7208 </r>
       <r>    -2.8760    16.0199   282.4278 </r>
       <r>    -2.7694    12.7487   283.7863 </r>
       <r>    -2.6629    11.4521   285.0066 </r>
       <r>    -2.5563     8.1474   285.8748 </r>
       <r>    -2.4498     1.1530   285.9977 </r>
       <r>    -2.3432     0.0595   286.0040 </r>
       <r>    -2.2366     1.5379   286.1679 </r>
       <r>    -2.1301     8.7108   287.0961 </r>
       <r>    -2.0235     7.6968   287.9162 </r>
       <r>    -1.9170     4.7369   288.4210 </r>
       <r>    -1.8104    12.8225   289.7873 </r>
       <r>    -1.7039    12.8564   291.1573 </r>
       <r>    -1.5973    12.2172   292.4592 </r>
       <r>    -1.4907    12.3187   293.7718 </r>
       <r>    -1.3842     9.1990   294.7520 </r>
       <r>    -1.2776     8.8159   295.6914 </r>
       <r>    -1.1711    15.3713   297.3294 </r>
       <r>    -1.0645    24.6061   299.9514 </r>
       <r>    -0.9579    24.4494   302.5567 </r>
       <r>    -0.8514    11.6636   303.7995 </r>
       <r>    -0.7448     4.7446   304.3051 </r>
       <r>    -0.6383     9.3971   305.3064 </r>
       <r>    -0.5317    18.8875   307.3191 </r>
       <r>    -0.4252    23.2596   309.7976 </r>
       <r>    -0.3186    21.8776   312.1288 </r>
       <r>    -0.2120    14.4450   313.6681 </r>
       <r>    -0.1055     3.0022   313.9880 </r>
       <r>     0.0011     0.1123   313.9999 </r>
       <r>     0.1076     0.0006   314.0000 </r>
       <r>     0.2142     0.0026   314.0003 </r>
       <r>     0.3208     0.3083   314.0331 </r>
       <r>     0.4273     4.6609   314.5298 </r>
       <r>     0.5339    10.2101   315.6178 </r>
       <r>     0.6404     3.4232   315.9825 </r>
       <r>     0.7470     0.2245   316.0065 </r>
       <r>     0.8535     1.6291   316.1801 </r>
       <r>     0.9601     9.5271   317.1953 </r>
       <r>     1.0667    17.3883   319.0481 </r>
       <r>     1.1732    17.5660   320.9199 </r>
       <r>     1.2798    14.8277   322.4999 </r>
       <r>     1.3863    18.7126   324.4939 </r>
       <r>     1.4929    19.1486   326.5344 </r>
       <r>     1.5995    21.4210   328.8169 </r>
       <r>     1.7060    24.2669   331.4028 </r>
       <r>     1.8126    23.3442   333.8903 </r>
       <r>     1.9191    24.4814   336.4990 </r>
       <r>     2.0257    25.9794   339.2673 </r>
       <r>     2.1323    18.4447   341.2328 </r>
       <r>     2.2388    11.1911   342.4253 </r>
       <r>     2.3454    10.6869   343.5641 </r>
       <r>     2.4519    12.4754   344.8934 </r>
       <r>     2.5585    17.2359   346.7301 </r>
       <r>     2.6650    19.6354   348.8224 </r>
       <r>     2.7716    18.9603   350.8427 </r>
       <r>     2.8782     9.5128   351.8564 </r>
       <r>     2.9847     1.3090   351.9959 </r>
       <r>     3.0913     0.0383   352.0000 </r>
       <r>     3.1978     0.0002   352.0000 </r>
       <r>     3.3044     0.0000   352.0000 </r>
       <r>     3.4110     0.0000   352.0000 </r>
       <r>     3.5175     0.0000   352.0000 </r>
       <r>     3.6241     0.0000   352.0000 </r>
       <r>     3.7306     0.0000   352.0000 </r>
       <r>     3.8372     0.0000   352.0000 </r>
       <r>     3.9437     0.0000   352.0000 </r>
       <r>     4.0503     0.0000   352.0000 </r>
       <r>     4.1569     0.0000   352.0000 </r>
       <r>     4.2634     0.0000   352.0000 </r>
      </set>
     </set>
    </array>
   </total>
  </dos>
 </calculation>
 <structure name="finalpos" >
  <crystal>
   <varray name="basis" >
    <v>      13.70349963       0.00000000       0.00000000 </v>
    <v>       0.00000000      10.80008621       0.00000000 </v>
    <v>       0.00000000       0.00000000      15.00000000 </v>
   </varray>
   <i name="volume">   2219.98466060 </i>
   <varray name="rec_basis" >
    <v>       0.07297406       0.00000000       0.00000000 </v>
    <v>       0.00000000       0.09259185       0.00000000 </v>
    <v>       0.00000000       0.00000000       0.06666667 </v>
   </varray>
  </crystal>
  <varray name="positions" >
   <v>       0.07106964       0.38729828       0.23091685 </v>
   <v>       0.98036384       0.21894953       0.16573096 </v>
   <v>       0.23019988       0.39462773       0.20040736 </v>
   <v>       0.81848508       0.58152730       0.18895271 </v>
   <v>       0.14944758       0.25047041       0.12321151 </v>
   <v>       0.90745039       0.38640251       0.22575363 </v>
   <v>       0.57063884       0.39181210       0.23346643 </v>
   <v>       0.47911413       0.22105521       0.17485766 </v>
   <v>       0.73092807       0.39616236       0.20390712 </v>
   <v>       0.31235860       0.58369351       0.18782678 </v>
   <v>       0.64626168       0.25768653       0.12433308 </v>
   <v>       0.40583022       0.39233350       0.22825012 </v>
   <v>       0.81662424       0.88955054       0.04278685 </v>
   <v>       0.72787915       0.72162125       0.11049810 </v>
   <v>       0.97679646       0.89656963       0.06877740 </v>
   <v>       0.06699563       0.08024389       0.08281604 </v>
   <v>       0.89804121       0.75375736       0.14893401 </v>
   <v>       0.65284408       0.88923521       0.05229913 </v>
   <v>       0.31716145       0.89052797       0.03950425 </v>
   <v>       0.22619399       0.72041768       0.10280387 </v>
   <v>       0.47533190       0.90125374       0.07509226 </v>
   <v>       0.56549601       0.08415655       0.09005448 </v>
   <v>       0.39160704       0.76117039       0.15244443 </v>
   <v>       0.15332846       0.88667214       0.04178668 </v>
   <v>       0.98820586       0.44081341       0.25625167 </v>
   <v>       0.89911919       0.26836761       0.19837905 </v>
   <v>       0.15890984       0.42800030       0.25568662 </v>
   <v>       0.14696019       0.14903270       0.07308740 </v>
   <v>       0.98405828       0.10889602       0.12576662 </v>
   <v>       0.23020012       0.31843852       0.13113803 </v>
   <v>       0.06702592       0.28722099       0.17146926 </v>
   <v>       0.82136710       0.45788779       0.22071774 </v>
   <v>       0.48836633       0.45105151       0.25356631 </v>
   <v>       0.39981225       0.26939586       0.21157421 </v>
   <v>       0.66027387       0.42457160       0.26233510 </v>
   <v>       0.64356129       0.15516606       0.07566851 </v>
   <v>       0.48375816       0.11040777       0.13576549 </v>
   <v>       0.72623745       0.32754292       0.13057185 </v>
   <v>       0.56518369       0.29220666       0.17474689 </v>
   <v>       0.31977152       0.46034061       0.21586298 </v>
   <v>       0.73310837       0.94308844       0.01973859 </v>
   <v>       0.64557400       0.77097896       0.08029396 </v>
   <v>       0.90404959       0.92867210       0.01483897 </v>
   <v>       0.89811535       0.65096616       0.19781918 </v>
   <v>       0.73344871       0.61084420       0.14985482 </v>
   <v>       0.97789731       0.82294148       0.13961582 </v>
   <v>       0.81436422       0.78972159       0.10253294 </v>
   <v>       0.56736200       0.96084864       0.05877309 </v>
   <v>       0.23453674       0.94169032       0.01196718 </v>
   <v>       0.14587997       0.76746644       0.06724811 </v>
   <v>       0.40609163       0.93110379       0.01683672 </v>
   <v>       0.38783186       0.66018753       0.20438726 </v>
   <v>       0.23118229       0.61013369       0.14250766 </v>
   <v>       0.47160953       0.82986689       0.14733360 </v>
   <v>       0.31195442       0.79168578       0.10017770 </v>
   <v>       0.06780939       0.95789361       0.04964986 </v>
   <v>       0.58670250       0.77929202       0.42238784 </v>
   <v>       0.66915768       0.57133454       0.37274468 </v>
   <v>       0.49722668       0.63383757       0.30647023 </v>
  </varray>
 </structure>
</modeling>
