slab_Cel1-OPT                           
           1
    13.759704    0.000000    0.000000
     0.000000   11.286700    0.000000
     0.000000    0.000000   15.000000
   C    N    Au   Ag   Pd
    24    32     1     1     1
Direct configuration=     1
   0.07054120  0.38816457  0.22227495
   0.98151180  0.21832942  0.16785344
   0.22877304  0.39667288  0.18904348
   0.82472337  0.57572318  0.18403191
   0.14970601  0.24663792  0.12277753
   0.90758628  0.38434512  0.21811946
   0.56886571  0.39316130  0.23173729
   0.47768100  0.22391730  0.18017943
   0.73035049  0.39802658  0.19909345
   0.31101118  0.58132963  0.17977696
   0.64681854  0.25040749  0.13377315
   0.40275100  0.39355427  0.22106508
   0.81808056  0.88988957  0.05647519
   0.73319531  0.72568325  0.12448457
   0.97932824  0.89597624  0.07999408
   0.06867909  0.07698375  0.09423854
   0.90528082  0.74258583  0.14719628
   0.65472406  0.89333727  0.07691603
   0.31825350  0.89473226  0.05377466
   0.22716619  0.72126926  0.10084126
   0.47498917  0.90396535  0.09489577
   0.56592959  0.08075138  0.11024766
   0.38612516  0.76037560  0.16363174
   0.15509033  0.88950396  0.05271529
   0.98784551  0.43883046  0.24713656
   0.89991795  0.26975381  0.19549767
   0.15759857  0.43325808  0.24240148
   0.14788829  0.14353661  0.08017307
   0.98633649  0.10796021  0.13653167
   0.22915942  0.31533454  0.12527490
   0.06735802  0.28598388  0.16888911
   0.82274912  0.45552252  0.21014877
   0.48493735  0.44793349  0.25146232
   0.39648714  0.27665554  0.20625030
   0.65756919  0.43524210  0.25419888
   0.64488604  0.14640144  0.09374788
   0.48286722  0.11321356  0.15081376
   0.72606390  0.31870920  0.13454719
   0.56470606  0.29135323  0.18008364
   0.31888640  0.46086995  0.20329135
   0.73287748  0.94248397  0.03965616
   0.64891188  0.78317499  0.11254597
   0.90382696  0.93469024  0.03189926
   0.90701680  0.63807548  0.18754912
   0.73647441  0.61699787  0.15934394
   0.98321706  0.81212363  0.14197152
   0.81925020  0.78400528  0.10639513
   0.56804185  0.96074410  0.08520074
   0.23699719  0.94478449  0.02657725
   0.14820250  0.77173059  0.06843984
   0.40793432  0.93556381  0.03646331
   0.38047481  0.65838217  0.20939239
   0.23501053  0.60894863  0.12850628
   0.46527775  0.83024755  0.16578047
   0.31113112  0.79334051  0.10891910
   0.06990262  0.95754122  0.06514651
   0.57736557  0.77647674  0.24193941
   0.65582252  0.60772566  0.29790490
   0.48700699  0.61617049  0.29396059
slab_Cel1-OPT                           
           1
    13.782038    0.000000    0.000000
     0.000000   11.300315    0.000000
     0.000000    0.000000   15.000000
   C    N    Au   Ag   Pd
    24    32     1     1     1
Direct configuration=     2
   0.07054123  0.38815948  0.22226183
   0.98152996  0.21839467  0.16787184
   0.22877153  0.39671506  0.18902671
   0.82489256  0.57573226  0.18409871
   0.14972460  0.24672465  0.12281625
   0.90762083  0.38436388  0.21813770
   0.56875741  0.39305829  0.23171398
   0.47765876  0.22407164  0.18024574
   0.73030288  0.39812367  0.19918771
   0.31081379  0.58121082  0.17973090
   0.64681253  0.25056396  0.13379966
   0.40270884  0.39358050  0.22106713
   0.81811560  0.88990007  0.05648223
   0.73346411  0.72564592  0.12425341
   0.97933644  0.89610948  0.07995251
   0.06866888  0.07707530  0.09423098
   0.90533000  0.74277621  0.14712993
   0.65479967  0.89363431  0.07680469
   0.31819620  0.89478200  0.05372373
   0.22716582  0.72135459  0.10084595
   0.47509282  0.90421538  0.09475482
   0.56587514  0.08093010  0.11025492
   0.38587961  0.76028909  0.16353217
   0.15502185  0.88955515  0.05271679
   0.98787456  0.43883098  0.24712463
   0.89988442  0.26974728  0.19550282
   0.15763153  0.43326045  0.24239907
   0.14785617  0.14347554  0.08016274
   0.98637793  0.10793991  0.13651210
   0.22915717  0.31526651  0.12523107
   0.06735405  0.28597619  0.16889737
   0.82274495  0.45546850  0.21019342
   0.48482392  0.44707066  0.25118560
   0.39654628  0.27648829  0.20629249
   0.65777278  0.43367138  0.25390736
   0.64486334  0.14634757  0.09374053
   0.48292654  0.11306542  0.15075501
   0.72598498  0.31859369  0.13442652
   0.56465036  0.29119108  0.17999703
   0.31886548  0.46086867  0.20321876
   0.73286315  0.94244375  0.03967409
   0.64940522  0.78322032  0.11167470
   0.90383236  0.93466943  0.03192455
   0.90694895  0.63787802  0.18755362
   0.73668907  0.61702414  0.15891279
   0.98315730  0.81194851  0.14201124
   0.81921018  0.78398466  0.10649478
   0.56800770  0.96062006  0.08516960
   0.23709275  0.94475854  0.02661935
   0.14818666  0.77168002  0.06840630
   0.40796598  0.93546757  0.03649032
   0.37981042  0.65849769  0.20881467
   0.23502797  0.60896690  0.12859664
   0.46405356  0.83105892  0.16501294
   0.31116219  0.79332863  0.10894743
   0.06987833  0.95743282  0.06512622
   0.57801921  0.78030781  0.24255182
   0.65884976  0.60680562  0.29961017
   0.48460457  0.61476737  0.29539961
slab_Cel1-OPT                           
           1
    13.819241    0.000000    0.000000
     0.000000   11.322996    0.000000
     0.000000    0.000000   15.000000
   C    N    Au   Ag   Pd
    24    32     1     1     1
Direct configuration=     3
   0.07054129  0.38815100  0.22223998
   0.98156016  0.21850324  0.16790248
   0.22876901  0.39678525  0.18899877
   0.82517394  0.57574738  0.18420997
   0.14975552  0.24686896  0.12288074
   0.90767828  0.38439510  0.21816810
   0.56857729  0.39288691  0.23167515
   0.47762176  0.22432844  0.18035619
   0.73022370  0.39828520  0.19934473
   0.31048552  0.58101315  0.17965418
   0.64680253  0.25082428  0.13384382
   0.40263874  0.39362416  0.22107055
   0.81817387  0.88991755  0.05649396
   0.73391116  0.72558381  0.12386833
   0.97935007  0.89633116  0.07988327
   0.06865191  0.07722760  0.09421838
   0.90541178  0.74309296  0.14701940
   0.65492542  0.89412850  0.07661921
   0.31810092  0.89486475  0.05363889
   0.22716522  0.72149656  0.10085375
   0.47526520  0.90463137  0.09452005
   0.56578459  0.08122745  0.11026702
   0.38547124  0.76014517  0.16336631
   0.15490798  0.88964032  0.05271931
   0.98792286  0.43883185  0.24710476
   0.89982867  0.26973641  0.19551140
   0.15768634  0.43326440  0.24239505
   0.14780276  0.14337394  0.08014552
   0.98644685  0.10790613  0.13647950
   0.22915342  0.31515333  0.12515805
   0.06734746  0.28596339  0.16891112
   0.82273802  0.45537864  0.21026778
   0.48463529  0.44563510  0.25072466
   0.39664464  0.27621003  0.20636276
   0.65811138  0.43105806  0.25342175
   0.64482558  0.14625795  0.09372827
   0.48302521  0.11281895  0.15065714
   0.72585373  0.31840151  0.13422551
   0.56455772  0.29092131  0.17985275
   0.31883067  0.46086655  0.20309783
   0.73283931  0.94237683  0.03970395
   0.65022569  0.78329573  0.11022336
   0.90384136  0.93463480  0.03196667
   0.90683612  0.63754948  0.18756112
   0.73704606  0.61706785  0.15819460
   0.98305791  0.81165716  0.14207741
   0.81914362  0.78395037  0.10666078
   0.56795090  0.96041369  0.08511774
   0.23725166  0.94471536  0.02668949
   0.14816031  0.77159588  0.06835042
   0.40801863  0.93530745  0.03653532
   0.37870548  0.65868990  0.20785232
   0.23505697  0.60899729  0.12874716
   0.46201762  0.83240886  0.16373441
   0.31121387  0.79330886  0.10899462
   0.06983794  0.95725247  0.06509242
   0.57910628  0.78668185  0.24357195
   0.66388430  0.60527487  0.30245078
   0.48060916  0.61243289  0.29779671
slab_Cel1-OPT                           
           1
    13.832312    0.000000    0.000000
     0.000000   11.330965    0.000000
     0.000000    0.000000   15.000000
   C    N    Au   Ag   Pd
    24    32     1     1     1
Direct configuration=     4
   0.07054131  0.38814802  0.22223230
   0.98157074  0.21854130  0.16791325
   0.22876814  0.39680985  0.18898895
   0.82527253  0.57575268  0.18424906
   0.14976635  0.24691956  0.12290340
   0.90769841  0.38440605  0.21817878
   0.56851418  0.39282681  0.23166151
   0.47760880  0.22441848  0.18039500
   0.73019595  0.39834184  0.19939989
   0.31037050  0.58094384  0.17962722
   0.64679903  0.25091556  0.13385933
   0.40261418  0.39363946  0.22107175
   0.81819429  0.88992368  0.05649808
   0.73406780  0.72556203  0.12373305
   0.97935485  0.89640889  0.07985894
   0.06864596  0.07728100  0.09421395
   0.90544044  0.74320402  0.14698057
   0.65496948  0.89430178  0.07655405
   0.31806754  0.89489376  0.05360908
   0.22716500  0.72154634  0.10085649
   0.47532560  0.90477723  0.09443756
   0.56575286  0.08133171  0.11027127
   0.38532815  0.76009470  0.16330804
   0.15486807  0.88967018  0.05272019
   0.98793979  0.43883216  0.24709778
   0.89980914  0.26973260  0.19551441
   0.15770554  0.43326578  0.24239364
   0.14778405  0.14333831  0.08013948
   0.98647100  0.10789429  0.13646805
   0.22915211  0.31511364  0.12513240
   0.06734515  0.28595890  0.16891596
   0.82273559  0.45534713  0.21029390
   0.48456919  0.44513176  0.25056272
   0.39667910  0.27611246  0.20638745
   0.65823002  0.43014176  0.25325114
   0.64481235  0.14622653  0.09372397
   0.48305977  0.11273253  0.15062276
   0.72580775  0.31833413  0.13415489
   0.56452526  0.29082672  0.17980207
   0.31881848  0.46086580  0.20305534
   0.73283096  0.94235337  0.03971444
   0.65051317  0.78332218  0.10971347
   0.90384451  0.93462266  0.03198147
   0.90679658  0.63743428  0.18756376
   0.73717114  0.61708318  0.15794228
   0.98302308  0.81155500  0.14210066
   0.81912029  0.78393834  0.10671910
   0.56793100  0.96034133  0.08509952
   0.23730734  0.94470022  0.02671413
   0.14815108  0.77156638  0.06833079
   0.40803708  0.93525131  0.03655113
   0.37831832  0.65875729  0.20751422
   0.23506714  0.60900794  0.12880005
   0.46130426  0.83288219  0.16328522
   0.31123198  0.79330193  0.10901120
   0.06982378  0.95718923  0.06508054
   0.57948716  0.78891676  0.24393036
   0.66564833  0.60473815  0.30344877
   0.47920923  0.61161436  0.29863889
slab_Cel1-OPT                           
           1
    13.802564    0.000000    0.000000
     0.000000   11.301649    0.000000
     0.000000    0.000000   15.000000
   C    N    Au   Ag   Pd
    24    32     1     1     1
Direct configuration=     5
   0.07062727  0.38820469  0.22220892
   0.98158230  0.21853333  0.16789428
   0.22874987  0.39677287  0.18892039
   0.82503616  0.57602015  0.18400485
   0.14974794  0.24675404  0.12286259
   0.90775060  0.38437340  0.21816469
   0.56860498  0.39174311  0.23112081
   0.47790513  0.22399297  0.18017449
   0.73042846  0.39740079  0.19865958
   0.30996809  0.58111821  0.17931813
   0.64666231  0.25076596  0.13378067
   0.40251164  0.39289125  0.22089403
   0.81803722  0.88987185  0.05665221
   0.73436962  0.72580310  0.12319090
   0.97921861  0.89620717  0.07995476
   0.06870344  0.07739039  0.09419819
   0.90519169  0.74280444  0.14710289
   0.65527867  0.89407007  0.07636258
   0.31847418  0.89469798  0.05378369
   0.22730133  0.72170982  0.10090181
   0.47469255  0.90514803  0.09380447
   0.56590814  0.08145187  0.11017566
   0.38460734  0.76056918  0.16252795
   0.15507977  0.88953014  0.05272574
   0.98796608  0.43861357  0.24694794
   0.90008799  0.26987988  0.19549026
   0.15757377  0.43310790  0.24223645
   0.14758091  0.14347262  0.08029411
   0.98663929  0.10822470  0.13648443
   0.22897260  0.31505598  0.12523107
   0.06732318  0.28598254  0.16897008
   0.82280190  0.45522138  0.21044278
   0.48458890  0.44497165  0.25040527
   0.39658723  0.27621380  0.20651385
   0.65802071  0.42941519  0.25379437
   0.64454670  0.14622759  0.09386257
   0.48310102  0.11315154  0.15073488
   0.72576400  0.31846603  0.13408835
   0.56431043  0.29062502  0.17963258
   0.31864707  0.46062860  0.20289752
   0.73325561  0.94260979  0.03971032
   0.65065974  0.78309526  0.10866050
   0.90392526  0.93450862  0.03213637
   0.90683402  0.63770567  0.18741210
   0.73768557  0.61655861  0.15751574
   0.98298120  0.81174777  0.14182777
   0.81948992  0.78433230  0.10680911
   0.56803446  0.96072389  0.08501244
   0.23692725  0.94460643  0.02685733
   0.14828747  0.77180443  0.06831705
   0.40768557  0.93540597  0.03607836
   0.37819316  0.65842245  0.20728237
   0.23476445  0.60921762  0.12868559
   0.46105123  0.83299855  0.16368192
   0.31043323  0.79331391  0.10851971
   0.06984177  0.95726136  0.06508557
   0.58016632  0.79074455  0.24624291
   0.66729160  0.60537408  0.30553076
   0.47870394  0.61157538  0.30040094
slab_Cel1-OPT                           
           1
    13.766821    0.000000    0.000000
     0.000000   11.266425    0.000000
     0.000000    0.000000   15.000000
   C    N    Au   Ag   Pd
    24    32     1     1     1
Direct configuration=     6
   0.07073078  0.38827295  0.22218083
   0.98159622  0.21852373  0.16787148
   0.22872788  0.39672831  0.18883801
   0.82475154  0.57634235  0.18371143
   0.14972577  0.24655465  0.12281354
   0.90781344  0.38433407  0.21814776
   0.56871431  0.39043765  0.23047116
   0.47826193  0.22348038  0.17990954
   0.73070843  0.39626718  0.19777008
   0.30948355  0.58132826  0.17894674
   0.64649768  0.25058574  0.13368616
   0.40238817  0.39198992  0.22068050
   0.81784809  0.88980941  0.05683739
   0.73473305  0.72609349  0.12253950
   0.97905457  0.89596418  0.08006989
   0.06877265  0.07752217  0.09417925
   0.90489218  0.74232309  0.14724987
   0.65565097  0.89379094  0.07613254
   0.31896383  0.89446213  0.05399350
   0.22746548  0.72190675  0.10095626
   0.47393029  0.90559470  0.09304379
   0.56609511  0.08159663  0.11006078
   0.38373941  0.76114075  0.16159067
   0.15533468  0.88936143  0.05273240
   0.98799775  0.43835026  0.24676791
   0.90042376  0.27005730  0.19546124
   0.15741510  0.43291771  0.24204759
   0.14733632  0.14363441  0.08047989
   0.98684193  0.10862271  0.13650410
   0.22875645  0.31498652  0.12534962
   0.06729672  0.28601101  0.16903510
   0.82288173  0.45506990  0.21062166
   0.48461264  0.44477877  0.25021609
   0.39647662  0.27633587  0.20666571
   0.65776866  0.42853994  0.25444708
   0.64422684  0.14622888  0.09402910
   0.48315068  0.11365628  0.15086959
   0.72571132  0.31862493  0.13400841
   0.56405175  0.29038204  0.17942894
   0.31844068  0.46034285  0.20270790
   0.73376693  0.94291869  0.03970537
   0.65083622  0.78282190  0.10739536
   0.90402250  0.93437125  0.03232249
   0.90687911  0.63803259  0.18722989
   0.73830498  0.61592669  0.15700324
   0.98293077  0.81197999  0.14149989
   0.81993498  0.78480688  0.10691727
   0.56815904  0.96118472  0.08490782
   0.23646959  0.94449345  0.02702939
   0.14845171  0.77209119  0.06830055
   0.40726231  0.93559227  0.03551032
   0.37804246  0.65801910  0.20700380
   0.23439999  0.60947020  0.12854807
   0.46074656  0.83313872  0.16415856
   0.30947147  0.79332834  0.10792918
   0.06986343  0.95734824  0.06509162
   0.58098409  0.79294635  0.24902147
   0.66927026  0.60614013  0.30803229
   0.47809552  0.61152842  0.30251808
slab_Cel1-OPT                           
           1
    13.754026    0.000000    0.000000
     0.000000   11.251921    0.000000
     0.000000    0.000000   15.000000
   C    N    Au   Ag   Pd
    24    32     1     1     1
Direct configuration=     7
   0.07069302  0.38816016  0.22208555
   0.98174135  0.21867577  0.16787759
   0.22869711  0.39665429  0.18879660
   0.82478921  0.57615266  0.18359579
   0.14958289  0.24661200  0.12290634
   0.90783835  0.38440885  0.21814115
   0.56863843  0.39009063  0.23033923
   0.47809102  0.22352641  0.17992796
   0.73070082  0.39618503  0.19790925
   0.30933877  0.58124955  0.17879072
   0.64638444  0.25046734  0.13353791
   0.40236240  0.39189381  0.22056821
   0.81821731  0.88992978  0.05692484
   0.73482068  0.72590829  0.12206449
   0.97908079  0.89593409  0.08006868
   0.06870154  0.07739752  0.09416141
   0.90502653  0.74253023  0.14722713
   0.65578569  0.89384500  0.07580375
   0.31832702  0.89454955  0.05377715
   0.22710595  0.72201711  0.10078853
   0.47380887  0.90561195  0.09303239
   0.56599111  0.08133163  0.10999931
   0.38341411  0.76106024  0.16134079
   0.15521885  0.88944782  0.05276415
   0.98802004  0.43842479  0.24676175
   0.90042373  0.27000961  0.19544622
   0.15747639  0.43297872  0.24202013
   0.14738410  0.14363182  0.08043577
   0.98686291  0.10860754  0.13647548
   0.22875821  0.31491628  0.12532301
   0.06735180  0.28600057  0.16904248
   0.82286448  0.45496934  0.21069697
   0.48475676  0.44467972  0.25002541
   0.39644432  0.27568332  0.20664307
   0.65797387  0.42784613  0.25475505
   0.64433114  0.14635112  0.09400572
   0.48316356  0.11345127  0.15078823
   0.72565856  0.31817134  0.13340007
   0.56406169  0.28995761  0.17901221
   0.31821250  0.46015607  0.20253070
   0.73396483  0.94339478  0.03966609
   0.65077561  0.78215391  0.10652814
   0.90396917  0.93439897  0.03230792
   0.90698622  0.63796510  0.18724044
   0.73830620  0.61583054  0.15631526
   0.98292376  0.81183068  0.14149833
   0.82005072  0.78504934  0.10705713
   0.56812891  0.96135458  0.08473290
   0.23667328  0.94455644  0.02712501
   0.14841483  0.77198360  0.06828381
   0.40700416  0.93592886  0.03481597
   0.37808526  0.65813681  0.20669882
   0.23388916  0.60949072  0.12834321
   0.46066061  0.83352904  0.16425151
   0.30920128  0.79348899  0.10750696
   0.06986037  0.95742568  0.06508630
   0.58163614  0.79424124  0.25160450
   0.67043196  0.60704399  0.31011018
   0.47809811  0.61181114  0.30421401
slab_Cel1-OPT                           
           1
    13.720395    0.000000    0.000000
     0.000000   11.213798    0.000000
     0.000000    0.000000   15.000000
   C    N    Au   Ag   Pd
    24    32     1     1     1
Direct configuration=     8
   0.07059369  0.38786333  0.22183511
   0.98212314  0.21907589  0.16789364
   0.22861615  0.39645947  0.18868775
   0.82488831  0.57565343  0.18329186
   0.14920701  0.24676295  0.12315024
   0.90790389  0.38460566  0.21812378
   0.56843881  0.38917736  0.22999248
   0.47764137  0.22364756  0.17997638
   0.73068082  0.39596882  0.19827505
   0.30895788  0.58104239  0.17838063
   0.64608653  0.25015574  0.13314823
   0.40229459  0.39164088  0.22027309
   0.81918864  0.89024658  0.05715470
   0.73505121  0.72542087  0.12081599
   0.97914977  0.89585490  0.08006548
   0.06851445  0.07706947  0.09411450
   0.90537998  0.74307538  0.14716735
   0.65614010  0.89398728  0.07493958
   0.31665169  0.89477960  0.05320853
   0.22616008  0.72230752  0.10034767
   0.47348942  0.90565734  0.09300240
   0.56571750  0.08063423  0.10983775
   0.38255829  0.76084837  0.16068400
   0.15491412  0.88967517  0.05284760
   0.98807869  0.43862094  0.24674556
   0.90042364  0.26988410  0.19540675
   0.15763765  0.43313931  0.24194797
   0.14750979  0.14362499  0.08031978
   0.98691809  0.10856762  0.13640024
   0.22876285  0.31473142  0.12525306
   0.06749669  0.28597309  0.16906188
   0.82281909  0.45470470  0.21089491
   0.48513591  0.44441902  0.24952422
   0.39635937  0.27396599  0.20658358
   0.65851374  0.42602019  0.25556451
   0.64460551  0.14667282  0.09394428
   0.48319746  0.11291173  0.15057440
   0.72551977  0.31697761  0.13180112
   0.56408786  0.28884059  0.17791687
   0.31761222  0.45966450  0.20206495
   0.73448546  0.94464773  0.03956286
   0.65061615  0.78039593  0.10424876
   0.90382886  0.93447192  0.03226962
   0.90726800  0.63778749  0.18726817
   0.73830939  0.61557750  0.15450701
   0.98290531  0.81143773  0.14149423
   0.82035520  0.78568744  0.10742474
   0.56804967  0.96180160  0.08427313
   0.23720914  0.94472221  0.02737634
   0.14831783  0.77170044  0.06823983
   0.40632501  0.93681468  0.03299095
   0.37819786  0.65844659  0.20589722
   0.23254526  0.60954475  0.12780477
   0.46043449  0.83455626  0.16449582
   0.30849046  0.79391178  0.10639721
   0.06985232  0.95762949  0.06507232
   0.58335158  0.79764908  0.25839362
   0.67348817  0.60942274  0.31557161
   0.47810492  0.61255519  0.30867155
slab_Cel1-OPT                           
           1
    13.730142    0.000000    0.000000
     0.000000   11.212549    0.000000
     0.000000    0.000000   15.000000
   C    N    Au   Ag   Pd
    24    32     1     1     1
Direct configuration=     9
   0.07066161  0.38793110  0.22183381
   0.98217279  0.21908581  0.16788329
   0.22853782  0.39628816  0.18861280
   0.82493462  0.57542546  0.18313031
   0.14921314  0.24677247  0.12314830
   0.90781976  0.38467525  0.21814303
   0.56863334  0.38925804  0.23012152
   0.47750399  0.22315115  0.17978894
   0.73035088  0.39549325  0.19836991
   0.30873295  0.58094850  0.17812140
   0.64597556  0.25001701  0.13281348
   0.40224811  0.39179504  0.22017891
   0.81916146  0.89058207  0.05723166
   0.73477892  0.72497345  0.12011482
   0.97933187  0.89596957  0.07998431
   0.06850927  0.07707993  0.09406369
   0.90539484  0.74315536  0.14719199
   0.65603026  0.89388612  0.07448583
   0.31685889  0.89495162  0.05276936
   0.22588084  0.72199460  0.10015329
   0.47310083  0.90569324  0.09294217
   0.56571210  0.08064949  0.10975221
   0.38290638  0.76101703  0.16069165
   0.15461882  0.88989862  0.05279944
   0.98813539  0.43899924  0.24688231
   0.90022057  0.26967193  0.19541115
   0.15765306  0.43332640  0.24205924
   0.14766990  0.14346750  0.08012229
   0.98671055  0.10827341  0.13639164
   0.22889739  0.31460069  0.12507383
   0.06753108  0.28599891  0.16907282
   0.82270022  0.45464198  0.21093194
   0.48516615  0.44459782  0.24927873
   0.39591208  0.27334681  0.20673216
   0.65895130  0.42532244  0.25582751
   0.64474888  0.14589401  0.09352678
   0.48300613  0.11209628  0.15040705
   0.72585759  0.31738628  0.13139670
   0.56400083  0.28893102  0.17756962
   0.31770414  0.45968214  0.20182319
   0.73474868  0.94528573  0.03955657
   0.65026607  0.77971136  0.10309889
   0.90438026  0.93484266  0.03202456
   0.90743583  0.63744109  0.18738044
   0.73813792  0.61513782  0.15359735
   0.98342175  0.81150886  0.14161976
   0.82037469  0.78594342  0.10764224
   0.56798594  0.96125845  0.08386224
   0.23633528  0.94557108  0.02711111
   0.14730154  0.77198514  0.06784239
   0.40638251  0.93680088  0.03251471
   0.37835843  0.65839586  0.20553964
   0.23200922  0.60912559  0.12775162
   0.46031109  0.83499732  0.16440650
   0.30869824  0.79379943  0.10613167
   0.06978104  0.95747022  0.06500313
   0.58414515  0.79919162  0.26202815
   0.67470965  0.61065970  0.31843250
   0.47844327  0.61303396  0.31080110
slab_Cel1-OPT                           
           1
    13.751647    0.000000    0.000000
     0.000000   11.209795    0.000000
     0.000000    0.000000   15.000000
   C    N    Au   Ag   Pd
    24    32     1     1     1
Direct configuration=    10
   0.07081135  0.38808064  0.22183092
   0.98228226  0.21910769  0.16786046
   0.22836513  0.39591015  0.18844744
   0.82503673  0.57492243  0.18277387
   0.14922666  0.24679347  0.12314401
   0.90763426  0.38482880  0.21818551
   0.56906223  0.38943606  0.23040623
   0.47720111  0.22205579  0.17937537
   0.72962346  0.39444387  0.19857920
   0.30823703  0.58074132  0.17754946
   0.64573089  0.24971090  0.13207491
   0.40214564  0.39213521  0.21997111
   0.81910152  0.89132236  0.05740146
   0.73417860  0.72398616  0.11856781
   0.97973336  0.89622262  0.07980520
   0.06849785  0.07710302  0.09395157
   0.90542759  0.74333184  0.14724635
   0.65578808  0.89366292  0.07348473
   0.31731571  0.89533118  0.05180041
   0.22526518  0.72130410  0.09972444
   0.47224408  0.90577247  0.09280927
   0.56570020  0.08068314  0.10956346
   0.38367384  0.76138920  0.16070852
   0.15396776  0.89039168  0.05269321
   0.98826041  0.43983400  0.24718401
   0.89977285  0.26920377  0.19542086
   0.15768704  0.43373922  0.24230475
   0.14802289  0.14311998  0.07968657
   0.98625298  0.10762423  0.13637267
   0.22919401  0.31431222  0.12467841
   0.06760688  0.28605590  0.16909696
   0.82243814  0.45450358  0.21101363
   0.48523282  0.44499234  0.24873712
   0.39492591  0.27198054  0.20705996
   0.65991602  0.42378278  0.25640777
   0.64506497  0.14417550  0.09260563
   0.48258428  0.11029694  0.15003784
   0.72660239  0.31828806  0.13050441
   0.56380894  0.28913056  0.17680347
   0.31790679  0.45972107  0.20128980
   0.73532902  0.94669353  0.03954269
   0.64949423  0.77820078  0.10056191
   0.90559596  0.93566073  0.03148388
   0.90780584  0.63667673  0.18762813
   0.73775988  0.61416763  0.15159035
   0.98456038  0.81166582  0.14189671
   0.82041767  0.78650827  0.10812210
   0.56784542  0.96005995  0.08295569
   0.23440861  0.94744416  0.02652592
   0.14506086  0.77261335  0.06696551
   0.40650928  0.93677043  0.03146396
   0.37871245  0.65828392  0.20475069
   0.23082739  0.60820068  0.12763436
   0.46003902  0.83597054  0.16420943
   0.30915636  0.79355153  0.10554580
   0.06962388  0.95711879  0.06485047
   0.58589477  0.80259533  0.27004711
   0.67740271  0.61338915  0.32474456
   0.47918926  0.61409039  0.31549958
slab_Cel1-OPT                           
           1
    13.728822    0.000000    0.000000
     0.000000   11.191392    0.000000
     0.000000    0.000000   15.000000
   C    N    Au   Ag   Pd
    24    32     1     1     1
Direct configuration=    11
   0.07073578  0.38873305  0.22215882
   0.98183987  0.21862621  0.16784321
   0.22841442  0.39588976  0.18844768
   0.82454529  0.57498911  0.18235224
   0.14955731  0.24634312  0.12274546
   0.90759941  0.38486443  0.21834106
   0.56929866  0.38993522  0.23074698
   0.47647273  0.22122378  0.17913178
   0.72980049  0.39379691  0.19835234
   0.30843092  0.58099343  0.17729392
   0.64632551  0.24946779  0.13111182
   0.40225935  0.39190531  0.21984175
   0.81933368  0.89233736  0.05734844
   0.73343920  0.72343118  0.11748043
   0.98004597  0.89625401  0.07977618
   0.06850515  0.07711696  0.09380695
   0.90577280  0.74327645  0.14748935
   0.65536877  0.89287551  0.07286781
   0.31671252  0.89605397  0.05071230
   0.22425171  0.72136180  0.09897597
   0.47207027  0.90582760  0.09255336
   0.56570208  0.07959076  0.10903026
   0.38437270  0.76162345  0.16080900
   0.15343911  0.89068131  0.05237026
   0.98820553  0.43999263  0.24722887
   0.89977802  0.26912634  0.19548314
   0.15783341  0.43373936  0.24230623
   0.14792362  0.14309284  0.07957263
   0.98617439  0.10747932  0.13638467
   0.22920778  0.31418864  0.12447964
   0.06758566  0.28604939  0.16908451
   0.82219458  0.45432321  0.21103919
   0.48538449  0.44569943  0.24851197
   0.39476524  0.27188040  0.20738256
   0.65988468  0.42342729  0.25694369
   0.64522987  0.14373841  0.09216694
   0.48241328  0.10937888  0.14985341
   0.72627104  0.31890368  0.13035359
   0.56364447  0.28967860  0.17644684
   0.31819065  0.45993528  0.20087975
   0.73538789  0.94705390  0.03981554
   0.64914534  0.77786146  0.09879390
   0.90598486  0.93590797  0.03119427
   0.90766669  0.63647559  0.18757754
   0.73796028  0.61281854  0.15055776
   0.98483967  0.81165153  0.14214731
   0.82012576  0.78683915  0.10836411
   0.56766427  0.95931350  0.08229012
   0.23426850  0.94815535  0.02627248
   0.14457884  0.77221261  0.06662972
   0.40672921  0.93627441  0.03133325
   0.37901087  0.65750757  0.20437389
   0.23029593  0.60783634  0.12776864
   0.46020731  0.83630114  0.16414361
   0.30937034  0.79318583  0.10510486
   0.06932882  0.95752998  0.06475085
   0.58689077  0.80467310  0.27540052
   0.67874543  0.61498788  0.32888047
   0.47997969  0.61467135  0.31807382
slab_Cel1-OPT                           
           1
    13.715297    0.000000    0.000000
     0.000000   11.180487    0.000000
     0.000000    0.000000   15.000000
   C    N    Au   Ag   Pd
    24    32     1     1     1
Direct configuration=    12
   0.07069093  0.38912028  0.22235311
   0.98157730  0.21834044  0.16783299
   0.22844367  0.39587766  0.18844782
   0.82425360  0.57502868  0.18210240
   0.14975356  0.24607583  0.12250930
   0.90757872  0.38488557  0.21843324
   0.56943899  0.39023149  0.23094890
   0.47604040  0.22072997  0.17898743
   0.72990556  0.39341293  0.19821790
   0.30854599  0.58114306  0.17714249
   0.64667843  0.24932350  0.13054115
   0.40232684  0.39176886  0.21976509
   0.81947147  0.89293978  0.05731702
   0.73300034  0.72310178  0.11683610
   0.98023152  0.89627264  0.07975899
   0.06850949  0.07712523  0.09372126
   0.90597769  0.74324357  0.14763334
   0.65511990  0.89240817  0.07250226
   0.31635451  0.89648297  0.05006753
   0.22365018  0.72139605  0.09853246
   0.47196712  0.90586032  0.09240173
   0.56570319  0.07894241  0.10871431
   0.38478750  0.76176249  0.16086854
   0.15312534  0.89085322  0.05217890
   0.98817296  0.44008678  0.24725544
   0.89978110  0.26908039  0.19552005
   0.15792028  0.43373943  0.24230710
   0.14786470  0.14307674  0.07950511
   0.98612774  0.10739332  0.13639178
   0.22921596  0.31411530  0.12436186
   0.06757306  0.28604553  0.16907714
   0.82205002  0.45421615  0.21105434
   0.48547452  0.44611911  0.24837856
   0.39466988  0.27182097  0.20757371
   0.65986607  0.42321630  0.25726125
   0.64532775  0.14347898  0.09190700
   0.48231178  0.10883398  0.14974412
   0.72607437  0.31926906  0.13026422
   0.56354685  0.29000387  0.17623551
   0.31835913  0.46006242  0.20063677
   0.73542284  0.94726779  0.03997722
   0.64893827  0.77766007  0.09774627
   0.90621569  0.93605472  0.03102266
   0.90758410  0.63635620  0.18754756
   0.73807923  0.61201783  0.14994590
   0.98500543  0.81164306  0.14229580
   0.81995250  0.78703553  0.10850752
   0.56755674  0.95887047  0.08189573
   0.23418534  0.94857747  0.02612231
   0.14429274  0.77197476  0.06643074
   0.40685975  0.93598000  0.03125579
   0.37918800  0.65704679  0.20415061
   0.22998049  0.60762009  0.12784821
   0.46030719  0.83649736  0.16410461
   0.30949735  0.79296878  0.10484358
   0.06915368  0.95777404  0.06469182
   0.58748194  0.80590631  0.27857267
   0.67954237  0.61593675  0.33133120
   0.48044883  0.61501616  0.31959919
slab_Cel1-OPT                           
           1