  58  58   0   0
  0.4559061E+02  0.1426590E-08  0.1235700E-08  0.1500000E-08  0.1000000E-15
  1.000000000000000E-004
  CAR 
 slab_Cel1-OPT                           
      4.40009450    -28.11978557  301     -2.78983739      1.00000000
    -28.120  0.0000E+00  0.0000E+00
    -28.011  0.0000E+00  0.0000E+00
    -27.903  0.0000E+00  0.0000E+00
    -27.795  0.0000E+00  0.0000E+00
    -27.686  0.0000E+00  0.0000E+00
    -27.578  0.0000E+00  0.0000E+00
    -27.469  0.0000E+00  0.0000E+00
    -27.361  0.0000E+00  0.0000E+00
    -27.253  0.0000E+00  0.0000E+00
    -27.144  0.4787E-14  0.5189E-15
    -27.036  0.1139E-09  0.1235E-10
    -26.927  0.2814E-06  0.3051E-07
    -26.819  0.7520E-04  0.8182E-05
    -26.711  0.2351E-02  0.2630E-03
    -26.602  0.9720E-02  0.1317E-02
    -26.494  0.6653E-02  0.2038E-02
    -26.385  0.9862E-02  0.3107E-02
    -26.277  0.2401E-01  0.5710E-02
    -26.169  0.1770E-01  0.7629E-02
    -26.060  0.3313E-02  0.7988E-02
    -25.952  0.1110E-03  0.8000E-02
    -25.843  0.5002E-06  0.8000E-02
    -25.735  0.7280E-09  0.8000E-02
    -25.627  0.7181E-06  0.8000E-02
    -25.518  0.1286E-03  0.8014E-02
    -25.410  0.3074E-02  0.8347E-02
    -25.301  0.1259E-01  0.9712E-02
    -25.193  0.1559E-01  0.1140E-01
    -25.085  0.1211E-01  0.1271E-01
    -24.976  0.9060E-02  0.1370E-01
    -24.868  0.9285E-02  0.1470E-01
    -24.759  0.6324E-02  0.1539E-01
    -24.651  0.1001E-02  0.1550E-01
    -24.543  0.4292E-04  0.1550E-01
    -24.434  0.6270E-03  0.1557E-01
    -24.326  0.3992E-02  0.1600E-01
    -24.217  0.1451E-01  0.1758E-01
    -24.109  0.2406E-01  0.2018E-01
    -24.001  0.2500E-01  0.2289E-01
    -23.892  0.1330E-01  0.2434E-01
    -23.784  0.1495E-02  0.2450E-01
    -23.675  0.8306E-04  0.2451E-01
    -23.567  0.1760E-02  0.2470E-01
    -23.459  0.7869E-02  0.2555E-01
    -23.350  0.7815E-02  0.2640E-01
    -23.242  0.8165E-02  0.2728E-01
    -23.133  0.1150E-01  0.2853E-01
    -23.025  0.1354E-01  0.3000E-01
    -22.917  0.1136E-01  0.3123E-01
    -22.808  0.5650E-02  0.3184E-01
    -22.700  0.1391E-02  0.3199E-01
    -22.591  0.7973E-04  0.3200E-01
    -22.483  0.6337E-04  0.3201E-01
    -22.375  0.2459E-02  0.3227E-01
    -22.266  0.1632E-01  0.3404E-01
    -22.158  0.2885E-01  0.3717E-01
    -22.049  0.2901E-01  0.4031E-01
    -21.941  0.3191E-01  0.4377E-01
    -21.833  0.2804E-01  0.4681E-01
    -21.724  0.1010E-01  0.4791E-01
    -21.616  0.8397E-03  0.4800E-01
    -21.507  0.6920E-04  0.4801E-01
    -21.399  0.2070E-02  0.4823E-01
    -21.291  0.1406E-01  0.4975E-01
    -21.182  0.2516E-01  0.5248E-01
    -21.074  0.2086E-01  0.5474E-01
    -20.965  0.1019E-01  0.5585E-01
    -20.857  0.6147E-02  0.5651E-01
    -20.749  0.1047E-01  0.5765E-01
    -20.640  0.8484E-02  0.5857E-01
    -20.532  0.2092E-01  0.6084E-01
    -20.423  0.2136E-01  0.6315E-01
    -20.315  0.7148E-02  0.6393E-01
    -20.207  0.6605E-03  0.6400E-01
    -20.098  0.1092E-04  0.6400E-01
    -19.990  0.2373E-07  0.6400E-01
    -19.881  0.5799E-11  0.6400E-01
    -19.773  0.1480E-15  0.6400E-01
    -19.665  0.0000E+00  0.6400E-01
    -19.556  0.0000E+00  0.6400E-01
    -19.448  0.0000E+00  0.6400E-01
    -19.339  0.0000E+00  0.6400E-01
    -19.231  0.0000E+00  0.6400E-01
    -19.123  0.0000E+00  0.6400E-01
    -19.014  0.0000E+00  0.6400E-01
    -18.906  0.0000E+00  0.6400E-01
    -18.797  0.0000E+00  0.6400E-01
    -18.689  0.0000E+00  0.6400E-01
    -18.581  0.0000E+00  0.6400E-01
    -18.472  0.0000E+00  0.6400E-01
    -18.364  0.0000E+00  0.6400E-01
    -18.255  0.6071E-15  0.6400E-01
    -18.147  0.1822E-10  0.6400E-01
    -18.039  0.5768E-07  0.6400E-01
    -17.930  0.2075E-04  0.6400E-01
    -17.822  0.9695E-03  0.6411E-01
    -17.713  0.7351E-02  0.6490E-01
    -17.605  0.1406E-01  0.6643E-01
    -17.497  0.1551E-01  0.6811E-01
    -17.388  0.1799E-01  0.7006E-01
    -17.280  0.2126E-01  0.7236E-01
    -17.171  0.1780E-01  0.7429E-01
    -17.063  0.1673E-01  0.7611E-01
    -16.955  0.1647E-01  0.7789E-01
    -16.846  0.8658E-02  0.7883E-01
    -16.738  0.2946E-02  0.7915E-01
    -16.629  0.4349E-02  0.7962E-01
    -16.521  0.3031E-02  0.7995E-01
    -16.413  0.4442E-03  0.8000E-01
    -16.304  0.9767E-05  0.8000E-01
    -16.196  0.1155E-05  0.8000E-01
    -16.087  0.1837E-03  0.8002E-01
    -15.979  0.4294E-02  0.8049E-01
    -15.871  0.1975E-01  0.8263E-01
    -15.762  0.2693E-01  0.8555E-01
    -15.654  0.1498E-01  0.8717E-01
    -15.545  0.3706E-02  0.8757E-01
    -15.437  0.2659E-02  0.8786E-01
    -15.329  0.1644E-02  0.8804E-01
    -15.220  0.3413E-02  0.8841E-01
    -15.112  0.4421E-02  0.8889E-01
    -15.003  0.1228E-02  0.8902E-01
    -14.895  0.2146E-02  0.8925E-01
    -14.787  0.4589E-02  0.8975E-01
    -14.678  0.5918E-02  0.9039E-01
    -14.570  0.9833E-02  0.9146E-01
    -14.461  0.1761E-01  0.9337E-01
    -14.353  0.2116E-01  0.9566E-01
    -14.245  0.1843E-01  0.9766E-01
    -14.136  0.2305E-01  0.1002E+00
    -14.028  0.2210E-01  0.1026E+00
    -13.919  0.2456E-01  0.1052E+00
    -13.811  0.3165E-01  0.1086E+00
    -13.703  0.2612E-01  0.1115E+00
    -13.594  0.1406E-01  0.1130E+00
    -13.486  0.9284E-02  0.1140E+00
    -13.377  0.4848E-02  0.1145E+00
    -13.269  0.6062E-02  0.1152E+00
    -13.161  0.9271E-02  0.1162E+00
    -13.052  0.8466E-02  0.1171E+00
    -12.944  0.9061E-02  0.1181E+00
    -12.835  0.3484E-02  0.1185E+00
    -12.727  0.2967E-03  0.1185E+00
    -12.619  0.1032E-02  0.1186E+00
    -12.510  0.4234E-02  0.1191E+00
    -12.402  0.1071E-01  0.1202E+00
    -12.293  0.2228E-01  0.1227E+00
    -12.185  0.2912E-01  0.1258E+00
    -12.077  0.2117E-01  0.1281E+00
    -11.968  0.1391E-01  0.1296E+00
    -11.860  0.1295E-01  0.1310E+00
    -11.751  0.1284E-01  0.1324E+00
    -11.643  0.1802E-01  0.1344E+00
    -11.535  0.2037E-01  0.1366E+00
    -11.426  0.1611E-01  0.1383E+00
    -11.318  0.1062E-01  0.1395E+00
    -11.209  0.7333E-02  0.1403E+00
    -11.101  0.9691E-02  0.1413E+00
    -10.993  0.9715E-02  0.1424E+00
    -10.884  0.9073E-02  0.1433E+00
    -10.776  0.9781E-02  0.1444E+00
    -10.667  0.1336E-01  0.1459E+00
    -10.559  0.1665E-01  0.1477E+00
    -10.451  0.1565E-01  0.1494E+00
    -10.342  0.1323E-01  0.1508E+00
    -10.234  0.9439E-02  0.1518E+00
    -10.125  0.7737E-02  0.1527E+00
    -10.017  0.1269E-01  0.1540E+00
     -9.909  0.1869E-01  0.1561E+00
     -9.800  0.2189E-01  0.1584E+00
     -9.692  0.1124E-01  0.1596E+00
     -9.583  0.1046E-01  0.1608E+00
     -9.475  0.1822E-01  0.1628E+00
     -9.367  0.3013E-01  0.1660E+00
     -9.258  0.2708E-01  0.1690E+00
     -9.150  0.8911E-02  0.1699E+00
     -9.041  0.6877E-03  0.1700E+00
     -8.933  0.1385E-04  0.1700E+00
     -8.825  0.2914E-03  0.1700E+00
     -8.716  0.2208E-02  0.1703E+00
     -8.608  0.5303E-02  0.1708E+00
     -8.499  0.1128E-01  0.1721E+00
     -8.391  0.1285E-01  0.1735E+00
     -8.283  0.1654E-01  0.1753E+00
     -8.174  0.1618E-01  0.1770E+00
     -8.066  0.7876E-02  0.1779E+00
     -7.957  0.2638E-02  0.1781E+00
     -7.849  0.1247E-01  0.1795E+00
     -7.741  0.2647E-01  0.1824E+00
     -7.632  0.3639E-01  0.1863E+00
     -7.524  0.3841E-01  0.1905E+00
     -7.415  0.3092E-01  0.1938E+00
     -7.307  0.3363E-01  0.1975E+00
     -7.199  0.2934E-01  0.2007E+00
     -7.090  0.1221E-01  0.2020E+00
     -6.982  0.1020E-01  0.2031E+00
     -6.873  0.2309E-01  0.2056E+00
     -6.765  0.2641E-01  0.2085E+00
     -6.657  0.2064E-01  0.2107E+00
     -6.548  0.1921E-01  0.2128E+00
     -6.440  0.1709E-01  0.2146E+00
     -6.331  0.1781E-01  0.2166E+00
     -6.223  0.1130E-01  0.2178E+00
     -6.115  0.1968E-02  0.2180E+00
     -6.006  0.7360E-03  0.2181E+00
     -5.898  0.5737E-02  0.2187E+00
     -5.789  0.1592E-01  0.2204E+00
     -5.681  0.2945E-01  0.2236E+00
     -5.573  0.4043E-01  0.2280E+00
     -5.464  0.4344E-01  0.2327E+00
     -5.356  0.4097E-01  0.2371E+00
     -5.247  0.4092E-01  0.2416E+00
     -5.139  0.3574E-01  0.2455E+00
     -5.031  0.2659E-01  0.2483E+00
     -4.922  0.2158E-01  0.2507E+00
     -4.814  0.2395E-01  0.2533E+00
     -4.705  0.1890E-01  0.2553E+00
     -4.597  0.1522E-01  0.2570E+00
     -4.489  0.2974E-01  0.2602E+00
     -4.380  0.3523E-01  0.2640E+00
     -4.272  0.1642E-01  0.2658E+00
     -4.163  0.1869E-02  0.2660E+00
     -4.055  0.4139E-04  0.2660E+00
     -3.947  0.6268E-03  0.2661E+00
     -3.838  0.6583E-02  0.2668E+00
     -3.730  0.1292E-01  0.2682E+00
     -3.621  0.2559E-01  0.2710E+00
     -3.513  0.3325E-01  0.2746E+00
     -3.405  0.1230E-01  0.2759E+00
     -3.296  0.1454E-02  0.2761E+00
     -3.188  0.5913E-02  0.2767E+00
     -3.079  0.9701E-02  0.2777E+00
     -2.971  0.2279E-02  0.2780E+00
     -2.863  0.6926E-04  0.2780E+00
     -2.754  0.2596E-06  0.2780E+00
     -2.646  0.9688E-05  0.2780E+00
     -2.537  0.5559E-03  0.2781E+00
     -2.429  0.4199E-02  0.2785E+00
     -2.321  0.6732E-02  0.2792E+00
     -2.212  0.9136E-02  0.2802E+00
     -2.104  0.1248E-01  0.2816E+00
     -1.995  0.1483E-01  0.2832E+00
     -1.887  0.1003E-01  0.2843E+00
     -1.779  0.4724E-02  0.2848E+00
     -1.670  0.1063E-01  0.2859E+00
     -1.562  0.1409E-01  0.2875E+00
     -1.453  0.1318E-01  0.2889E+00
     -1.345  0.1910E-01  0.2910E+00
     -1.237  0.1718E-01  0.2928E+00
     -1.128  0.7681E-02  0.2937E+00
     -1.020  0.7390E-02  0.2945E+00
     -0.911  0.1085E-01  0.2956E+00
     -0.803  0.1899E-01  0.2977E+00
     -0.695  0.2248E-01  0.3001E+00
     -0.586  0.1356E-01  0.3016E+00
     -0.478  0.3349E-02  0.3020E+00
     -0.369  0.3158E-03  0.3020E+00
     -0.261  0.2516E-02  0.3023E+00
     -0.153  0.9848E-02  0.3033E+00
     -0.044  0.5566E-02  0.3040E+00
      0.064  0.4342E-03  0.3040E+00
      0.173  0.4115E-05  0.3040E+00
      0.281  0.4290E-08  0.3040E+00
      0.389  0.4570E-10  0.3040E+00
      0.498  0.1312E-06  0.3040E+00
      0.606  0.4225E-04  0.3040E+00
      0.715  0.1644E-02  0.3042E+00
      0.823  0.8778E-02  0.3051E+00
      0.931  0.8331E-02  0.3060E+00
      1.040  0.1122E-01  0.3073E+00
      1.148  0.2420E-01  0.3099E+00
      1.257  0.2496E-01  0.3126E+00
      1.365  0.2364E-01  0.3151E+00
      1.473  0.2354E-01  0.3177E+00
      1.582  0.2283E-01  0.3202E+00
      1.690  0.2261E-01  0.3226E+00
      1.799  0.2006E-01  0.3248E+00
      1.907  0.2053E-01  0.3270E+00
      2.015  0.2138E-01  0.3293E+00
      2.124  0.1157E-01  0.3306E+00
      2.232  0.1075E-01  0.3318E+00
      2.341  0.1325E-01  0.3332E+00
      2.449  0.1232E-01  0.3345E+00
      2.557  0.1725E-01  0.3364E+00
      2.666  0.2152E-01  0.3387E+00
      2.774  0.1836E-01  0.3407E+00
      2.883  0.1847E-01  0.3427E+00
      2.991  0.1010E-01  0.3438E+00
      3.099  0.1614E-02  0.3440E+00
      3.208  0.4503E-04  0.3440E+00
      3.316  0.1635E-06  0.3440E+00
      3.424  0.6775E-10  0.3440E+00
      3.533  0.2998E-14  0.3440E+00
      3.641  0.0000E+00  0.3440E+00
      3.750  0.0000E+00  0.3440E+00
      3.858  0.0000E+00  0.3440E+00
      3.966  0.0000E+00  0.3440E+00
      4.075  0.0000E+00  0.3440E+00
      4.183  0.0000E+00  0.3440E+00
      4.292  0.0000E+00  0.3440E+00
      4.400  0.0000E+00  0.3440E+00
