       N       E                     dE             d eps       ncg     rms          rms(c)
DAV:   1     0.254914713653E+04    0.25491E+04   -0.98198E+04  1600   0.101E+03
DAV:   2     0.298106629975E+02   -0.25193E+04   -0.23966E+04  1992   0.280E+02
DAV:   3    -0.472348882374E+03   -0.50216E+03   -0.49738E+03  1688   0.135E+02
DAV:   4    -0.489830189373E+03   -0.17481E+02   -0.16952E+02  1608   0.289E+01
DAV:   5    -0.490557638960E+03   -0.72745E+00   -0.71973E+00  1936   0.473E+00    0.859E+01
DAV:   6    -0.452413662804E+03    0.38144E+02   -0.13849E+02  1560   0.421E+01    0.116E+02
DAV:   7    -0.459324436138E+03   -0.69108E+01   -0.27349E+01  1600   0.127E+01    0.137E+02
DAV:   8    -0.455841320476E+03    0.34831E+01   -0.14994E+02  1556   0.407E+01    0.304E+01
DAV:   9    -0.448489591208E+03    0.73517E+01   -0.11494E+01  1552   0.118E+01    0.218E+01
DAV:  10    -0.446582208839E+03    0.19074E+01   -0.82285E+00  1640   0.741E+00    0.147E+01
DAV:  11    -0.446252242936E+03    0.32997E+00   -0.48593E+00  1680   0.433E+00    0.126E+01
DAV:  12    -0.445991935869E+03    0.26031E+00   -0.17096E+00  1648   0.253E+00    0.998E+00
DAV:  13    -0.445743766550E+03    0.24817E+00   -0.12418E+00  1632   0.249E+00    0.740E+00
DAV:  14    -0.445614566987E+03    0.12920E+00   -0.38908E-01  1560   0.157E+00    0.509E+00
DAV:  15    -0.445592225700E+03    0.22341E-01   -0.19011E-01  1616   0.106E+00    0.310E+00
DAV:  16    -0.445590816487E+03    0.14092E-02   -0.22378E-01  1532   0.134E+00    0.108E+00
DAV:  17    -0.445587083896E+03    0.37326E-02   -0.56376E-02  1496   0.464E-01    0.109E+00
DAV:  18    -0.445590861258E+03   -0.37774E-02   -0.33475E-02  1528   0.417E-01    0.987E-01
DAV:  19    -0.445587402667E+03    0.34586E-02   -0.23820E-02  1440   0.349E-01    0.576E-01
DAV:  20    -0.445589659814E+03   -0.22571E-02   -0.71714E-03  1588   0.200E-01    0.316E-01
DAV:  21    -0.445591969427E+03   -0.23096E-02   -0.17801E-03  1528   0.906E-02    0.811E-02
DAV:  22    -0.445595913746E+03   -0.39443E-02   -0.51394E-03  1532   0.153E-01    0.264E-01
DAV:  23    -0.445596817374E+03   -0.90363E-03   -0.13154E-03  1600   0.771E-02    0.199E-01
DAV:  24    -0.445597742390E+03   -0.92502E-03   -0.13236E-03  1536   0.683E-02    0.145E-01
DAV:  25    -0.445598048505E+03   -0.30611E-03   -0.38813E-04  1704   0.452E-02    0.122E-01
DAV:  26    -0.445598374498E+03   -0.32599E-03   -0.17279E-04  1448   0.228E-02    0.503E-02
DAV:  27    -0.445598990235E+03   -0.61574E-03   -0.94418E-05  1492   0.267E-02    0.243E-02
DAV:  28    -0.445599141812E+03   -0.15158E-03   -0.25882E-05  1056   0.142E-02    0.102E-02
DAV:  29    -0.445599550219E+03   -0.40841E-03   -0.18444E-05  1020   0.827E-03    0.764E-03
DAV:  30    -0.445599809152E+03   -0.25893E-03   -0.21227E-05  1040   0.858E-03    0.895E-03
DAV:  31    -0.445599881420E+03   -0.72268E-04   -0.12937E-05  1000   0.750E-03    0.504E-03
DAV:  32    -0.445599913879E+03   -0.32459E-04   -0.73218E-06   932   0.598E-03    0.454E-03
DAV:  33    -0.445599923129E+03   -0.92505E-05   -0.22338E-06  1016   0.356E-03
   1 F= -.44559992E+03 E0= -.44553921E+03  d E =-.445600E+03
       N       E                     dE             d eps       ncg     rms          rms(c)
DAV:   1    -0.450049591594E+03   -0.44497E+01   -0.12054E+03  1416   0.846E+01    0.234E+01
DAV:   2    -0.453994698291E+03   -0.39451E+01   -0.77356E+01  1616   0.246E+01    0.417E+01
DAV:   3    -0.453325198296E+03    0.66950E+00   -0.39227E+00  1608   0.627E+00    0.355E+01
DAV:   4    -0.453490491444E+03   -0.16529E+00   -0.87137E+00  1752   0.572E+00    0.233E+01
DAV:   5    -0.452737702114E+03    0.75279E+00   -0.12352E+01  1904   0.630E+00    0.166E+01
DAV:   6    -0.452433546936E+03    0.30416E+00   -0.28920E+00  1608   0.446E+00    0.636E+00
DAV:   7    -0.452376578291E+03    0.56969E-01   -0.60567E-01  1496   0.199E+00    0.402E+00
DAV:   8    -0.452340690538E+03    0.35888E-01   -0.11444E-01  1616   0.793E-01    0.337E+00
DAV:   9    -0.452313097718E+03    0.27593E-01   -0.15401E-01  1584   0.785E-01    0.187E+00
DAV:  10    -0.452307593986E+03    0.55037E-02   -0.91773E-02  1536   0.654E-01    0.939E-01
DAV:  11    -0.452307554470E+03    0.39515E-04   -0.22478E-02  1608   0.363E-01    0.357E-01
DAV:  12    -0.452308493698E+03   -0.93923E-03   -0.41726E-03  1592   0.160E-01    0.339E-01
DAV:  13    -0.452308830568E+03   -0.33687E-03   -0.14400E-03  1544   0.930E-02    0.143E-01
DAV:  14    -0.452309144886E+03   -0.31432E-03   -0.29730E-04  1568   0.460E-02    0.757E-02
DAV:  15    -0.452309347996E+03   -0.20311E-03   -0.20031E-04  1592   0.358E-02    0.174E-02
DAV:  16    -0.452309505228E+03   -0.15723E-03   -0.38075E-05  1344   0.150E-02    0.114E-02
DAV:  17    -0.452309621082E+03   -0.11585E-03   -0.10679E-05  1008   0.720E-03    0.619E-03
DAV:  18    -0.452309693468E+03   -0.72386E-04   -0.78407E-06  1056   0.491E-03    0.640E-03
DAV:  19    -0.452309773007E+03   -0.79539E-04   -0.94100E-06  1016   0.435E-03    0.359E-03
DAV:  20    -0.452309813944E+03   -0.40937E-04   -0.54436E-06  1032   0.324E-03    0.306E-03
DAV:  21    -0.452309831695E+03   -0.17751E-04   -0.22614E-06  1024   0.224E-03    0.151E-03
DAV:  22    -0.452309839192E+03   -0.74969E-05   -0.86272E-07   976   0.158E-03
   2 F= -.45230984E+03 E0= -.45226031E+03  d E =-.670992E+01
       N       E                     dE             d eps       ncg     rms          rms(c)
DAV:   1    -0.453901496341E+03   -0.15917E+01   -0.18225E+02  1432   0.332E+01    0.805E+00
DAV:   2    -0.454328263613E+03   -0.42677E+00   -0.11280E+01  1600   0.898E+00    0.118E+01
DAV:   3    -0.454116707767E+03    0.21156E+00   -0.98600E-01  1568   0.327E+00    0.765E+00
DAV:   4    -0.453976505518E+03    0.14020E+00   -0.91113E-01  1576   0.256E+00    0.370E+00
DAV:   5    -0.453974206921E+03    0.22986E-02   -0.94571E-01  1608   0.200E+00    0.388E+00
DAV:   6    -0.453956795154E+03    0.17412E-01   -0.39598E-01  1600   0.113E+00    0.237E+00
DAV:   7    -0.453958170488E+03   -0.13753E-02   -0.21609E-01  1568   0.100E+00    0.118E+00
DAV:   8    -0.453946631728E+03    0.11539E-01   -0.36262E-02  1472   0.392E-01    0.832E-01
DAV:   9    -0.453945714624E+03    0.91710E-03   -0.65484E-03  1576   0.163E-01    0.607E-01
DAV:  10    -0.453946677638E+03   -0.96301E-03   -0.26894E-03  1520   0.123E-01    0.446E-01
DAV:  11    -0.453945519265E+03    0.11584E-02   -0.65121E-03  1536   0.155E-01    0.181E-01
DAV:  12    -0.453945820661E+03   -0.30140E-03   -0.82530E-04  1544   0.802E-02    0.743E-02
DAV:  13    -0.453945907951E+03   -0.87291E-04   -0.74584E-05  1560   0.244E-02    0.778E-02
DAV:  14    -0.453945946888E+03   -0.38937E-04   -0.17525E-05   944   0.929E-03    0.531E-02
DAV:  15    -0.453945989541E+03   -0.42654E-04   -0.12867E-04  1368   0.213E-02    0.113E-02
DAV:  16    -0.453946022290E+03   -0.32749E-04   -0.98928E-06  1008   0.855E-03    0.425E-03
DAV:  17    -0.453946042072E+03   -0.19783E-04   -0.20369E-06   928   0.375E-03    0.153E-03
DAV:  18    -0.453946067060E+03   -0.24988E-04   -0.28352E-06   984   0.303E-03    0.416E-03
DAV:  19    -0.453946075977E+03   -0.89169E-05   -0.60281E-07   952   0.168E-03
   3 F= -.45394608E+03 E0= -.45389268E+03  d E =-.834615E+01
       N       E                     dE             d eps       ncg     rms          rms(c)
DAV:   1    -0.459209587565E+03   -0.52635E+01   -0.53162E+02  1376   0.526E+01    0.159E+01
DAV:   2    -0.460769476291E+03   -0.15599E+01   -0.42250E+01  1616   0.163E+01    0.236E+01
DAV:   3    -0.459266741813E+03    0.15027E+01   -0.29458E+00  1544   0.757E+00    0.165E+01
DAV:   4    -0.458948722725E+03    0.31802E+00   -0.36094E+00  1640   0.408E+00    0.584E+00
DAV:   5    -0.458861663195E+03    0.87060E-01   -0.14268E+00  1632   0.307E+00    0.586E+00
DAV:   6    -0.458840861830E+03    0.20801E-01   -0.89743E-01  1568   0.202E+00    0.373E+00
DAV:   7    -0.458844345131E+03   -0.34833E-02   -0.19482E-01  1568   0.105E+00    0.562E+00
DAV:   8    -0.458817716148E+03    0.26629E-01   -0.54775E-02  1552   0.473E-01    0.312E+00
DAV:   9    -0.458802294048E+03    0.15422E-01   -0.42578E-02  1616   0.410E-01    0.117E+00
DAV:  10    -0.458805479290E+03   -0.31852E-02   -0.15486E-02  1552   0.286E-01    0.167E+00
DAV:  11    -0.458803072241E+03    0.24070E-02   -0.16731E-02  1624   0.233E-01    0.420E-01
DAV:  12    -0.458804115339E+03   -0.10431E-02   -0.41347E-03  1576   0.142E-01    0.155E-01
DAV:  13    -0.458804416703E+03   -0.30136E-03   -0.95225E-04  1504   0.637E-02    0.144E-01
DAV:  14    -0.458804615605E+03   -0.19890E-03   -0.96152E-05  1560   0.241E-02    0.985E-02
DAV:  15    -0.458804835823E+03   -0.22022E-03   -0.75777E-05  1200   0.186E-02    0.137E-02
DAV:  16    -0.458804974272E+03   -0.13845E-03   -0.17777E-05  1104   0.872E-03    0.844E-03
DAV:  17    -0.458805059552E+03   -0.85280E-04   -0.11240E-05  1008   0.657E-03    0.244E-02
DAV:  18    -0.458805220881E+03   -0.16133E-03   -0.26047E-05  1224   0.727E-03    0.254E-02
DAV:  19    -0.458805261833E+03   -0.40952E-04   -0.13181E-05  1040   0.643E-03    0.114E-02
DAV:  20    -0.458805275770E+03   -0.13937E-04   -0.25394E-06   992   0.344E-03    0.114E-02
DAV:  21    -0.458805290809E+03   -0.15039E-04   -0.36551E-06  1000   0.327E-03    0.536E-03
DAV:  22    -0.458805297914E+03   -0.71049E-05   -0.10440E-06   960   0.189E-03
   4 F= -.45880530E+03 E0= -.45873770E+03  d E =-.485922E+01
       N       E                     dE             d eps       ncg     rms          rms(c)
DAV:   1    -0.458837691693E+03   -0.32401E-01   -0.40519E+00  1392   0.453E+00    0.349E+00
DAV:   2    -0.458981795742E+03   -0.14410E+00   -0.18437E+00  1592   0.262E+00    0.904E+00
DAV:   3    -0.458824910234E+03    0.15689E+00   -0.91194E-01  1584   0.210E+00    0.654E-01
DAV:   4    -0.458827425902E+03   -0.25157E-02   -0.57143E-02  1528   0.442E-01    0.202E+00
DAV:   5    -0.458826269379E+03    0.11565E-02   -0.83943E-03  1552   0.182E-01    0.127E+00
DAV:   6    -0.458824632840E+03    0.16365E-02   -0.17129E-02  1688   0.255E-01    0.223E-01
DAV:   7    -0.458824767090E+03   -0.13425E-03   -0.41042E-03  1576   0.136E-01    0.342E-01
DAV:   8    -0.458824779726E+03   -0.12636E-04   -0.79734E-04  1560   0.675E-02    0.546E-02
DAV:   9    -0.458824781593E+03   -0.18666E-05   -0.83968E-05  1520   0.243E-02
   5 F= -.45882478E+03 E0= -.45875445E+03  d E =-.487871E+01
       N       E                     dE             d eps       ncg     rms          rms(c)
DAV:   1    -0.460543145822E+03   -0.17184E+01   -0.12597E+02  1376   0.279E+01    0.561E+00
DAV:   2    -0.461185274914E+03   -0.64213E+00   -0.90878E+00  1592   0.649E+00    0.153E+01
DAV:   3    -0.460991428198E+03    0.19385E+00   -0.44088E-01  1584   0.205E+00    0.135E+01
DAV:   4    -0.460826737701E+03    0.16469E+00   -0.19412E-01  1656   0.133E+00    0.113E+01
DAV:   5    -0.460735791646E+03    0.90946E-01   -0.10955E+00  1608   0.232E+00    0.327E+00
DAV:   6    -0.460735404064E+03    0.38758E-03   -0.26234E-01  1568   0.142E+00    0.402E+00
DAV:   7    -0.460712396854E+03    0.23007E-01   -0.47809E-02  1488   0.575E-01    0.300E+00
DAV:   8    -0.460695641289E+03    0.16756E-01   -0.46310E-02  1600   0.448E-01    0.143E+00
DAV:   9    -0.460701343111E+03   -0.57018E-02   -0.27243E-02  1512   0.367E-01    0.246E+00
DAV:  10    -0.460693947229E+03    0.73959E-02   -0.30414E-02  1648   0.313E-01    0.514E-01
DAV:  11    -0.460694899835E+03   -0.95261E-03   -0.93307E-03  1584   0.226E-01    0.247E-01
DAV:  12    -0.460695370936E+03   -0.47110E-03   -0.63796E-04  1504   0.652E-02    0.105E-01
DAV:  13    -0.460695445895E+03   -0.74959E-04   -0.79432E-05  1552   0.237E-02    0.110E-01
DAV:  14    -0.460695604582E+03   -0.15869E-03   -0.13542E-04  1432   0.267E-02    0.475E-02
DAV:  15    -0.460695642114E+03   -0.37532E-04   -0.25110E-05  1024   0.120E-02    0.436E-02
DAV:  16    -0.460695685476E+03   -0.43362E-04   -0.46608E-05  1032   0.146E-02    0.422E-02
DAV:  17    -0.460695715906E+03   -0.30429E-04   -0.11056E-05   968   0.780E-03    0.129E-02
DAV:  18    -0.460695739468E+03   -0.23562E-04   -0.37372E-06  1008   0.417E-03    0.562E-03
DAV:  19    -0.460695760851E+03   -0.21383E-04   -0.16783E-06   952   0.276E-03    0.108E-02
DAV:  20    -0.460695784938E+03   -0.24087E-04   -0.21521E-06  1008   0.223E-03    0.250E-03
DAV:  21    -0.460695799632E+03   -0.14694E-04   -0.10876E-06   976   0.169E-03    0.197E-03
DAV:  22    -0.460695809562E+03   -0.99298E-05   -0.81642E-07   984   0.122E-03
   6 F= -.46069581E+03 E0= -.46062509E+03  d E =-.187103E+01
       N       E                     dE             d eps       ncg     rms          rms(c)
DAV:   1    -0.461231943341E+03   -0.53614E+00   -0.16581E+02  1376   0.318E+01    0.603E+00
DAV:   2    -0.462219011233E+03   -0.98707E+00   -0.14857E+01  1608   0.798E+00    0.156E+01
DAV:   3    -0.461632358322E+03    0.58665E+00   -0.89413E-01  1568   0.353E+00    0.120E+01
DAV:   4    -0.461446462790E+03    0.18590E+00   -0.36110E-01  1680   0.164E+00    0.697E+00
DAV:   5    -0.461434563447E+03    0.11899E-01   -0.99893E-01  1592   0.194E+00    0.375E+00
DAV:   6    -0.461409852008E+03    0.24711E-01   -0.21869E-01  1576   0.119E+00    0.172E+00
DAV:   7    -0.461405868629E+03    0.39834E-02   -0.33260E-02  1560   0.460E-01    0.199E+00
DAV:   8    -0.461403131186E+03    0.27374E-02   -0.96482E-03  1600   0.237E-01    0.132E+00
DAV:   9    -0.461401469869E+03    0.16613E-02   -0.26766E-02  1632   0.317E-01    0.409E-01
DAV:  10    -0.461402417867E+03   -0.94800E-03   -0.33961E-03  1520   0.141E-01    0.884E-02
DAV:  11    -0.461402563244E+03   -0.14538E-03   -0.55086E-04  1576   0.540E-02    0.851E-02
DAV:  12    -0.461402704727E+03   -0.14148E-03   -0.46208E-04  1552   0.398E-02    0.137E-01
DAV:  13    -0.461402819619E+03   -0.11489E-03   -0.98766E-05  1176   0.193E-02    0.492E-02
DAV:  14    -0.461402947181E+03   -0.12756E-03   -0.13730E-04  1152   0.213E-02    0.656E-02
DAV:  15    -0.461403016448E+03   -0.69267E-04   -0.59765E-05  1056   0.126E-02    0.181E-02
DAV:  16    -0.461403078981E+03   -0.62533E-04   -0.10990E-05  1024   0.521E-03    0.150E-02
DAV:  17    -0.461403157953E+03   -0.78971E-04   -0.10115E-05  1064   0.505E-03    0.126E-02
DAV:  18    -0.461403206360E+03   -0.48407E-04   -0.42625E-06  1024   0.312E-03    0.274E-03
DAV:  19    -0.461403230393E+03   -0.24033E-04   -0.22546E-06  1008   0.233E-03    0.228E-03
DAV:  20    -0.461403247144E+03   -0.16751E-04   -0.22351E-06  1024   0.214E-03    0.657E-03
DAV:  21    -0.461403254022E+03   -0.68788E-05   -0.86630E-07   984   0.140E-03
   7 F= -.46140325E+03 E0= -.46132964E+03  d E =-.257847E+01
       N       E                     dE             d eps       ncg     rms          rms(c)
DAV:   1    -0.462554990793E+03   -0.11517E+01   -0.13203E+02  1392   0.287E+01    0.329E+00
DAV:   2    -0.462764542407E+03   -0.20955E+00   -0.31930E+00  1632   0.447E+00    0.463E+00
DAV:   3    -0.462735534023E+03    0.29008E-01   -0.56660E-01  1624   0.150E+00    0.247E+00
DAV:   4    -0.462711913473E+03    0.23621E-01   -0.18809E-01  1600   0.937E-01    0.181E+00
DAV:   5    -0.462708752100E+03    0.31614E-02   -0.12312E-01  1608   0.797E-01    0.127E+00
DAV:   6    -0.462701502458E+03    0.72496E-02   -0.46343E-02  1560   0.534E-01    0.749E-01
DAV:   7    -0.462701790133E+03   -0.28768E-03   -0.16519E-02  1584   0.268E-01    0.241E-01
DAV:   8    -0.462702114493E+03   -0.32436E-03   -0.23368E-03  1544   0.104E-01    0.170E-01
DAV:   9    -0.462702242817E+03   -0.12832E-03   -0.76272E-04  1576   0.609E-02    0.139E-01
DAV:  10    -0.462702360121E+03   -0.11730E-03   -0.59395E-04  1592   0.500E-02    0.270E-02
DAV:  11    -0.462702465910E+03   -0.10579E-03   -0.71535E-05  1376   0.210E-02    0.115E-02
DAV:  12    -0.462702525698E+03   -0.59788E-04   -0.16107E-05   992   0.101E-02    0.121E-02
DAV:  13    -0.462702620440E+03   -0.94742E-04   -0.76981E-06  1016   0.603E-03    0.406E-03
DAV:  14    -0.462702701046E+03   -0.80606E-04   -0.40979E-06  1024   0.373E-03    0.342E-03
DAV:  15    -0.462702769755E+03   -0.68709E-04   -0.42463E-06  1016   0.310E-03    0.272E-03
DAV:  16    -0.462702809669E+03   -0.39914E-04   -0.25545E-06  1016   0.221E-03    0.221E-03
DAV:  17    -0.462702834562E+03   -0.24893E-04   -0.19230E-06   992   0.200E-03    0.101E-03
DAV:  18    -0.462702845710E+03   -0.11148E-04   -0.88464E-07  1008   0.131E-03    0.467E-04
DAV:  19    -0.462702852460E+03   -0.67497E-05   -0.41519E-07   992   0.912E-04
   8 F= -.46270285E+03 E0= -.46263307E+03  d E =-.129960E+01
       N       E                     dE             d eps       ncg     rms          rms(c)
DAV:   1    -0.463009310671E+03   -0.30646E+00   -0.14621E+02  1376   0.302E+01    0.347E+00
DAV:   2    -0.463235567198E+03   -0.22626E+00   -0.34935E+00  1624   0.472E+00    0.463E+00
DAV:   3    -0.463202952612E+03    0.32615E-01   -0.65893E-01  1600   0.166E+00    0.240E+00
DAV:   4    -0.463178276426E+03    0.24676E-01   -0.20783E-01  1584   0.101E+00    0.191E+00
DAV:   5    -0.463175594120E+03    0.26823E-02   -0.14159E-01  1632   0.843E-01    0.123E+00
DAV:   6    -0.463167121367E+03    0.84728E-02   -0.54183E-02  1592   0.550E-01    0.672E-01
DAV:   7    -0.463167624467E+03   -0.50310E-03   -0.15104E-02  1592   0.270E-01    0.195E-01
DAV:   8    -0.463167889106E+03   -0.26464E-03   -0.22416E-03  1552   0.104E-01    0.159E-01
DAV:   9    -0.463168040086E+03   -0.15098E-03   -0.72323E-04  1552   0.584E-02    0.134E-01
DAV:  10    -0.463168170192E+03   -0.13011E-03   -0.54914E-04  1584   0.486E-02    0.315E-02
DAV:  11    -0.463168286850E+03   -0.11666E-03   -0.55176E-05  1320   0.192E-02    0.127E-02
DAV:  12    -0.463168352612E+03   -0.65762E-04   -0.10446E-05  1008   0.842E-03    0.106E-02
DAV:  13    -0.463168451539E+03   -0.98927E-04   -0.67063E-06   992   0.543E-03    0.375E-03
DAV:  14    -0.463168538101E+03   -0.86562E-04   -0.44643E-06  1024   0.355E-03    0.359E-03
DAV:  15    -0.463168605419E+03   -0.67318E-04   -0.41208E-06  1008   0.296E-03    0.225E-03
DAV:  16    -0.463168645886E+03   -0.40467E-04   -0.27948E-06  1008   0.228E-03    0.189E-03
DAV:  17    -0.463168667123E+03   -0.21236E-04   -0.15235E-06   968   0.187E-03    0.847E-04
DAV:  18    -0.463168677545E+03   -0.10422E-04   -0.90395E-07  1016   0.123E-03    0.421E-04
DAV:  19    -0.463168683581E+03   -0.60359E-05   -0.36750E-07   976   0.837E-04
   9 F= -.46316868E+03 E0= -.46310459E+03  d E =-.176543E+01
       N       E                     dE             d eps       ncg     rms          rms(c)
DAV:   1    -0.464207950705E+03   -0.10393E+01   -0.17569E+02  1376   0.313E+01    0.415E+00
DAV:   2    -0.464818881344E+03   -0.61093E+00   -0.99581E+00  1592   0.687E+00    0.123E+01
DAV:   3    -0.464410304939E+03    0.40858E+00   -0.18048E+00  1552   0.308E+00    0.483E+00
DAV:   4    -0.464365582344E+03    0.44723E-01   -0.18885E-01  1608   0.114E+00    0.474E+00
DAV:   5    -0.464349990957E+03    0.15591E-01   -0.97829E-02  1592   0.809E-01    0.276E+00
DAV:   6    -0.464335770289E+03    0.14221E-01   -0.10574E-01  1576   0.782E-01    0.969E-01
DAV:   7    -0.464331398646E+03    0.43716E-02   -0.21969E-02  1568   0.390E-01    0.558E-01
DAV:   8    -0.464331518845E+03   -0.12020E-03   -0.54562E-03  1600   0.165E-01    0.452E-01
DAV:   9    -0.464331398321E+03    0.12052E-03   -0.26403E-03  1560   0.125E-01    0.163E-01
DAV:  10    -0.464331384524E+03    0.13797E-04   -0.11176E-03  1608   0.788E-02    0.444E-02
DAV:  11    -0.464331528225E+03   -0.14370E-03   -0.37419E-04  1656   0.511E-02    0.384E-02
DAV:  12    -0.464331583488E+03   -0.55263E-04   -0.67596E-05  1496   0.213E-02    0.239E-02
DAV:  13    -0.464331657809E+03   -0.74322E-04   -0.19962E-05  1024   0.105E-02    0.122E-02
DAV:  14    -0.464331740140E+03   -0.82330E-04   -0.12142E-05  1016   0.707E-03    0.629E-03
DAV:  15    -0.464331766048E+03   -0.25908E-04   -0.29692E-06   992   0.391E-03    0.305E-03
DAV:  16    -0.464331803092E+03   -0.37044E-04   -0.34235E-06  1016   0.256E-03    0.236E-03
DAV:  17    -0.464331852798E+03   -0.49706E-04   -0.61142E-06  1024   0.271E-03    0.183E-03
DAV:  18    -0.464331874523E+03   -0.21726E-04   -0.28977E-06  1040   0.190E-03    0.107E-03
DAV:  19    -0.464331881965E+03   -0.74417E-05   -0.89487E-07   976   0.130E-03
  10 F= -.46433188E+03 E0= -.46427883E+03  d E =-.116320E+01
       N       E                     dE             d eps       ncg     rms          rms(c)
DAV:   1    -0.464581363886E+03   -0.24949E+00   -0.28277E+02  1376   0.397E+01    0.505E+00
DAV:   2    -0.465181543686E+03   -0.60018E+00   -0.98028E+00  1588   0.753E+00    0.103E+01
DAV:   3    -0.464916951673E+03    0.26459E+00   -0.16965E+00  1568   0.304E+00    0.415E+00
DAV:   4    -0.464877607455E+03    0.39344E-01   -0.21387E-01  1576   0.124E+00    0.420E+00
DAV:   5    -0.464879300482E+03   -0.16930E-02   -0.92376E-02  1648   0.812E-01    0.285E+00
DAV:   6    -0.464852199924E+03    0.27101E-01   -0.15916E-01  1628   0.876E-01    0.937E-01
DAV:   7    -0.464850118531E+03    0.20814E-02   -0.14058E-02  1560   0.335E-01    0.682E-01
DAV:   8    -0.464849293179E+03    0.82535E-03   -0.39026E-03  1624   0.162E-01    0.410E-01
DAV:   9    -0.464848996657E+03    0.29652E-03   -0.16702E-03  1608   0.105E-01    0.188E-01
DAV:  10    -0.464849089623E+03   -0.92966E-04   -0.10282E-03  1592   0.900E-02    0.339E-02
DAV:  11    -0.464849219678E+03   -0.13005E-03   -0.17076E-04  1656   0.340E-02    0.279E-02
DAV:  12    -0.464849333708E+03   -0.11403E-03   -0.25518E-05  1096   0.134E-02    0.139E-02
DAV:  13    -0.464849442896E+03   -0.10919E-03   -0.16197E-05  1088   0.842E-03    0.583E-03
DAV:  14    -0.464849498285E+03   -0.55389E-04   -0.58809E-06  1072   0.510E-03    0.407E-03
DAV:  15    -0.464849557199E+03   -0.58914E-04   -0.57187E-06  1048   0.420E-03    0.403E-03
DAV:  16    -0.464849627406E+03   -0.70208E-04   -0.97154E-06  1064   0.367E-03    0.233E-03
DAV:  17    -0.464849658387E+03   -0.30981E-04   -0.42032E-06  1056   0.312E-03    0.147E-03
DAV:  18    -0.464849672998E+03   -0.14611E-04   -0.24017E-06  1032   0.193E-03    0.774E-04
DAV:  19    -0.464849677153E+03   -0.41558E-05   -0.51374E-07  1024   0.112E-03
  11 F= -.46484968E+03 E0= -.46480715E+03  d E =-.168099E+01
       N       E                     dE             d eps       ncg     rms          rms(c)
DAV:   1    -0.465692889618E+03   -0.84322E+00   -0.15033E+02  1384   0.274E+01    0.340E+00
DAV:   2    -0.465991815050E+03   -0.29893E+00   -0.46490E+00  1604   0.498E+00    0.720E+00
DAV:   3    -0.465878992759E+03    0.11282E+00   -0.55525E-01  1536   0.180E+00    0.376E+00
DAV:   4    -0.465852732941E+03    0.26260E-01   -0.12334E-01  1576   0.898E-01    0.356E+00
DAV:   5    -0.465847238480E+03    0.54945E-02   -0.66866E-02  1608   0.768E-01    0.227E+00
DAV:   6    -0.465832230521E+03    0.15008E-01   -0.68183E-02  1572   0.619E-01    0.110E+00
DAV:   7    -0.465830181270E+03    0.20493E-02   -0.75722E-03  1584   0.249E-01    0.711E-01
DAV:   8    -0.465829218042E+03    0.96323E-03   -0.33468E-03  1616   0.146E-01    0.395E-01
DAV:   9    -0.465828897687E+03    0.32035E-03   -0.22048E-03  1568   0.121E-01    0.107E-01
DAV:  10    -0.465829080717E+03   -0.18303E-03   -0.39527E-04  1728   0.485E-02    0.461E-02
DAV:  11    -0.465829211792E+03   -0.13108E-03   -0.53782E-05  1432   0.195E-02    0.225E-02
DAV:  12    -0.465829334983E+03   -0.12319E-03   -0.15742E-05  1068   0.932E-03    0.835E-03
DAV:  13    -0.465829397474E+03   -0.62491E-04   -0.79408E-06  1072   0.598E-03    0.469E-03
DAV:  14    -0.465829443802E+03   -0.46328E-04   -0.36959E-06  1048   0.336E-03    0.356E-03
DAV:  15    -0.465829512454E+03   -0.68652E-04   -0.90372E-06  1048   0.332E-03    0.431E-03
DAV:  16    -0.465829541150E+03   -0.28696E-04   -0.32928E-06  1064   0.293E-03    0.118E-03
DAV:  17    -0.465829558953E+03   -0.17802E-04   -0.23065E-06  1016   0.192E-03    0.102E-03
DAV:  18    -0.465829569429E+03   -0.10477E-04   -0.13086E-06  1008   0.142E-03    0.496E-04
DAV:  19    -0.465829574795E+03   -0.53658E-05   -0.50820E-07   992   0.898E-04
  12 F= -.46582957E+03 E0= -.46579206E+03  d E =-.979898E+00
       N       E                     dE             d eps       ncg     rms          rms(c)
DAV:   1    -0.465816943317E+03    0.12626E-01   -0.72866E+02  1400   0.599E+01    0.759E+00
DAV:   2    -0.466940653199E+03   -0.11237E+01   -0.15663E+01  1588   0.990E+00    0.974E+00
DAV:   3    -0.466801215675E+03    0.13944E+00   -0.28349E+00  1600   0.345E+00    0.410E+00
DAV:   4    -0.466858696064E+03   -0.57480E-01   -0.16041E+00  1616   0.259E+00    0.707E+00
DAV:   5    -0.466722219220E+03    0.13648E+00   -0.96267E-01  1560   0.181E+00    0.186E+00
DAV:   6    -0.466713168171E+03    0.90510E-02   -0.96679E-02  1584   0.945E-01    0.108E+00
DAV:   7    -0.466713325554E+03   -0.15738E-03   -0.15355E-02  1576   0.386E-01    0.819E-01
DAV:   8    -0.466711136789E+03    0.21888E-02   -0.11842E-02  1600   0.269E-01    0.268E-01
DAV:   9    -0.466712027703E+03   -0.89091E-03   -0.20895E-03  1616   0.111E-01    0.649E-02
DAV:  10    -0.466712471553E+03   -0.44385E-03   -0.17386E-04  1656   0.334E-02    0.377E-02
DAV:  11    -0.466712861838E+03   -0.39029E-03   -0.51884E-05  1312   0.159E-02    0.151E-02
DAV:  12    -0.466713272376E+03   -0.41054E-03   -0.41638E-05  1200   0.104E-02    0.851E-03
DAV:  13    -0.466713492422E+03   -0.22005E-03   -0.17810E-05  1096   0.650E-03    0.728E-03
DAV:  14    -0.466713775141E+03   -0.28272E-03   -0.47851E-05  1208   0.742E-03    0.516E-03
DAV:  15    -0.466713856091E+03   -0.80950E-04   -0.97918E-06  1088   0.428E-03    0.208E-03
DAV:  16    -0.466713896851E+03   -0.40760E-04   -0.43535E-06  1080   0.267E-03    0.173E-03
DAV:  17    -0.466713917829E+03   -0.20978E-04   -0.18248E-06  1032   0.197E-03    0.164E-03
DAV:  18    -0.466713930106E+03   -0.12277E-04   -0.90866E-07   992   0.145E-03    0.629E-04
DAV:  19    -0.466713939750E+03   -0.96443E-05   -0.85685E-07  1008   0.107E-03
  13 F= -.46671394E+03 E0= -.46668663E+03  d E =-.186426E+01
       N       E                     dE             d eps       ncg     rms          rms(c)
DAV:   1    -0.467665113003E+03   -0.95118E+00   -0.24285E+02  1376   0.340E+01    0.390E+00
DAV:   2    -0.467915199591E+03   -0.25009E+00   -0.38270E+00  1600   0.494E+00    0.206E+00
DAV:   3    -0.467887334340E+03    0.27865E-01   -0.25657E-01  1632   0.136E+00    0.177E+00
DAV:   4    -0.467882825485E+03    0.45089E-02   -0.13149E-01  1608   0.996E-01    0.839E-01
DAV:   5    -0.467875944418E+03    0.68811E-02   -0.50552E-02  1592   0.637E-01    0.544E-01
DAV:   6    -0.467875575672E+03    0.36875E-03   -0.94759E-03  1536   0.276E-01    0.165E-01
DAV:   7    -0.467875674715E+03   -0.99043E-04   -0.15510E-03  1568   0.121E-01    0.956E-02
DAV:   8    -0.467875936636E+03   -0.26192E-03   -0.41063E-04  1624   0.523E-02    0.362E-02
DAV:   9    -0.467876184915E+03   -0.24828E-03   -0.78123E-05  1480   0.251E-02    0.169E-02
DAV:  10    -0.467876388250E+03   -0.20333E-03   -0.27108E-05  1192   0.126E-02    0.925E-03
DAV:  11    -0.467876573413E+03   -0.18516E-03   -0.12770E-05  1040   0.622E-03    0.494E-03
DAV:  12    -0.467876769214E+03   -0.19580E-03   -0.22936E-05  1172   0.714E-03    0.339E-03
DAV:  13    -0.467876874250E+03   -0.10504E-03   -0.10235E-05  1072   0.536E-03    0.293E-03
DAV:  14    -0.467876921953E+03   -0.47703E-04   -0.51155E-06  1072   0.346E-03    0.124E-03
DAV:  15    -0.467876944491E+03   -0.22538E-04   -0.17689E-06  1008   0.208E-03    0.821E-04
DAV:  16    -0.467876962054E+03   -0.17563E-04   -0.18941E-06  1016   0.163E-03    0.465E-04
DAV:  17    -0.467876973044E+03   -0.10990E-04   -0.66630E-07   992   0.119E-03    0.370E-04
DAV:  18    -0.467876978847E+03   -0.58027E-05   -0.49783E-07   968   0.806E-04
  14 F= -.46787698E+03 E0= -.46785883E+03  d E =-.116304E+01
       N       E                     dE             d eps       ncg     rms          rms(c)
DAV:   1    -0.468045627180E+03   -0.16865E+00   -0.23981E+02  1376   0.336E+01    0.392E+00
DAV:   2    -0.468296983747E+03   -0.25136E+00   -0.37557E+00  1576   0.492E+00    0.190E+00
DAV:   3    -0.468267370331E+03    0.29613E-01   -0.27975E-01  1608   0.151E+00    0.176E+00
DAV:   4    -0.468257791234E+03    0.95791E-02   -0.91968E-02  1560   0.879E-01    0.628E-01
DAV:   5    -0.468255858508E+03    0.19327E-02   -0.21595E-02  1560   0.440E-01    0.440E-01
DAV:   6    -0.468255666332E+03    0.19218E-03   -0.55943E-03  1592   0.214E-01    0.110E-01
DAV:   7    -0.468255839930E+03   -0.17360E-03   -0.85270E-04  1584   0.828E-02    0.605E-02
DAV:   8    -0.468256028020E+03   -0.18809E-03   -0.16529E-04  1576   0.380E-02    0.294E-02
DAV:   9    -0.468256191272E+03   -0.16325E-03   -0.35398E-05  1192   0.188E-02    0.115E-02
DAV:  10    -0.468256364916E+03   -0.17364E-03   -0.17550E-05  1092   0.906E-03    0.597E-03
DAV:  11    -0.468256528832E+03   -0.16392E-03   -0.12774E-05  1064   0.689E-03    0.373E-03
DAV:  12    -0.468256658646E+03   -0.12981E-03   -0.11629E-05  1048   0.625E-03    0.296E-03
DAV:  13    -0.468256735940E+03   -0.77295E-04   -0.80721E-06  1048   0.487E-03    0.153E-03
DAV:  14    -0.468256763458E+03   -0.27518E-04   -0.22328E-06   976   0.258E-03    0.102E-03
DAV:  15    -0.468256777266E+03   -0.13808E-04   -0.13250E-06   976   0.164E-03    0.708E-04
DAV:  16    -0.468256794459E+03   -0.17193E-04   -0.10697E-06   944   0.159E-03    0.413E-04
DAV:  17    -0.468256802765E+03   -0.83055E-05   -0.75094E-07   984   0.109E-03
  15 F= -.46825680E+03 E0= -.46825029E+03  d E =-.154286E+01
       N       E                     dE             d eps       ncg     rms          rms(c)
DAV:   1    -0.468945955467E+03   -0.68916E+00   -0.34267E+02  1392   0.386E+01    0.403E+00
DAV:   2    -0.469361386388E+03   -0.41543E+00   -0.52635E+00  1568   0.561E+00    0.223E+00
DAV:   3    -0.469331539792E+03    0.29847E-01   -0.27053E-01  1576   0.146E+00    0.176E+00
DAV:   4    -0.469324279314E+03    0.72605E-02   -0.67224E-02  1584   0.750E-01    0.812E-01
DAV:   5    -0.469323244657E+03    0.10347E-02   -0.15074E-02  1568   0.405E-01    0.411E-01
DAV:   6    -0.469323422653E+03   -0.17800E-03   -0.39976E-03  1548   0.182E-01    0.919E-02
DAV:   7    -0.469323458153E+03   -0.35501E-04   -0.63624E-04  1512   0.713E-02    0.607E-02
DAV:   8    -0.469323587633E+03   -0.12948E-03   -0.15963E-04  1552   0.343E-02    0.259E-02
DAV:   9    -0.469323671894E+03   -0.84261E-04   -0.32855E-05  1192   0.164E-02    0.113E-02
DAV:  10    -0.469323769794E+03   -0.97900E-04   -0.11614E-05  1024   0.855E-03    0.578E-03
DAV:  11    -0.469323866279E+03   -0.96485E-04   -0.86746E-06  1040   0.563E-03    0.288E-03
DAV:  12    -0.469323952604E+03   -0.86325E-04   -0.91352E-06  1056   0.451E-03    0.232E-03
DAV:  13    -0.469324004446E+03   -0.51843E-04   -0.54268E-06  1024   0.333E-03    0.127E-03
DAV:  14    -0.469324027317E+03   -0.22871E-04   -0.23693E-06   984   0.220E-03    0.831E-04
DAV:  15    -0.469324038496E+03   -0.11179E-04   -0.13016E-06   992   0.157E-03    0.480E-04
DAV:  16    -0.469324047483E+03   -0.89869E-05   -0.75159E-07   976   0.119E-03
  16 F= -.46932405E+03 E0= -.46932381E+03  d E =-.106724E+01
       N       E                     dE             d eps       ncg     rms          rms(c)
DAV:   1    -0.469367642144E+03   -0.43604E-01   -0.22619E+02  1376   0.312E+01    0.323E+00
DAV:   2    -0.469634212966E+03   -0.26657E+00   -0.34124E+00  1584   0.452E+00    0.169E+00
DAV:   3    -0.469614440778E+03    0.19772E-01   -0.17978E-01  1584   0.122E+00    0.137E+00
DAV:   4    -0.469610314856E+03    0.41259E-02   -0.42430E-02  1584   0.595E-01    0.647E-01
DAV:   5    -0.469609957401E+03    0.35746E-03   -0.76732E-03  1552   0.296E-01    0.337E-01
DAV:   6    -0.469610113067E+03   -0.15567E-03   -0.22562E-03  1568   0.140E-01    0.651E-02
DAV:   7    -0.469610148256E+03   -0.35189E-04   -0.35136E-04  1544   0.516E-02    0.448E-02
DAV:   8    -0.469610231308E+03   -0.83052E-04   -0.73530E-05  1544   0.230E-02    0.153E-02
DAV:   9    -0.469610294476E+03   -0.63168E-04   -0.94464E-06  1008   0.917E-03    0.604E-03
DAV:  10    -0.469610357699E+03   -0.63223E-04   -0.69960E-06  1008   0.583E-03    0.274E-03
DAV:  11    -0.469610406787E+03   -0.49088E-04   -0.36349E-06  1008   0.377E-03    0.207E-03
DAV:  12    -0.469610444472E+03   -0.37685E-04   -0.35404E-06  1008   0.311E-03    0.159E-03
DAV:  13    -0.469610463020E+03   -0.18549E-04   -0.18424E-06   984   0.217E-03    0.101E-03
DAV:  14    -0.469610478762E+03   -0.15742E-04   -0.18206E-06   992   0.190E-03    0.546E-04
DAV:  15    -0.469610485598E+03   -0.68359E-05   -0.76872E-07   976   0.128E-03
  17 F= -.46961049E+03 E0= -.46961048E+03  d E =-.135368E+01
       N       E                     dE             d eps       ncg     rms          rms(c)
DAV:   1    -0.470174795914E+03   -0.56432E+00   -0.27816E+02  1408   0.359E+01    0.344E+00
DAV:   2    -0.470539306227E+03   -0.36451E+00   -0.44195E+00  1568   0.530E+00    0.228E+00
DAV:   3    -0.470518883445E+03    0.20423E-01   -0.20281E-01  1576   0.125E+00    0.146E+00
DAV:   4    -0.470511158740E+03    0.77247E-02   -0.50920E-02  1624   0.655E-01    0.839E-01
DAV:   5    -0.470509997858E+03    0.11609E-02   -0.11851E-02  1560   0.345E-01    0.218E-01
DAV:   6    -0.470510281791E+03   -0.28393E-03   -0.23090E-03  1568   0.145E-01    0.141E-01
DAV:   7    -0.470510377527E+03   -0.95736E-04   -0.41697E-04  1608   0.561E-02    0.748E-02
DAV:   8    -0.470510509358E+03   -0.13183E-03   -0.19240E-04  1528   0.418E-02    0.246E-02
DAV:   9    -0.470510606084E+03   -0.96726E-04   -0.50297E-05  1424   0.198E-02    0.161E-02
DAV:  10    -0.470510667142E+03   -0.61058E-04   -0.52715E-06   960   0.765E-03    0.780E-03
DAV:  11    -0.470510767818E+03   -0.10068E-03   -0.90012E-06  1000   0.599E-03    0.282E-03
DAV:  12    -0.470510821981E+03   -0.54163E-04   -0.41720E-06   984   0.391E-03    0.266E-03
DAV:  13    -0.470510873624E+03   -0.51643E-04   -0.45281E-06   992   0.386E-03    0.149E-03
DAV:  14    -0.470510897008E+03   -0.23384E-04   -0.27259E-06   960   0.257E-03    0.854E-04
DAV:  15    -0.470510904874E+03   -0.78659E-05   -0.11016E-06   968   0.190E-03
  18 F= -.47051090E+03 E0= -.47051090E+03  d E =-.900419E+00
       N       E                     dE             d eps       ncg     rms          rms(c)
DAV:   1    -0.470539272432E+03   -0.28375E-01   -0.55553E+01  1400   0.160E+01    0.147E+00
DAV:   2    -0.470609313685E+03   -0.70041E-01   -0.84376E-01  1560   0.231E+00    0.916E-01
DAV:   3    -0.470605003911E+03    0.43098E-02   -0.39827E-02  1592   0.558E-01    0.588E-01
DAV:   4    -0.470603819294E+03    0.11846E-02   -0.95199E-03  1584   0.274E-01    0.286E-01
DAV:   5    -0.470603731733E+03    0.87561E-04   -0.16840E-03  1568   0.133E-01    0.780E-02
DAV:   6    -0.470603777658E+03   -0.45925E-04   -0.33289E-04  1568   0.565E-02    0.455E-02
DAV:   7    -0.470603800351E+03   -0.22693E-04   -0.50314E-05  1264   0.192E-02    0.245E-02
DAV:   8    -0.470603838446E+03   -0.38094E-04   -0.26930E-05  1112   0.158E-02    0.762E-03
DAV:   9    -0.470603864111E+03   -0.25666E-04   -0.70425E-06   936   0.766E-03    0.464E-03
DAV:  10    -0.470603885532E+03   -0.21421E-04   -0.20720E-06   936   0.376E-03    0.237E-03
DAV:  11    -0.470603908949E+03   -0.23417E-04   -0.20163E-06   944   0.291E-03    0.148E-03
DAV:  12    -0.470603919639E+03   -0.10690E-04   -0.89375E-07   936   0.186E-03    0.103E-03
DAV:  13    -0.470603931645E+03   -0.12006E-04   -0.10518E-06   952   0.175E-03    0.487E-04
DAV:  14    -0.470603937486E+03   -0.58402E-05   -0.58859E-07   944   0.122E-03
  19 F= -.47060394E+03 E0= -.47060394E+03  d E =-.993452E+00
       N       E                     dE             d eps       ncg     rms          rms(c)
DAV:   1    -0.471172990926E+03   -0.56906E+00   -0.20908E+02  1376   0.317E+01    0.274E+00
DAV:   2    -0.471432503511E+03   -0.25951E+00   -0.31085E+00  1568   0.437E+00    0.165E+00
DAV:   3    -0.471412852497E+03    0.19651E-01   -0.13402E-01  1616   0.116E+00    0.111E+00
DAV:   4    -0.471408785853E+03    0.40666E-02   -0.45977E-02  1608   0.652E-01    0.468E-01
DAV:   5    -0.471408550721E+03    0.23513E-03   -0.65999E-03  1608   0.289E-01    0.210E-01
DAV:   6    -0.471408760260E+03   -0.20954E-03   -0.14789E-03  1544   0.117E-01    0.827E-02
DAV:   7    -0.471408790925E+03   -0.30665E-04   -0.22214E-04  1544   0.439E-02    0.512E-02
DAV:   8    -0.471408889219E+03   -0.98293E-04   -0.11006E-04  1560   0.287E-02    0.143E-02
DAV:   9    -0.471408939866E+03   -0.50647E-04   -0.16772E-05  1024   0.136E-02    0.695E-03
DAV:  10    -0.471409005543E+03   -0.65677E-04   -0.69894E-06   968   0.868E-03    0.420E-03
DAV:  11    -0.471409068860E+03   -0.63317E-04   -0.46709E-06   992   0.632E-03    0.283E-03
DAV:  12    -0.471409112766E+03   -0.43906E-04   -0.41753E-06   960   0.492E-03    0.188E-03
DAV:  13    -0.471409133236E+03   -0.20470E-04   -0.20511E-06   968   0.280E-03    0.146E-03
DAV:  14    -0.471409147222E+03   -0.13987E-04   -0.15057E-06   952   0.190E-03    0.641E-04
DAV:  15    -0.471409153515E+03   -0.62929E-05   -0.80854E-07   912   0.138E-03
  20 F= -.47140915E+03 E0= -.47140915E+03  d E =-.805216E+00
       N       E                     dE             d eps       ncg     rms          rms(c)
DAV:   1    -0.471374761840E+03    0.34385E-01   -0.35602E+02  1376   0.413E+01    0.359E+00
DAV:   2    -0.471823896586E+03   -0.44913E+00   -0.53848E+00  1560   0.574E+00    0.213E+00
DAV:   3    -0.471791702825E+03    0.32194E-01   -0.22634E-01  1632   0.151E+00    0.142E+00
DAV:   4    -0.471783651698E+03    0.80511E-02   -0.73909E-02  1616   0.830E-01    0.643E-01
DAV:   5    -0.471783076535E+03    0.57516E-03   -0.10546E-02  1608   0.360E-01    0.258E-01
DAV:   6    -0.471783430119E+03   -0.35358E-03   -0.23191E-03  1536   0.148E-01    0.109E-01
DAV:   7    -0.471783496441E+03   -0.66322E-04   -0.35127E-04  1576   0.582E-02    0.673E-02
DAV:   8    -0.471783665630E+03   -0.16919E-03   -0.18430E-04  1576   0.389E-02    0.191E-02
DAV:   9    -0.471783749374E+03   -0.83744E-04   -0.32587E-05  1344   0.181E-02    0.977E-03
DAV:  10    -0.471783851606E+03   -0.10223E-03   -0.83468E-06  1008   0.103E-02    0.557E-03
DAV:  11    -0.471783973620E+03   -0.12201E-03   -0.91593E-06  1048   0.884E-03    0.338E-03
DAV:  12    -0.471784039206E+03   -0.65586E-04   -0.57650E-06  1024   0.588E-03    0.265E-03
DAV:  13    -0.471784080414E+03   -0.41207E-04   -0.28687E-06   968   0.325E-03    0.145E-03
DAV:  14    -0.471784107185E+03   -0.26771E-04   -0.28989E-06  1000   0.257E-03    0.795E-04
DAV:  15    -0.471784116311E+03   -0.91257E-05   -0.10753E-06   936   0.171E-03
  21 F= -.47178412E+03 E0= -.47178412E+03  d E =-.118018E+01
       N       E                     dE             d eps       ncg     rms          rms(c)
DAV:   1    -0.472256376738E+03   -0.47227E+00   -0.27813E+02  1392   0.377E+01    0.316E+00
DAV:   2    -0.472615670979E+03   -0.35929E+00   -0.43716E+00  1592   0.516E+00    0.186E+00
DAV:   3    -0.472596046618E+03    0.19624E-01   -0.18720E-01  1608   0.131E+00    0.129E+00
DAV:   4    -0.472589614662E+03    0.64320E-02   -0.49264E-02  1632   0.658E-01    0.690E-01
DAV:   5    -0.472589134658E+03    0.48000E-03   -0.75130E-03  1600   0.290E-01    0.205E-01
DAV:   6    -0.472589363190E+03   -0.22853E-03   -0.17030E-03  1560   0.128E-01    0.102E-01
DAV:   7    -0.472589429984E+03   -0.66794E-04   -0.31413E-04  1584   0.542E-02    0.662E-02
DAV:   8    -0.472589531536E+03   -0.10155E-03   -0.11323E-04  1584   0.386E-02    0.224E-02
DAV:   9    -0.472589600301E+03   -0.68764E-04   -0.47995E-05  1400   0.200E-02    0.159E-02
DAV:  10    -0.472589651430E+03   -0.51129E-04   -0.47708E-06   936   0.644E-03    0.868E-03
DAV:  11    -0.472589732498E+03   -0.81068E-04   -0.60386E-06  1016   0.516E-03    0.261E-03
DAV:  12    -0.472589778061E+03   -0.45563E-04   -0.28456E-06   992   0.430E-03    0.232E-03
DAV:  13    -0.472589823426E+03   -0.45365E-04   -0.30990E-06   992   0.477E-03    0.139E-03
DAV:  14    -0.472589844954E+03   -0.21528E-04   -0.22340E-06  1016   0.272E-03    0.821E-04
DAV:  15    -0.472589851179E+03   -0.62251E-05   -0.66596E-07   928   0.173E-03
  22 F= -.47258985E+03 E0= -.47258985E+03  d E =-.805735E+00
       N       E                     dE             d eps       ncg     rms          rms(c)
DAV:   1    -0.472522311276E+03    0.67534E-01   -0.29159E+02  1392   0.386E+01    0.324E+00
DAV:   2    -0.472896523825E+03   -0.37421E+00   -0.45732E+00  1592   0.529E+00    0.188E+00
DAV:   3    -0.472876017056E+03    0.20507E-01   -0.19327E-01  1608   0.134E+00    0.130E+00
DAV:   4    -0.472869295589E+03    0.67215E-02   -0.50709E-02  1608   0.668E-01    0.697E-01
DAV:   5    -0.472868738659E+03    0.55693E-03   -0.76669E-03  1576   0.296E-01    0.205E-01
DAV:   6    -0.472868984636E+03   -0.24598E-03   -0.18263E-03  1592   0.129E-01    0.102E-01
DAV:   7    -0.472869056787E+03   -0.72152E-04   -0.33896E-04  1552   0.556E-02    0.674E-02
DAV:   8    -0.472869162516E+03   -0.10573E-03   -0.11241E-04  1584   0.394E-02    0.230E-02
DAV:   9    -0.472869237972E+03   -0.75456E-04   -0.51013E-05  1400   0.208E-02    0.165E-02
DAV:  10    -0.472869290750E+03   -0.52778E-04   -0.48440E-06   936   0.657E-03    0.915E-03
DAV:  11    -0.472869377638E+03   -0.86888E-04   -0.67296E-06  1024   0.554E-03    0.275E-03
DAV:  12    -0.472869424674E+03   -0.47036E-04   -0.30422E-06   984   0.459E-03    0.245E-03
DAV:  13    -0.472869474785E+03   -0.50111E-04   -0.35333E-06   992   0.544E-03    0.146E-03
DAV:  14    -0.472869497061E+03   -0.22275E-04   -0.25554E-06  1000   0.297E-03    0.905E-04
DAV:  15    -0.472869503046E+03   -0.59856E-05   -0.70640E-07   920   0.190E-03
  23 F= -.47286950E+03 E0= -.47286950E+03  d E =-.108539E+01
       N       E                     dE             d eps       ncg     rms          rms(c)
DAV:   1    -0.473144544675E+03   -0.27505E+00   -0.25471E+02  1376   0.375E+01    0.341E+00
DAV:   2    -0.473490682207E+03   -0.34614E+00   -0.43780E+00  1600   0.529E+00    0.189E+00
DAV:   3    -0.473468815282E+03    0.21867E-01   -0.18270E-01  1624   0.133E+00    0.135E+00
DAV:   4    -0.473461821205E+03    0.69941E-02   -0.46096E-02  1632   0.647E-01    0.765E-01
DAV:   5    -0.473460965853E+03    0.85535E-03   -0.79699E-03  1584   0.310E-01    0.209E-01
DAV:   6    -0.473461257866E+03   -0.29201E-03   -0.23676E-03  1616   0.151E-01    0.114E-01
DAV:   7    -0.473461337706E+03   -0.79840E-04   -0.40859E-04  1560   0.609E-02    0.801E-02
DAV:   8    -0.473461443967E+03   -0.10626E-03   -0.15993E-04  1592   0.415E-02    0.260E-02
DAV:   9    -0.473461509924E+03   -0.65957E-04   -0.42325E-05  1280   0.208E-02    0.154E-02
DAV:  10    -0.473461564696E+03   -0.54773E-04   -0.89282E-06  1008   0.992E-03    0.833E-03
DAV:  11    -0.473461634301E+03   -0.69605E-04   -0.61360E-06   992   0.771E-03    0.282E-03
DAV:  12    -0.473461689542E+03   -0.55241E-04   -0.53731E-06  1016   0.630E-03    0.296E-03
DAV:  13    -0.473461728625E+03   -0.39083E-04   -0.37411E-06  1024   0.432E-03    0.157E-03
DAV:  14    -0.473461751158E+03   -0.22532E-04   -0.25661E-06   992   0.298E-03    0.148E-03
DAV:  15    -0.473461758337E+03   -0.71797E-05   -0.10012E-06   904   0.213E-03
  24 F= -.47346176E+03 E0= -.47346176E+03  d E =-.592255E+00
       N       E                     dE             d eps       ncg     rms          rms(c)
DAV:   1    -0.473466963478E+03   -0.52123E-02   -0.39196E+01  1376   0.147E+01    0.126E+00
DAV:   2    -0.473518182568E+03   -0.51219E-01   -0.65228E-01  1600   0.204E+00    0.709E-01
DAV:   3    -0.473514779806E+03    0.34028E-02   -0.27489E-02  1608   0.521E-01    0.490E-01
DAV:   4    -0.473513876190E+03    0.90362E-03   -0.73529E-03  1632   0.257E-01    0.261E-01
DAV:   5    -0.473513819828E+03    0.56361E-04   -0.11460E-03  1576   0.119E-01    0.703E-02
DAV:   6    -0.473513862517E+03   -0.42688E-04   -0.28549E-04  1592   0.544E-02    0.375E-02
DAV:   7    -0.473513876344E+03   -0.13828E-04   -0.45635E-05  1248   0.210E-02    0.264E-02
DAV:   8    -0.473513900753E+03   -0.24409E-04   -0.19960E-05  1040   0.154E-02    0.800E-03
DAV:   9    -0.473513915578E+03   -0.14824E-04   -0.74782E-06   888   0.862E-03    0.500E-03
DAV:  10    -0.473513929316E+03   -0.13739E-04   -0.24138E-06   936   0.479E-03    0.278E-03
DAV:  11    -0.473513946201E+03   -0.16885E-04   -0.17331E-06   944   0.402E-03    0.111E-03
DAV:  12    -0.473513954309E+03   -0.81078E-05   -0.86540E-07   912   0.225E-03
  25 F= -.47351395E+03 E0= -.47351395E+03  d E =-.644451E+00
       N       E                     dE             d eps       ncg     rms          rms(c)
DAV:   1    -0.473712412689E+03   -0.19847E+00   -0.21789E+02  1392   0.358E+01    0.339E+00
DAV:   2    -0.474000232890E+03   -0.28782E+00   -0.38961E+00  1616   0.500E+00    0.168E+00
DAV:   3    -0.473979946688E+03    0.20286E-01   -0.15428E-01  1592   0.122E+00    0.118E+00
DAV:   4    -0.473974320984E+03    0.56257E-02   -0.41842E-02  1624   0.615E-01    0.607E-01
DAV:   5    -0.473974035559E+03    0.28542E-03   -0.62088E-03  1616   0.271E-01    0.185E-01
DAV:   6    -0.473974226607E+03   -0.19105E-03   -0.15413E-03  1616   0.126E-01    0.731E-02
DAV:   7    -0.473974295240E+03   -0.68633E-04   -0.27021E-04  1528   0.497E-02    0.474E-02
DAV:   8    -0.473974379304E+03   -0.84064E-04   -0.74218E-05  1544   0.305E-02    0.142E-02
DAV:   9    -0.473974424638E+03   -0.45334E-04   -0.18596E-05   992   0.131E-02    0.829E-03
DAV:  10    -0.473974465156E+03   -0.40518E-04   -0.42601E-06   928   0.568E-03    0.405E-03
DAV:  11    -0.473974521216E+03   -0.56060E-04   -0.42234E-06   960   0.445E-03    0.184E-03
DAV:  12    -0.473974548836E+03   -0.27620E-04   -0.23212E-06   944   0.298E-03    0.150E-03
DAV:  13    -0.473974579802E+03   -0.30966E-04   -0.29071E-06   944   0.344E-03    0.765E-04
DAV:  14    -0.473974590439E+03   -0.10637E-04   -0.15360E-06   936   0.204E-03    0.699E-04
DAV:  15    -0.473974593713E+03   -0.32734E-05   -0.57255E-07   920   0.138E-03
  26 F= -.47397459E+03 E0= -.47397459E+03  d E =-.460639E+00
       N       E                     dE             d eps       ncg     rms          rms(c)
DAV:   1    -0.473977278116E+03   -0.26877E-02   -0.17547E+01  1376   0.102E+01    0.885E-01
DAV:   2    -0.473999527409E+03   -0.22249E-01   -0.30126E-01  1624   0.139E+00    0.475E-01
DAV:   3    -0.473997922013E+03    0.16054E-02   -0.12059E-02  1584   0.341E-01    0.316E-01
DAV:   4    -0.473997530253E+03    0.39176E-03   -0.35269E-03  1584   0.179E-01    0.153E-01
DAV:   5    -0.473997534158E+03   -0.39054E-05   -0.49268E-04  1616   0.756E-02    0.486E-02
DAV:   6    -0.473997554647E+03   -0.20489E-04   -0.11032E-04  1552   0.319E-02    0.207E-02
DAV:   7    -0.473997561013E+03   -0.63665E-05   -0.15676E-05   944   0.133E-02
  27 F= -.47399756E+03 E0= -.47399756E+03  d E =-.483607E+00
       N       E                     dE             d eps       ncg     rms          rms(c)
DAV:   1    -0.474170809329E+03   -0.17325E+00   -0.82405E+01  1376   0.228E+01    0.217E+00
DAV:   2    -0.474267659533E+03   -0.96850E-01   -0.14671E+00  1600   0.316E+00    0.114E+00
DAV:   3    -0.474258722552E+03    0.89370E-02   -0.69959E-02  1608   0.826E-01    0.732E-01
DAV:   4    -0.474256417552E+03    0.23050E-02   -0.19381E-02  1616   0.424E-01    0.357E-01
DAV:   5    -0.474256274841E+03    0.14271E-03   -0.25643E-03  1616   0.172E-01    0.121E-01
DAV:   6    -0.474256366693E+03   -0.91852E-04   -0.56473E-04  1600   0.714E-02    0.505E-02
DAV:   7    -0.474256386718E+03   -0.20025E-04   -0.85759E-05  1512   0.283E-02    0.262E-02
DAV:   8    -0.474256422747E+03   -0.36029E-04   -0.25178E-05  1000   0.158E-02    0.749E-03
DAV:   9    -0.474256444978E+03   -0.22230E-04   -0.63535E-06   912   0.857E-03    0.443E-03
DAV:  10    -0.474256476541E+03   -0.31563E-04   -0.33630E-06   960   0.590E-03    0.196E-03
DAV:  11    -0.474256500596E+03   -0.24054E-04   -0.22677E-06   928   0.361E-03    0.151E-03
DAV:  12    -0.474256519349E+03   -0.18753E-04   -0.13296E-06   944   0.236E-03    0.844E-04
DAV:  13    -0.474256536843E+03   -0.17494E-04   -0.17877E-06   960   0.214E-03    0.721E-04
DAV:  14    -0.474256541254E+03   -0.44111E-05   -0.56773E-07   920   0.133E-03
  28 F= -.47425654E+03 E0= -.47425654E+03  d E =-.258980E+00
       N       E                     dE             d eps       ncg     rms          rms(c)
DAV:   1    -0.474264077699E+03   -0.75409E-02   -0.91611E+00  1376   0.761E+00    0.707E-01
DAV:   2    -0.474274676951E+03   -0.10599E-01   -0.16054E-01  1616   0.105E+00    0.384E-01
DAV:   3    -0.474273665329E+03    0.10116E-02   -0.74537E-03  1596   0.272E-01    0.245E-01
DAV:   4    -0.474273438768E+03    0.22656E-03   -0.21958E-03  1616   0.142E-01    0.116E-01
DAV:   5    -0.474273429001E+03    0.97662E-05   -0.28515E-04  1616   0.578E-02    0.395E-02
DAV:   6    -0.474273440508E+03   -0.11507E-04   -0.61033E-05  1440   0.234E-02    0.174E-02
DAV:   7    -0.474273444147E+03   -0.36386E-05   -0.89230E-06   880   0.979E-03
  29 F= -.47427344E+03 E0= -.47427344E+03  d E =-.275883E+00
       N       E                     dE             d eps       ncg     rms          rms(c)
DAV:   1    -0.474373240320E+03   -0.99800E-01   -0.80989E+01  1376   0.230E+01    0.185E+00
DAV:   2    -0.474480382122E+03   -0.10714E+00   -0.14493E+00  1632   0.308E+00    0.111E+00
DAV:   3    -0.474472444768E+03    0.79374E-02   -0.64261E-02  1640   0.760E-01    0.749E-01
DAV:   4    -0.474469697690E+03    0.27471E-02   -0.15280E-02  1560   0.382E-01    0.373E-01
DAV:   5    -0.474469700870E+03   -0.31803E-05   -0.34050E-03  1680   0.197E-01    0.104E-01
DAV:   6    -0.474469830105E+03   -0.12923E-03   -0.73755E-04  1608   0.791E-02    0.629E-02
DAV:   7    -0.474469873344E+03   -0.43239E-04   -0.71387E-05  1504   0.267E-02    0.329E-02
DAV:   8    -0.474469948222E+03   -0.74878E-04   -0.38189E-05  1368   0.190E-02    0.931E-03
DAV:   9    -0.474469984448E+03   -0.36226E-04   -0.64747E-06   920   0.991E-03    0.561E-03
DAV:  10    -0.474470032602E+03   -0.48154E-04   -0.43539E-06   952   0.758E-03    0.256E-03
DAV:  11    -0.474470079899E+03   -0.47297E-04   -0.38282E-06   984   0.563E-03    0.178E-03
DAV:  12    -0.474470114891E+03   -0.34992E-04   -0.37329E-06   992   0.411E-03    0.125E-03
DAV:  13    -0.474470130320E+03   -0.15429E-04   -0.18465E-06   968   0.242E-03    0.704E-04
DAV:  14    -0.474470137511E+03   -0.71904E-05   -0.86618E-07   920   0.151E-03
  30 F= -.47447014E+03 E0= -.47447014E+03  d E =-.196693E+00
       N       E                     dE             d eps       ncg     rms          rms(c)
DAV:   1    -0.474471928160E+03   -0.17978E-02   -0.30758E+00  1376   0.449E+00    0.347E-01
DAV:   2    -0.474475905812E+03   -0.39777E-02   -0.54157E-02  1596   0.593E-01    0.212E-01
DAV:   3    -0.474475606944E+03    0.29887E-03   -0.23820E-03  1608   0.147E-01    0.138E-01
DAV:   4    -0.474475527893E+03    0.79051E-04   -0.59837E-04  1528   0.757E-02    0.657E-02
DAV:   5    -0.474475531854E+03   -0.39608E-05   -0.12199E-04  1664   0.375E-02    0.193E-02
DAV:   6    -0.474475535490E+03   -0.36368E-05   -0.22984E-05  1000   0.147E-02
  31 F= -.47447554E+03 E0= -.47447554E+03  d E =-.202091E+00
       N       E                     dE             d eps       ncg     rms          rms(c)
DAV:   1    -0.474559936991E+03   -0.84405E-01   -0.61804E+01  1376   0.200E+01    0.148E+00
DAV:   2    -0.474637066992E+03   -0.77130E-01   -0.10444E+00  1600   0.262E+00    0.927E-01
DAV:   3    -0.474632299003E+03    0.47680E-02   -0.48517E-02  1672   0.629E-01    0.596E-01
DAV:   4    -0.474630614348E+03    0.16847E-02   -0.87694E-03  1552   0.285E-01    0.280E-01
DAV:   5    -0.474630787494E+03   -0.17315E-03   -0.21372E-03  1640   0.141E-01    0.755E-02
DAV:   6    -0.474630852579E+03   -0.65085E-04   -0.38260E-04  1568   0.572E-02    0.430E-02
DAV:   7    -0.474630884248E+03   -0.31669E-04   -0.43006E-05  1192   0.224E-02    0.209E-02
DAV:   8    -0.474630929590E+03   -0.45342E-04   -0.19737E-05   976   0.152E-02    0.767E-03
DAV:   9    -0.474630962274E+03   -0.32684E-04   -0.62246E-06   928   0.734E-03    0.461E-03
DAV:  10    -0.474631001619E+03   -0.39345E-04   -0.37705E-06   936   0.480E-03    0.186E-03
DAV:  11    -0.474631032981E+03   -0.31362E-04   -0.35573E-06   984   0.389E-03    0.177E-03
DAV:  12    -0.474631055200E+03   -0.22218E-04   -0.23033E-06   944   0.330E-03    0.752E-04
DAV:  13    -0.474631064525E+03   -0.93253E-05   -0.13017E-06   912   0.202E-03
  32 F= -.47463106E+03 E0= -.47463106E+03  d E =-.155529E+00
       N       E                     dE             d eps       ncg     rms          rms(c)
DAV:   1    -0.474633856543E+03   -0.28013E-02   -0.85957E+00  1376   0.745E+00    0.544E-01
DAV:   2    -0.474644403679E+03   -0.10547E-01   -0.14413E-01  1568   0.974E-01    0.342E-01
DAV:   3    -0.474643771930E+03    0.63175E-03   -0.67523E-03  1656   0.235E-01    0.216E-01
DAV:   4    -0.474643609310E+03    0.16262E-03   -0.12330E-03  1488   0.106E-01    0.101E-01
DAV:   5    -0.474643632311E+03   -0.23001E-04   -0.28648E-04  1672   0.519E-02    0.271E-02
DAV:   6    -0.474643640869E+03   -0.85581E-05   -0.49552E-05  1296   0.210E-02
  33 F= -.47464364E+03 E0= -.47464364E+03  d E =-.168105E+00
       N       E                     dE             d eps       ncg     rms          rms(c)
DAV:   1    -0.474740096942E+03   -0.96465E-01   -0.37741E+01  1376   0.154E+01    0.107E+00
DAV:   2    -0.474786166679E+03   -0.46070E-01   -0.60122E-01  1596   0.196E+00    0.696E-01
DAV:   3    -0.474783392171E+03    0.27745E-02   -0.24693E-02  1632   0.445E-01    0.435E-01
DAV:   4    -0.474782742969E+03    0.64920E-03   -0.56187E-03  1536   0.223E-01    0.190E-01
DAV:   5    -0.474782952655E+03   -0.20969E-03   -0.11145E-03  1664   0.106E-01    0.592E-02
DAV:   6    -0.474782992440E+03   -0.39785E-04   -0.18323E-04  1520   0.391E-02    0.332E-02
DAV:   7    -0.474783004984E+03   -0.12545E-04   -0.27981E-05  1124   0.172E-02    0.151E-02
DAV:   8    -0.474783025477E+03   -0.20492E-04   -0.12954E-05   956   0.106E-02    0.530E-03
DAV:   9    -0.474783037243E+03   -0.11766E-04   -0.26504E-06   888   0.519E-03    0.293E-03
DAV:  10    -0.474783053544E+03   -0.16301E-04   -0.20381E-06   916   0.410E-03    0.111E-03
DAV:  11    -0.474783063037E+03   -0.94936E-05   -0.10944E-06   888   0.229E-03
  34 F= -.47478306E+03 E0= -.47478306E+03  d E =-.139422E+00
       N       E                     dE             d eps       ncg     rms          rms(c)
DAV:   1    -0.474751927248E+03    0.31126E-01   -0.10598E+02  1376   0.258E+01    0.182E+00
DAV:   2    -0.474881967084E+03   -0.13004E+00   -0.16922E+00  1600   0.330E+00    0.116E+00
DAV:   3    -0.474874099604E+03    0.78675E-02   -0.69728E-02  1616   0.747E-01    0.725E-01
DAV:   4    -0.474871760800E+03    0.23388E-02   -0.15511E-02  1584   0.373E-01    0.321E-01
DAV:   5    -0.474872246995E+03   -0.48620E-03   -0.31671E-03  1632   0.178E-01    0.997E-02
DAV:   6    -0.474872363395E+03   -0.11640E-03   -0.52466E-04  1592   0.667E-02    0.553E-02
DAV:   7    -0.474872389560E+03   -0.26165E-04   -0.76910E-05  1432   0.281E-02    0.263E-02
DAV:   8    -0.474872439094E+03   -0.49534E-04   -0.34456E-05  1256   0.167E-02    0.903E-03
DAV:   9    -0.474872467652E+03   -0.28558E-04   -0.52720E-06   928   0.786E-03    0.490E-03
DAV:  10    -0.474872505072E+03   -0.37420E-04   -0.40657E-06   976   0.612E-03    0.200E-03
DAV:  11    -0.474872530608E+03   -0.25535E-04   -0.24512E-06   960   0.355E-03    0.174E-03
DAV:  12    -0.474872554930E+03   -0.24322E-04   -0.21072E-06   968   0.292E-03    0.993E-04
DAV:  13    -0.474872567921E+03   -0.12991E-04   -0.15448E-06   944   0.201E-03    0.641E-04
DAV:  14    -0.474872573541E+03   -0.56207E-05   -0.66668E-07   920   0.137E-03
  35 F= -.47487257E+03 E0= -.47487257E+03  d E =-.228933E+00
       N       E                     dE             d eps       ncg     rms          rms(c)
DAV:   1    -0.474957229422E+03   -0.84662E-01   -0.52474E+01  1376   0.180E+01    0.122E+00
DAV:   2    -0.475021891062E+03   -0.64662E-01   -0.83088E-01  1580   0.230E+00    0.808E-01
DAV:   3    -0.475017337926E+03    0.45531E-02   -0.34080E-02  1648   0.518E-01    0.494E-01
DAV:   4    -0.475016062588E+03    0.12753E-02   -0.81928E-03  1592   0.297E-01    0.192E-01
DAV:   5    -0.475016348684E+03   -0.28610E-03   -0.20317E-03  1640   0.140E-01    0.776E-02
DAV:   6    -0.475016380181E+03   -0.31496E-04   -0.28631E-04  1584   0.498E-02    0.485E-02
DAV:   7    -0.475016383370E+03   -0.31894E-05   -0.51002E-05  1280   0.239E-02
  36 F= -.47501638E+03 E0= -.47501638E+03  d E =-.143810E+00
       N       E                     dE             d eps       ncg     rms          rms(c)
DAV:   1    -0.474949933714E+03    0.66446E-01   -0.12965E+02  1376   0.283E+01    0.198E+00
DAV:   2    -0.475112765546E+03   -0.16283E+00   -0.20798E+00  1584   0.365E+00    0.128E+00
DAV:   3    -0.475101288741E+03    0.11477E-01   -0.85458E-02  1664   0.819E-01    0.800E-01
DAV:   4    -0.475097226852E+03    0.40619E-02   -0.19791E-02  1600   0.463E-01    0.327E-01
DAV:   5    -0.475097844573E+03   -0.61772E-03   -0.52941E-03  1680   0.227E-01    0.124E-01
DAV:   6    -0.475097941817E+03   -0.97244E-04   -0.75081E-04  1576   0.802E-02    0.768E-02
DAV:   7    -0.475097967695E+03   -0.25878E-04   -0.12471E-04  1544   0.370E-02    0.330E-02
DAV:   8    -0.475098017850E+03   -0.50155E-04   -0.38202E-05  1296   0.205E-02    0.107E-02
DAV:   9    -0.475098057184E+03   -0.39334E-04   -0.94609E-06  1064   0.125E-02    0.653E-03
DAV:  10    -0.475098116793E+03   -0.59609E-04   -0.70562E-06  1008   0.120E-02    0.257E-03
DAV:  11    -0.475098159891E+03   -0.43098E-04   -0.74858E-06  1048   0.813E-03    0.262E-03
DAV:  12    -0.475098189397E+03   -0.29505E-04   -0.29704E-06  1024   0.446E-03    0.171E-03
DAV:  13    -0.475098208148E+03   -0.18752E-04   -0.23268E-06   992   0.249E-03    0.843E-04
DAV:  14    -0.475098216760E+03   -0.86115E-05   -0.87240E-07   944   0.165E-03
  37 F= -.47509822E+03 E0= -.47509822E+03  d E =-.225643E+00
       N       E                     dE             d eps       ncg     rms          rms(c)
DAV:   1    -0.475142955217E+03   -0.44747E-01   -0.85605E+01  1400   0.227E+01    0.158E+00
DAV:   2    -0.475246003097E+03   -0.10305E+00   -0.13320E+00  1552   0.293E+00    0.103E+00
DAV:   3    -0.475238726754E+03    0.72763E-02   -0.50764E-02  1664   0.615E-01    0.669E-01
DAV:   4    -0.475236378337E+03    0.23484E-02   -0.12197E-02  1568   0.337E-01    0.278E-01
DAV:   5    -0.475236844870E+03   -0.46653E-03   -0.29013E-03  1656   0.157E-01    0.944E-02
DAV:   6    -0.475236966031E+03   -0.12116E-03   -0.40808E-04  1512   0.586E-02    0.500E-02
DAV:   7    -0.475237017990E+03   -0.51959E-04   -0.64274E-05  1352   0.280E-02    0.201E-02
DAV:   8    -0.475237067034E+03   -0.49044E-04   -0.21276E-05  1048   0.156E-02    0.752E-03
DAV:   9    -0.475237096747E+03   -0.29712E-04   -0.48602E-06   944   0.654E-03    0.512E-03
DAV:  10    -0.475237139316E+03   -0.42569E-04   -0.44501E-06   984   0.500E-03    0.195E-03
DAV:  11    -0.475237169643E+03   -0.30327E-04   -0.35774E-06  1008   0.378E-03    0.169E-03
DAV:  12    -0.475237191649E+03   -0.22005E-04   -0.25397E-06   984   0.370E-03    0.861E-04
DAV:  13    -0.475237202082E+03   -0.10433E-04   -0.15062E-06   944   0.216E-03    0.707E-04
DAV:  14    -0.475237207122E+03   -0.50398E-05   -0.68114E-07   896   0.146E-03
  38 F= -.47523721E+03 E0= -.47523721E+03  d E =-.138990E+00
       N       E                     dE             d eps       ncg     rms          rms(c)
DAV:   1    -0.475225571947E+03    0.11630E-01   -0.31172E+01  1392   0.137E+01    0.931E-01
DAV:   2    -0.475262765118E+03   -0.37193E-01   -0.48300E-01  1572   0.176E+00    0.615E-01
DAV:   3    -0.475260072387E+03    0.26927E-02   -0.18149E-02  1656   0.369E-01    0.390E-01
DAV:   4    -0.475259429356E+03    0.64303E-03   -0.45214E-03  1552   0.204E-01    0.156E-01
DAV:   5    -0.475259624763E+03   -0.19541E-03   -0.10023E-03  1656   0.939E-02    0.552E-02
DAV:   6    -0.475259667525E+03   -0.42762E-04   -0.13899E-04  1512   0.346E-02    0.300E-02
DAV:   7    -0.475259685962E+03   -0.18437E-04   -0.22621E-05  1096   0.170E-02    0.122E-02
DAV:   8    -0.475259705227E+03   -0.19265E-04   -0.87976E-06   968   0.989E-03    0.447E-03
DAV:   9    -0.475259717734E+03   -0.12507E-04   -0.22374E-06   872   0.428E-03    0.296E-03
DAV:  10    -0.475259736138E+03   -0.18405E-04   -0.20298E-06   912   0.329E-03    0.116E-03
DAV:  11    -0.475259747801E+03   -0.11663E-04   -0.13438E-06   960   0.230E-03    0.101E-03
DAV:  12    -0.475259757585E+03   -0.97841E-05   -0.10405E-06   904   0.228E-03
  39 F= -.47525976E+03 E0= -.47525976E+03  d E =-.161541E+00
       N       E                     dE             d eps       ncg     rms          rms(c)
DAV:   1    -0.475318045286E+03   -0.58297E-01   -0.74761E+01  1392   0.209E+01    0.155E+00
DAV:   2    -0.475405005041E+03   -0.86960E-01   -0.11636E+00  1536   0.273E+00    0.944E-01
DAV:   3    -0.475398622284E+03    0.63828E-02   -0.44498E-02  1720   0.578E-01    0.583E-01
DAV:   4    -0.475396747672E+03    0.18746E-02   -0.11466E-02  1560   0.321E-01    0.244E-01
DAV:   5    -0.475397123448E+03   -0.37578E-03   -0.21446E-03  1592   0.148E-01    0.915E-02
DAV:   6    -0.475397233696E+03   -0.11025E-03   -0.36129E-04  1544   0.561E-02    0.484E-02
DAV:   7    -0.475397271216E+03   -0.37519E-04   -0.58405E-05  1328   0.251E-02    0.187E-02
DAV:   8    -0.475397310580E+03   -0.39364E-04   -0.15968E-05  1032   0.136E-02    0.638E-03
DAV:   9    -0.475397339884E+03   -0.29304E-04   -0.56966E-06   984   0.722E-03    0.394E-03
DAV:  10    -0.475397369925E+03   -0.30042E-04   -0.36680E-06   992   0.523E-03    0.170E-03
DAV:  11    -0.475397389882E+03   -0.19957E-04   -0.25939E-06   968   0.366E-03    0.140E-03
DAV:  12    -0.475397405434E+03   -0.15552E-04   -0.18369E-06   992   0.279E-03    0.707E-04
DAV:  13    -0.475397413352E+03   -0.79180E-05   -0.11461E-06   952   0.180E-03
  40 F= -.47539741E+03 E0= -.47539741E+03  d E =-.137656E+00
       N       E                     dE             d eps       ncg     rms          rms(c)
DAV:   1    -0.475385740822E+03    0.11665E-01   -0.37774E+01  1384   0.149E+01    0.107E+00
DAV:   2    -0.475429398193E+03   -0.43657E-01   -0.58392E-01  1536   0.193E+00    0.674E-01
DAV:   3    -0.475426171236E+03    0.32270E-02   -0.22445E-02  1672   0.412E-01    0.410E-01
DAV:   4    -0.475425365696E+03    0.80554E-03   -0.61371E-03  1560   0.235E-01    0.170E-01
DAV:   5    -0.475425570590E+03   -0.20489E-03   -0.11377E-03  1584   0.107E-01    0.655E-02
DAV:   6    -0.475425626986E+03   -0.56396E-04   -0.18498E-04  1528   0.400E-02    0.353E-02
DAV:   7    -0.475425648024E+03   -0.21038E-04   -0.31666E-05  1104   0.183E-02    0.135E-02
DAV:   8    -0.475425675993E+03   -0.27968E-04   -0.96182E-06   984   0.104E-02    0.472E-03
DAV:   9    -0.475425691945E+03   -0.15952E-04   -0.33704E-06   948   0.543E-03    0.290E-03
DAV:  10    -0.475425709068E+03   -0.17123E-04   -0.22138E-06   968   0.398E-03    0.124E-03
DAV:  11    -0.475425719911E+03   -0.10843E-04   -0.14827E-06   960   0.265E-03    0.103E-03
DAV:  12    -0.475425728473E+03   -0.85622E-05   -0.10110E-06   960   0.199E-03
  41 F= -.47542573E+03 E0= -.47542573E+03  d E =-.165971E+00
       N       E                     dE             d eps       ncg     rms          rms(c)
DAV:   1    -0.475463667968E+03   -0.37948E-01   -0.96240E+01  1376   0.235E+01    0.189E+00
DAV:   2    -0.475572570716E+03   -0.10890E+00   -0.15315E+00  1496   0.313E+00    0.109E+00
DAV:   3    -0.475564676601E+03    0.78941E-02   -0.60551E-02  1672   0.677E-01    0.676E-01
DAV:   4    -0.475562101175E+03    0.25754E-02   -0.15157E-02  1560   0.365E-01    0.312E-01
DAV:   5    -0.475562545358E+03   -0.44418E-03   -0.29098E-03  1560   0.171E-01    0.106E-01
DAV:   6    -0.475562714527E+03   -0.16917E-03   -0.47748E-04  1516   0.610E-02    0.583E-02
DAV:   7    -0.475562749505E+03   -0.34977E-04   -0.82285E-05  1448   0.274E-02    0.212E-02
DAV:   8    -0.475562789865E+03   -0.40360E-04   -0.20553E-05  1068   0.131E-02    0.700E-03
DAV:   9    -0.475562812745E+03   -0.22880E-04   -0.52713E-06   936   0.670E-03    0.422E-03
DAV:  10    -0.475562835757E+03   -0.23012E-04   -0.28864E-06   952   0.439E-03    0.191E-03
DAV:  11    -0.475562854538E+03   -0.18781E-04   -0.20299E-06   928   0.314E-03    0.126E-03
DAV:  12    -0.475562871038E+03   -0.16500E-04   -0.18005E-06   968   0.249E-03    0.746E-04
DAV:  13    -0.475562881968E+03   -0.10930E-04   -0.13315E-06   908   0.177E-03    0.520E-04
DAV:  14    -0.475562886425E+03   -0.44568E-05   -0.61826E-07   912   0.119E-03
  42 F= -.47556289E+03 E0= -.47556289E+03  d E =-.137158E+00
       N       E                     dE             d eps       ncg     rms          rms(c)
DAV:   1    -0.475555672388E+03    0.72096E-02   -0.24857E+01  1376   0.119E+01    0.911E-01
DAV:   2    -0.475582985728E+03   -0.27313E-01   -0.38605E-01  1492   0.157E+00    0.563E-01
DAV:   3    -0.475580947524E+03    0.20382E-02   -0.15390E-02  1632   0.343E-01    0.338E-01
DAV:   4    -0.475580435823E+03    0.51170E-03   -0.43122E-03  1552   0.194E-01    0.151E-01
DAV:   5    -0.475580576995E+03   -0.14117E-03   -0.79658E-04  1584   0.887E-02    0.548E-02
DAV:   6    -0.475580620782E+03   -0.43787E-04   -0.12573E-04  1512   0.307E-02    0.305E-02
DAV:   7    -0.475580636193E+03   -0.15412E-04   -0.23704E-05  1092   0.145E-02    0.110E-02
DAV:   8    -0.475580646997E+03   -0.10804E-04   -0.66730E-06   904   0.770E-03    0.383E-03
DAV:   9    -0.475580653668E+03   -0.66711E-05   -0.17803E-06   904   0.382E-03
  43 F= -.47558065E+03 E0= -.47558065E+03  d E =-.154925E+00
       N       E                     dE             d eps       ncg     rms          rms(c)
DAV:   1    -0.475607781472E+03   -0.27134E-01   -0.96276E+01  1416   0.234E+01    0.178E+00
DAV:   2    -0.475723054117E+03   -0.11527E+00   -0.14972E+00  1512   0.311E+00    0.105E+00
DAV:   3    -0.475714783330E+03    0.82708E-02   -0.59093E-02  1640   0.666E-01    0.695E-01
DAV:   4    -0.475712314815E+03    0.24685E-02   -0.12471E-02  1600   0.333E-01    0.332E-01
DAV:   5    -0.475712803811E+03   -0.48900E-03   -0.29845E-03  1584   0.173E-01    0.959E-02
DAV:   6    -0.475712985058E+03   -0.18125E-03   -0.60164E-04  1488   0.721E-02    0.553E-02
DAV:   7    -0.475713039820E+03   -0.54762E-04   -0.62072E-05  1328   0.254E-02    0.260E-02
DAV:   8    -0.475713109715E+03   -0.69895E-04   -0.26402E-05  1100   0.154E-02    0.749E-03
DAV:   9    -0.475713146320E+03   -0.36605E-04   -0.63253E-06   944   0.769E-03    0.455E-03
DAV:  10    -0.475713182776E+03   -0.36456E-04   -0.38242E-06   956   0.509E-03    0.192E-03
DAV:  11    -0.475713215104E+03   -0.32328E-04   -0.34954E-06   944   0.409E-03    0.153E-03
DAV:  12    -0.475713232286E+03   -0.17182E-04   -0.23410E-06   992   0.274E-03    0.837E-04
DAV:  13    -0.475713243610E+03   -0.11324E-04   -0.16905E-06   952   0.205E-03    0.453E-04
DAV:  14    -0.475713247949E+03   -0.43387E-05   -0.73945E-07   936   0.136E-03
  44 F= -.47571325E+03 E0= -.47571325E+03  d E =-.132594E+00
       N       E                     dE             d eps       ncg     rms          rms(c)
DAV:   1    -0.475700937607E+03    0.12306E-01   -0.31525E+01  1408   0.134E+01    0.962E-01
DAV:   2    -0.475737507872E+03   -0.36570E-01   -0.47773E-01  1492   0.176E+00    0.602E-01
DAV:   3    -0.475734901051E+03    0.26068E-02   -0.19390E-02  1632   0.382E-01    0.379E-01
DAV:   4    -0.475734281541E+03    0.61951E-03   -0.42809E-03  1592   0.196E-01    0.176E-01
DAV:   5    -0.475734481796E+03   -0.20025E-03   -0.96924E-04  1520   0.980E-02    0.540E-02
DAV:   6    -0.475734540982E+03   -0.59186E-04   -0.18171E-04  1520   0.398E-02    0.316E-02
DAV:   7    -0.475734560610E+03   -0.19628E-04   -0.20025E-05  1076   0.144E-02    0.146E-02
DAV:   8    -0.475734584784E+03   -0.24174E-04   -0.97499E-06   928   0.939E-03    0.435E-03
DAV:   9    -0.475734598636E+03   -0.13852E-04   -0.28211E-06   928   0.479E-03    0.270E-03
DAV:  10    -0.475734614065E+03   -0.15429E-04   -0.17153E-06   928   0.334E-03    0.101E-03
DAV:  11    -0.475734625643E+03   -0.11578E-04   -0.15582E-06   976   0.244E-03    0.958E-04
DAV:  12    -0.475734633923E+03   -0.82806E-05   -0.86710E-07   944   0.175E-03
  45 F= -.47573463E+03 E0= -.47573463E+03  d E =-.153980E+00
       N       E                     dE             d eps       ncg     rms          rms(c)
DAV:   1    -0.475746654950E+03   -0.12029E-01   -0.10445E+02  1408   0.246E+01    0.185E+00
DAV:   2    -0.475876742614E+03   -0.13009E+00   -0.16337E+00  1512   0.323E+00    0.110E+00
DAV:   3    -0.475868027991E+03    0.87146E-02   -0.62916E-02  1656   0.675E-01    0.734E-01
DAV:   4    -0.475865348376E+03    0.26796E-02   -0.12397E-02  1584   0.337E-01    0.334E-01
DAV:   5    -0.475865937249E+03   -0.58887E-03   -0.34883E-03  1560   0.176E-01    0.950E-02
DAV:   6    -0.475866093246E+03   -0.15600E-03   -0.57485E-04  1512   0.713E-02    0.521E-02
DAV:   7    -0.475866147329E+03   -0.54083E-04   -0.65180E-05  1360   0.265E-02    0.236E-02
DAV:   8    -0.475866195701E+03   -0.48372E-04   -0.20860E-05  1016   0.149E-02    0.900E-03
DAV:   9    -0.475866231541E+03   -0.35841E-04   -0.60025E-06   928   0.758E-03    0.464E-03
DAV:  10    -0.475866273022E+03   -0.41481E-04   -0.39528E-06   956   0.485E-03    0.199E-03
DAV:  11    -0.475866304106E+03   -0.31084E-04   -0.35129E-06   896   0.384E-03    0.162E-03
DAV:  12    -0.475866321236E+03   -0.17130E-04   -0.23899E-06   968   0.269E-03    0.900E-04
DAV:  13    -0.475866331611E+03   -0.10375E-04   -0.15692E-06   924   0.201E-03    0.525E-04
DAV:  14    -0.475866335667E+03   -0.40555E-05   -0.72328E-07   904   0.128E-03
  46 F= -.47586634E+03 E0= -.47586634E+03  d E =-.131702E+00
       N       E                     dE             d eps       ncg     rms          rms(c)
DAV:   1    -0.475852736694E+03    0.13595E-01   -0.28752E+01  1416   0.129E+01    0.898E-01
DAV:   2    -0.475886856721E+03   -0.34120E-01   -0.43276E-01  1532   0.167E+00    0.568E-01
DAV:   3    -0.475884487484E+03    0.23692E-02   -0.16633E-02  1656   0.348E-01    0.357E-01
DAV:   4    -0.475883985893E+03    0.50159E-03   -0.36319E-03  1532   0.183E-01    0.153E-01
DAV:   5    -0.475884199107E+03   -0.21321E-03   -0.89725E-04  1520   0.893E-02    0.480E-02
DAV:   6    -0.475884235463E+03   -0.36356E-04   -0.13875E-04  1532   0.358E-02    0.275E-02
DAV:   7    -0.475884251314E+03   -0.15851E-04   -0.17309E-05  1040   0.140E-02    0.125E-02
DAV:   8    -0.475884268065E+03   -0.16750E-04   -0.76852E-06   920   0.865E-03    0.464E-03
DAV:   9    -0.475884279820E+03   -0.11756E-04   -0.23471E-06   920   0.448E-03    0.245E-03
DAV:  10    -0.475884299297E+03   -0.19477E-04   -0.15356E-06   920   0.305E-03    0.978E-04
DAV:  11    -0.475884308339E+03   -0.90417E-05   -0.11616E-06   892   0.208E-03
  47 F= -.47588431E+03 E0= -.47588431E+03  d E =-.149674E+00
       N       E                     dE             d eps       ncg     rms          rms(c)
DAV:   1    -0.475899463705E+03   -0.15164E-01   -0.10525E+02  1408   0.252E+01    0.188E+00
DAV:   2    -0.476029858132E+03   -0.13039E+00   -0.16817E+00  1528   0.330E+00    0.112E+00
DAV:   3    -0.476021766377E+03    0.80918E-02   -0.68105E-02  1668   0.706E-01    0.724E-01
DAV:   4    -0.476019066662E+03    0.26997E-02   -0.13548E-02  1544   0.358E-01    0.349E-01
DAV:   5    -0.476019684838E+03   -0.61818E-03   -0.36897E-03  1560   0.183E-01    0.101E-01
DAV:   6    -0.476019886537E+03   -0.20170E-03   -0.55094E-04  1584   0.689E-02    0.561E-02
DAV:   7    -0.476019942088E+03   -0.55552E-04   -0.87617E-05  1456   0.298E-02    0.234E-02
DAV:   8    -0.476019990382E+03   -0.48294E-04   -0.23091E-05  1012   0.144E-02    0.817E-03
DAV:   9    -0.476020020908E+03   -0.30526E-04   -0.48850E-06   952   0.718E-03    0.452E-03
DAV:  10    -0.476020054146E+03   -0.33238E-04   -0.37655E-06   936   0.511E-03    0.177E-03
DAV:  11    -0.476020075778E+03   -0.21632E-04   -0.20569E-06   940   0.324E-03    0.136E-03
DAV:  12    -0.476020094802E+03   -0.19024E-04   -0.21247E-06   908   0.267E-03    0.713E-04
DAV:  13    -0.476020105839E+03   -0.11036E-04   -0.15203E-06   940   0.205E-03    0.503E-04
DAV:  14    -0.476020117611E+03   -0.11773E-04   -0.72382E-07   932   0.143E-03    0.333E-04
DAV:  15    -0.476020120456E+03   -0.28450E-05   -0.39114E-07   904   0.875E-04
  48 F= -.47602012E+03 E0= -.47602012E+03  d E =-.135812E+00
       N       E                     dE             d eps       ncg     rms          rms(c)
DAV:   1    -0.475992954883E+03    0.27163E-01   -0.47180E+01  1408   0.169E+01    0.119E+00
DAV:   2    -0.476049775976E+03   -0.56821E-01   -0.73795E-01  1496   0.219E+00    0.751E-01
DAV:   3    -0.476046262525E+03    0.35135E-02   -0.30009E-02  1652   0.469E-01    0.470E-01
DAV:   4    -0.476045256302E+03    0.10062E-02   -0.63822E-03  1568   0.247E-01    0.216E-01
DAV:   5    -0.476045610426E+03   -0.35412E-03   -0.16299E-03  1560   0.121E-01    0.667E-02
DAV:   6    -0.476045704669E+03   -0.94244E-04   -0.22078E-04  1532   0.438E-02    0.368E-02
DAV:   7    -0.476045728180E+03   -0.23510E-04   -0.39683E-05  1148   0.202E-02    0.149E-02
DAV:   8    -0.476045753247E+03   -0.25067E-04   -0.11840E-05   912   0.104E-02    0.569E-03
DAV:   9    -0.476045768515E+03   -0.15268E-04   -0.28852E-06   960   0.518E-03    0.318E-03
DAV:  10    -0.476045786883E+03   -0.18369E-04   -0.21866E-06   892   0.395E-03    0.111E-03
DAV:  11    -0.476045796575E+03   -0.96916E-05   -0.12251E-06   956   0.230E-03
  49 F= -.47604580E+03 E0= -.47604580E+03  d E =-.161488E+00
       N       E                     dE             d eps       ncg     rms          rms(c)
DAV:   1    -0.476024228031E+03    0.21559E-01   -0.12995E+02  1392   0.285E+01    0.213E+00
DAV:   2    -0.476193374830E+03   -0.16915E+00   -0.21491E+00  1476   0.371E+00    0.124E+00
DAV:   3    -0.476183483325E+03    0.98915E-02   -0.84526E-02  1724   0.780E-01    0.824E-01
DAV:   4    -0.476180300051E+03    0.31833E-02   -0.14797E-02  1568   0.373E-01    0.352E-01
DAV:   5    -0.476181115348E+03   -0.81530E-03   -0.39197E-03  1624   0.191E-01    0.106E-01
DAV:   6    -0.476181306547E+03   -0.19120E-03   -0.57778E-04  1552   0.717E-02    0.534E-02
DAV:   7    -0.476181378028E+03   -0.71480E-04   -0.66720E-05  1320   0.298E-02    0.225E-02
DAV:   8    -0.476181431259E+03   -0.53231E-04   -0.22257E-05  1064   0.153E-02    0.691E-03
DAV:   9    -0.476181465391E+03   -0.34132E-04   -0.50712E-06   936   0.686E-03    0.431E-03
DAV:  10    -0.476181512231E+03   -0.46840E-04   -0.45164E-06   952   0.508E-03    0.183E-03
DAV:  11    -0.476181535806E+03   -0.23575E-04   -0.26526E-06   948   0.377E-03    0.140E-03
DAV:  12    -0.476181555842E+03   -0.20036E-04   -0.26506E-06   960   0.351E-03    0.832E-04
DAV:  13    -0.476181565520E+03   -0.96774E-05   -0.15022E-06   948   0.229E-03
  50 F= -.47618157E+03 E0= -.47618157E+03  d E =-.135769E+00
       N       E                     dE             d eps       ncg     rms          rms(c)
DAV:   1    -0.476173134837E+03    0.84210E-02   -0.15722E+01  1392   0.992E+00    0.666E-01
DAV:   2    -0.476192357775E+03   -0.19223E-01   -0.24815E-01  1476   0.126E+00    0.424E-01
DAV:   3    -0.476191218507E+03    0.11393E-02   -0.98449E-03  1688   0.270E-01    0.261E-01
DAV:   4    -0.476191062487E+03    0.15602E-03   -0.21075E-03  1544   0.141E-01    0.101E-01
DAV:   5    -0.476191203303E+03   -0.14082E-03   -0.46504E-04  1544   0.659E-02    0.368E-02
DAV:   6    -0.476191227145E+03   -0.23843E-04   -0.59206E-05  1384   0.232E-02    0.191E-02
DAV:   7    -0.476191234983E+03   -0.78374E-05   -0.98415E-06   912   0.114E-02
  51 F= -.47619123E+03 E0= -.47619123E+03  d E =-.145438E+00
       N       E                     dE             d eps       ncg     rms          rms(c)
DAV:   1    -0.476179944027E+03    0.11283E-01   -0.11567E+02  1408   0.272E+01    0.205E+00
DAV:   2    -0.476334128986E+03   -0.15418E+00   -0.19326E+00  1500   0.351E+00    0.119E+00
DAV:   3    -0.476325954266E+03    0.81747E-02   -0.71922E-02  1744   0.728E-01    0.814E-01
DAV:   4    -0.476323618448E+03    0.23358E-02   -0.12809E-02  1592   0.350E-01    0.352E-01
DAV:   5    -0.476324538996E+03   -0.92055E-03   -0.34847E-03  1640   0.179E-01    0.101E-01
DAV:   6    -0.476324715695E+03   -0.17670E-03   -0.57653E-04  1536   0.668E-02    0.512E-02
DAV:   7    -0.476324789178E+03   -0.73483E-04   -0.48884E-05  1272   0.233E-02    0.212E-02
DAV:   8    -0.476324843145E+03   -0.53967E-04   -0.17582E-05   972   0.132E-02    0.665E-03
DAV:   9    -0.476324870749E+03   -0.27605E-04   -0.44281E-06   960   0.618E-03    0.393E-03
DAV:  10    -0.476324903088E+03   -0.32338E-04   -0.32477E-06   912   0.437E-03    0.170E-03
DAV:  11    -0.476324927975E+03   -0.24888E-04   -0.27330E-06   956   0.293E-03    0.125E-03
DAV:  12    -0.476324946200E+03   -0.18225E-04   -0.20397E-06   936   0.240E-03    0.855E-04
DAV:  13    -0.476324959606E+03   -0.13406E-04   -0.22337E-06   956   0.214E-03    0.589E-04
DAV:  14    -0.476324963203E+03   -0.35976E-05   -0.77098E-07   928   0.141E-03
  52 F= -.47632496E+03 E0= -.47632496E+03  d E =-.133728E+00
       N       E                     dE             d eps       ncg     rms          rms(c)
DAV:   1    -0.476302197217E+03    0.22762E-01   -0.34701E+01  1392   0.149E+01    0.104E+00
DAV:   2    -0.476347323588E+03   -0.45126E-01   -0.56984E-01  1504   0.190E+00    0.642E-01
DAV:   3    -0.476344862393E+03    0.24612E-02   -0.20720E-02  1724   0.394E-01    0.417E-01
DAV:   4    -0.476344492679E+03    0.36971E-03   -0.40591E-03  1584   0.196E-01    0.169E-01
DAV:   5    -0.476344842858E+03   -0.35018E-03   -0.96550E-04  1600   0.948E-02    0.523E-02
DAV:   6    -0.476344887116E+03   -0.44258E-04   -0.14401E-04  1544   0.344E-02    0.275E-02
DAV:   7    -0.476344906455E+03   -0.19338E-04   -0.13848E-05   912   0.133E-02    0.114E-02
DAV:   8    -0.476344923056E+03   -0.16602E-04   -0.77728E-06   952   0.811E-03    0.356E-03
DAV:   9    -0.476344931706E+03   -0.86500E-05   -0.16859E-06   896   0.377E-03
  53 F= -.47634493E+03 E0= -.47634493E+03  d E =-.153697E+00
       N       E                     dE             d eps       ncg     rms          rms(c)
DAV:   1    -0.476353778847E+03   -0.88558E-02   -0.99520E+01  1408   0.254E+01    0.190E+00
DAV:   2    -0.476483955528E+03   -0.13018E+00   -0.16573E+00  1496   0.325E+00    0.109E+00
DAV:   3    -0.476476347917E+03    0.76076E-02   -0.57749E-02  1696   0.680E-01    0.707E-01
DAV:   4    -0.476474858533E+03    0.14894E-02   -0.12941E-02  1604   0.347E-01    0.285E-01
DAV:   5    -0.476475660070E+03   -0.80154E-03   -0.26841E-03  1704   0.160E-01    0.929E-02
DAV:   6    -0.476475820229E+03   -0.16016E-03   -0.35565E-04  1552   0.572E-02    0.453E-02
DAV:   7    -0.476475886424E+03   -0.66195E-04   -0.53995E-05  1304   0.242E-02    0.190E-02
DAV:   8    -0.476475936544E+03   -0.50121E-04   -0.15724E-05  1008   0.121E-02    0.592E-03
DAV:   9    -0.476475967479E+03   -0.30935E-04   -0.43169E-06   960   0.584E-03    0.350E-03
DAV:  10    -0.476476010204E+03   -0.42725E-04   -0.42518E-06   972   0.507E-03    0.151E-03
DAV:  11    -0.476476035701E+03   -0.25497E-04   -0.31482E-06   964   0.328E-03    0.136E-03
DAV:  12    -0.476476055400E+03   -0.19699E-04   -0.22643E-06   980   0.278E-03    0.648E-04
DAV:  13    -0.476476065357E+03   -0.99570E-05   -0.16306E-06   948   0.194E-03
  54 F= -.47647607E+03 E0= -.47647607E+03  d E =-.131134E+00
[...]
       N       E                     dE             d eps       ncg     rms          rms(c)
DAV:   1    -0.480826296129E+03    0.71581E-02   -0.11752E+01  1440   0.806E+00    0.503E-01
DAV:   2    -0.480839457533E+03   -0.13161E-01   -0.16397E-01  1464   0.100E+00    0.342E-01
DAV:   3    -0.480838535035E+03    0.92250E-03   -0.56474E-03  1688   0.202E-01    0.200E-01
DAV:   4    -0.480838461254E+03    0.73782E-04   -0.14925E-03  1496   0.118E-01    0.622E-02
DAV:   5    -0.480838534658E+03   -0.73405E-04   -0.28804E-04  1584   0.504E-02    0.256E-02
DAV:   6    -0.480838546804E+03   -0.12145E-04   -0.32000E-05  1200   0.158E-02    0.139E-02
DAV:   7    -0.480838551967E+03   -0.51632E-05   -0.72501E-06   940   0.793E-03
 357 F= -.48083855E+03 E0= -.48083855E+03  d E =-.509655E-02
       N       E                     dE             d eps       ncg     rms          rms(c)
DAV:   1    -0.480837716169E+03    0.83064E-03   -0.13214E+00  1440   0.270E+00    0.166E-01
DAV:   2    -0.480839191425E+03   -0.14753E-02   -0.18481E-02  1480   0.337E-01    0.114E-01
DAV:   3    -0.480839087474E+03    0.10395E-03   -0.63533E-04  1696   0.676E-02    0.667E-02
DAV:   4    -0.480839084883E+03    0.25912E-05   -0.17357E-04  1512   0.402E-02    0.202E-02
DAV:   5    -0.480839094277E+03   -0.93943E-05   -0.31533E-05  1088   0.172E-02
 358 F= -.48083909E+03 E0= -.48083909E+03  d E =-.563886E-02
       N       E                     dE             d eps       ncg     rms          rms(c)
DAV:   1    -0.480834244984E+03    0.48399E-02   -0.82814E+00  1440   0.676E+00    0.426E-01
DAV:   2    -0.480843582516E+03   -0.93375E-02   -0.11688E-01  1452   0.853E-01    0.288E-01
DAV:   3    -0.480842899792E+03    0.68272E-03   -0.42009E-03  1704   0.179E-01    0.169E-01
DAV:   4    -0.480842822203E+03    0.77589E-04   -0.10722E-03  1528   0.997E-02    0.534E-02
DAV:   5    -0.480842871905E+03   -0.49702E-04   -0.20410E-04  1616   0.419E-02    0.234E-02
DAV:   6    -0.480842880012E+03   -0.81072E-05   -0.20418E-05  1024   0.134E-02
 359 F= -.48084288E+03 E0= -.48084288E+03  d E =-.378573E-02
       N       E                     dE             d eps       ncg     rms          rms(c)
DAV:   1    -0.480842879380E+03   -0.74756E-05   -0.18567E-02  1456   0.321E-01    0.213E-02
DAV:   2    -0.480842903915E+03   -0.24535E-04   -0.27602E-04  1520   0.415E-02    0.140E-02
DAV:   3    -0.480842904061E+03   -0.14525E-06   -0.79641E-06   952   0.866E-03
 360 F= -.48084290E+03 E0= -.48084290E+03  d E =-.380978E-02
       N       E                     dE             d eps       ncg     rms          rms(c)
DAV:   1    -0.480840047996E+03    0.28559E-02   -0.64121E+00  1440   0.590E+00    0.366E-01
DAV:   2    -0.480847132524E+03   -0.70845E-02   -0.88561E-02  1464   0.740E-01    0.250E-01
DAV:   3    -0.480846649387E+03    0.48314E-03   -0.31875E-03  1624   0.153E-01    0.147E-01
DAV:   4    -0.480846593977E+03    0.55411E-04   -0.78674E-04  1528   0.870E-02    0.497E-02
DAV:   5    -0.480846631741E+03   -0.37764E-04   -0.15829E-04  1640   0.378E-02    0.198E-02
DAV:   6    -0.480846638372E+03   -0.66314E-05   -0.16391E-05   920   0.121E-02
 361 F= -.48084664E+03 E0= -.48084664E+03  d E =-.373431E-02
       N       E                     dE             d eps       ncg     rms          rms(c)
DAV:   1    -0.480845541992E+03    0.10897E-02   -0.18380E+00  1440   0.316E+00    0.196E-01
DAV:   2    -0.480847586087E+03   -0.20441E-02   -0.25560E-02  1480   0.397E-01    0.134E-01
DAV:   3    -0.480847449364E+03    0.13672E-03   -0.91218E-04  1664   0.821E-02    0.790E-02
DAV:   4    -0.480847437933E+03    0.11431E-04   -0.23070E-04  1496   0.470E-02    0.265E-02
DAV:   5    -0.480847450183E+03   -0.12250E-04   -0.44575E-05  1296   0.205E-02    0.106E-02
DAV:   6    -0.480847453599E+03   -0.34167E-05   -0.57818E-06   880   0.702E-03
 362 F= -.48084745E+03 E0= -.48084745E+03  d E =-.454954E-02
       N       E                     dE             d eps       ncg     rms          rms(c)
DAV:   1    -0.480846201848E+03    0.12483E-02   -0.40765E+00  1440   0.476E+00    0.299E-01
DAV:   2    -0.480850799884E+03   -0.45980E-02   -0.57826E-02  1492   0.604E-01    0.202E-01
DAV:   3    -0.480850475763E+03    0.32412E-03   -0.22236E-03  1688   0.132E-01    0.118E-01
DAV:   4    -0.480850423631E+03    0.52133E-04   -0.51260E-04  1520   0.723E-02    0.405E-02
DAV:   5    -0.480850445474E+03   -0.21843E-04   -0.11500E-04  1568   0.321E-02    0.171E-02
DAV:   6    -0.480850448899E+03   -0.34254E-05   -0.11697E-05   896   0.104E-02
 363 F= -.48085045E+03 E0= -.48085045E+03  d E =-.299530E-02
       N       E                     dE             d eps       ncg     rms          rms(c)
DAV:   1    -0.480850437853E+03    0.76205E-05   -0.50916E-02  1456   0.532E-01    0.340E-02
DAV:   2    -0.480850497956E+03   -0.60103E-04   -0.73718E-04  1528   0.682E-02    0.227E-02
DAV:   3    -0.480850494900E+03    0.30557E-05   -0.25545E-05  1176   0.150E-02
 364 F= -.48085049E+03 E0= -.48085049E+03  d E =-.304130E-02
       N       E                     dE             d eps       ncg     rms          rms(c)
DAV:   1    -0.480848839050E+03    0.16589E-02   -0.37327E+00  1440   0.453E+00    0.283E-01
DAV:   2    -0.480853081995E+03   -0.42429E-02   -0.52414E-02  1480   0.569E-01    0.192E-01
DAV:   3    -0.480852842778E+03    0.23922E-03   -0.19119E-03  1656   0.118E-01    0.117E-01
DAV:   4    -0.480852814520E+03    0.28258E-04   -0.45486E-04  1500   0.640E-02    0.425E-02
DAV:   5    -0.480852836779E+03   -0.22259E-04   -0.86758E-05  1560   0.285E-02    0.151E-02
DAV:   6    -0.480852840940E+03   -0.41609E-05   -0.11282E-05   904   0.101E-02
 365 F= -.48085284E+03 E0= -.48085284E+03  d E =-.234604E-02
       N       E                     dE             d eps       ncg     rms          rms(c)
DAV:   1    -0.480852719654E+03    0.11712E-03   -0.22819E-01  1440   0.112E+00    0.703E-02
DAV:   2    -0.480852985593E+03   -0.26594E-03   -0.32559E-03  1512   0.142E-01    0.476E-02
DAV:   3    -0.480852971532E+03    0.14061E-04   -0.11599E-04  1584   0.292E-02    0.293E-02
DAV:   4    -0.480852971000E+03    0.53221E-06   -0.27104E-05   960   0.163E-02
 366 F= -.48085297E+03 E0= -.48085297E+03  d E =-.247610E-02
       N       E                     dE             d eps       ncg     rms          rms(c)
DAV:   1    -0.480852198928E+03    0.77260E-03   -0.26913E+00  1440   0.390E+00    0.251E-01
DAV:   2    -0.480855369746E+03   -0.31708E-02   -0.39081E-02  1468   0.496E-01    0.168E-01
DAV:   3    -0.480855166004E+03    0.20374E-03   -0.14090E-03  1680   0.105E-01    0.101E-01
DAV:   4    -0.480855142263E+03    0.23741E-04   -0.38042E-04  1528   0.595E-02    0.357E-02
DAV:   5    -0.480855157241E+03   -0.14978E-04   -0.72357E-05  1512   0.257E-02    0.148E-02
DAV:   6    -0.480855160685E+03   -0.34437E-05   -0.86436E-06   888   0.883E-03
 367 F= -.48085516E+03 E0= -.48085516E+03  d E =-.218969E-02
       N       E                     dE             d eps       ncg     rms          rms(c)
DAV:   1    -0.480855135710E+03    0.21531E-04   -0.89668E-02  1440   0.712E-01    0.461E-02
DAV:   2    -0.480855245094E+03   -0.10938E-03   -0.13266E-03  1504   0.913E-02    0.307E-02
DAV:   3    -0.480855238771E+03    0.63229E-05   -0.44481E-05  1288   0.193E-02
 368 F= -.48085524E+03 E0= -.48085524E+03  d E =-.226777E-02
       N       E                     dE             d eps       ncg     rms          rms(c)
DAV:   1    -0.480854825469E+03    0.41963E-03   -0.19743E+00  1440   0.342E+00    0.224E-01
DAV:   2    -0.480857066225E+03   -0.22408E-02   -0.28699E-02  1528   0.431E-01    0.149E-01
DAV:   3    -0.480856907031E+03    0.15919E-03   -0.10569E-03  1672   0.937E-02    0.883E-02
DAV:   4    -0.480856900192E+03    0.68391E-05   -0.28340E-04  1504   0.513E-02    0.304E-02
DAV:   5    -0.480856912625E+03   -0.12434E-04   -0.51534E-05  1400   0.221E-02    0.130E-02
DAV:   6    -0.480856915011E+03   -0.23860E-05   -0.69198E-06   840   0.821E-03
 369 F= -.48085692E+03 E0= -.48085691E+03  d E =-.167624E-02
       N       E                     dE             d eps       ncg     rms          rms(c)
DAV:   1    -0.480856908695E+03    0.39305E-05   -0.34969E-02  1448   0.456E-01    0.298E-02
DAV:   2    -0.480856951235E+03   -0.42541E-04   -0.52358E-04  1560   0.582E-02    0.197E-02
DAV:   3    -0.480856948830E+03    0.24055E-05   -0.16130E-05  1008   0.125E-02
 370 F= -.48085695E+03 E0= -.48085695E+03  d E =-.171006E-02
       N       E                     dE             d eps       ncg     rms          rms(c)
DAV:   1    -0.480856432173E+03    0.51906E-03   -0.20224E+00  1440   0.350E+00    0.226E-01
DAV:   2    -0.480858681188E+03   -0.22490E-02   -0.29642E-02  1508   0.437E-01    0.151E-01
DAV:   3    -0.480858520679E+03    0.16051E-03   -0.10669E-03  1640   0.929E-02    0.897E-02
DAV:   4    -0.480858514669E+03    0.60100E-05   -0.28624E-04  1504   0.506E-02    0.314E-02
DAV:   5    -0.480858527822E+03   -0.13153E-04   -0.47688E-05  1344   0.227E-02    0.117E-02
DAV:   6    -0.480858530738E+03   -0.29164E-05   -0.82972E-06   872   0.854E-03
 371 F= -.48085853E+03 E0= -.48085853E+03  d E =-.158191E-02
       N       E                     dE             d eps       ncg     rms          rms(c)
DAV:   1    -0.480858484850E+03    0.42972E-04   -0.10782E-01  1440   0.810E-01    0.523E-02
DAV:   2    -0.480858607306E+03   -0.12246E-03   -0.16037E-03  1536   0.102E-01    0.348E-02
DAV:   3    -0.480858599559E+03    0.77471E-05   -0.55261E-05  1424   0.215E-02
 372 F= -.48085860E+03 E0= -.48085860E+03  d E =-.165073E-02
       N       E                     dE             d eps       ncg     rms          rms(c)
DAV:   1    -0.480858090984E+03    0.51632E-03   -0.19452E+00  1440   0.348E+00    0.227E-01
DAV:   2    -0.480860286293E+03   -0.21953E-02   -0.29063E-02  1512   0.434E-01    0.151E-01
DAV:   3    -0.480860130430E+03    0.15586E-03   -0.10711E-03  1608   0.942E-02    0.900E-02
DAV:   4    -0.480860128688E+03    0.17418E-05   -0.25696E-04  1536   0.482E-02    0.340E-02
DAV:   5    -0.480860143886E+03   -0.15198E-04   -0.46628E-05  1312   0.214E-02    0.113E-02
DAV:   6    -0.480860146306E+03   -0.24197E-05   -0.76107E-06   872   0.830E-03
 373 F= -.48086015E+03 E0= -.48086015E+03  d E =-.154675E-02
       N       E                     dE             d eps       ncg     rms          rms(c)
DAV:   1    -0.480860086289E+03    0.57597E-04   -0.12402E-01  1440   0.879E-01    0.567E-02
DAV:   2    -0.480860231121E+03   -0.14483E-03   -0.18858E-03  1536   0.111E-01    0.376E-02
DAV:   3    -0.480860221908E+03    0.92130E-05   -0.66664E-05  1552   0.236E-02
 374 F= -.48086022E+03 E0= -.48086022E+03  d E =-.162235E-02
       N       E                     dE             d eps       ncg     rms          rms(c)
DAV:   1    -0.480859599977E+03    0.63114E-03   -0.19821E+00  1440   0.352E+00    0.231E-01
DAV:   2    -0.480861889456E+03   -0.22895E-02   -0.30016E-02  1536   0.440E-01    0.154E-01
DAV:   3    -0.480861732704E+03    0.15675E-03   -0.10123E-03  1624   0.922E-02    0.930E-02
DAV:   4    -0.480861735816E+03   -0.31116E-05   -0.28616E-04  1536   0.503E-02    0.331E-02
DAV:   5    -0.480861748778E+03   -0.12962E-04   -0.46767E-05  1300   0.221E-02    0.118E-02
DAV:   6    -0.480861751152E+03   -0.23745E-05   -0.78804E-06   848   0.847E-03
 375 F= -.48086175E+03 E0= -.48086175E+03  d E =-.152924E-02
       N       E                     dE             d eps       ncg     rms          rms(c)
DAV:   1    -0.480861603875E+03    0.14490E-03   -0.22909E-01  1440   0.120E+00    0.778E-02
DAV:   2    -0.480861876829E+03   -0.27295E-03   -0.35263E-03  1576   0.151E-01    0.514E-02
DAV:   3    -0.480861859373E+03    0.17457E-04   -0.11550E-04  1624   0.312E-02    0.315E-02
DAV:   4    -0.480861860004E+03   -0.63104E-06   -0.31117E-05  1032   0.172E-02
 376 F= -.48086186E+03 E0= -.48086186E+03  d E =-.163810E-02
       N       E                     dE             d eps       ncg     rms          rms(c)
DAV:   1    -0.480861744484E+03    0.11489E-03   -0.12966E+00  1416   0.284E+00    0.190E-01
DAV:   2    -0.480863279903E+03   -0.15354E-02   -0.19892E-02  1520   0.357E-01    0.125E-01
DAV:   3    -0.480863185312E+03    0.94590E-04   -0.66544E-04  1608   0.755E-02    0.768E-02
DAV:   4    -0.480863188538E+03   -0.32254E-05   -0.18654E-04  1504   0.399E-02    0.294E-02
DAV:   5    -0.480863197972E+03   -0.94339E-05   -0.26919E-05  1136   0.176E-02
 377 F= -.48086320E+03 E0= -.48086320E+03  d E =-.133797E-02
       N       E                     dE             d eps       ncg     rms          rms(c)
DAV:   1    -0.480863111645E+03    0.76893E-04   -0.38059E-01  1416   0.154E+00    0.103E-01
DAV:   2    -0.480863569924E+03   -0.45828E-03   -0.58665E-03  1528   0.193E-01    0.669E-02
DAV:   3    -0.480863545578E+03    0.24345E-04   -0.19280E-04  1616   0.406E-02    0.413E-02
DAV:   4    -0.480863548751E+03   -0.31725E-05   -0.53746E-05  1472   0.214E-02
 378 F= -.48086355E+03 E0= -.48086355E+03  d E =-.168875E-02
       N       E                     dE             d eps       ncg     rms          rms(c)
DAV:   1    -0.480863521217E+03    0.24361E-04   -0.93348E-02  1416   0.762E-01    0.534E-02
DAV:   2    -0.480863630366E+03   -0.10915E-03   -0.14193E-03  1568   0.951E-02    0.341E-02
DAV:   3    -0.480863624858E+03    0.55076E-05   -0.45669E-05  1280   0.205E-02
 379 F= -.48086362E+03 E0= -.48086362E+03  d E =-.176485E-02
       N       E                     dE             d eps       ncg     rms          rms(c)
DAV:   1    -0.480863688496E+03   -0.58131E-04   -0.10182E+00  1408   0.253E+00    0.176E-01
DAV:   2    -0.480864948910E+03   -0.12604E-02   -0.16276E-02  1540   0.322E-01    0.114E-01
DAV:   3    -0.480864861732E+03    0.87178E-04   -0.54402E-04  1600   0.701E-02    0.704E-02
DAV:   4    -0.480864865602E+03   -0.38699E-05   -0.16101E-04  1492   0.373E-02    0.263E-02
DAV:   5    -0.480864873791E+03   -0.81894E-05   -0.23590E-05  1096   0.163E-02
 380 F= -.48086487E+03 E0= -.48086487E+03  d E =-.124893E-02
       N       E                     dE             d eps       ncg     rms          rms(c)
DAV:   1    -0.480864791666E+03    0.73935E-04   -0.19701E-01  1408   0.111E+00    0.774E-02
DAV:   2    -0.480865046794E+03   -0.25513E-03   -0.31883E-03  1552   0.142E-01    0.488E-02
DAV:   3    -0.480865031659E+03    0.15135E-04   -0.10207E-04  1600   0.305E-02    0.303E-02
DAV:   4    -0.480865033104E+03   -0.14457E-05   -0.28581E-05  1120   0.162E-02
 381 F= -.48086503E+03 E0= -.48086503E+03  d E =-.140825E-02
       N       E                     dE             d eps       ncg     rms          rms(c)
DAV:   1    -0.480865000949E+03    0.30709E-04   -0.99217E-01  1392   0.248E+00    0.169E-01
DAV:   2    -0.480866256576E+03   -0.12556E-02   -0.15997E-02  1536   0.315E-01    0.108E-01
DAV:   3    -0.480866188138E+03    0.68438E-04   -0.52815E-04  1592   0.674E-02    0.678E-02
DAV:   4    -0.480866193153E+03   -0.50145E-05   -0.14038E-04  1520   0.345E-02    0.276E-02
DAV:   5    -0.480866201529E+03   -0.83768E-05   -0.21032E-05  1100   0.156E-02
 382 F= -.48086620E+03 E0= -.48086620E+03  d E =-.116843E-02
       N       E                     dE             d eps       ncg     rms          rms(c)
DAV:   1    -0.480866086353E+03    0.10680E-03   -0.34549E-01  1392   0.146E+00    0.997E-02
DAV:   2    -0.480866530018E+03   -0.44366E-03   -0.55907E-03  1568   0.186E-01    0.631E-02
DAV:   3    -0.480866508241E+03    0.21777E-04   -0.18180E-04  1600   0.396E-02    0.399E-02
DAV:   4    -0.480866510829E+03   -0.25887E-05   -0.47356E-05  1392   0.202E-02
 383 F= -.48086651E+03 E0= -.48086651E+03  d E =-.147773E-02
       N       E                     dE             d eps       ncg     rms          rms(c)
DAV:   1    -0.480866485930E+03    0.22311E-04   -0.10434E+00  1376   0.254E+00    0.183E-01
DAV:   2    -0.480867837747E+03   -0.13518E-02   -0.17412E-02  1572   0.331E-01    0.114E-01
DAV:   3    -0.480867764696E+03    0.73051E-04   -0.62340E-04  1608   0.726E-02    0.716E-02
DAV:   4    -0.480867769802E+03   -0.51062E-05   -0.14832E-04  1520   0.357E-02    0.299E-02
DAV:   5    -0.480867779354E+03   -0.95516E-05   -0.24056E-05  1096   0.165E-02
 384 F= -.48086778E+03 E0= -.48086778E+03  d E =-.126852E-02
       N       E                     dE             d eps       ncg     rms          rms(c)
DAV:   1    -0.480867774692E+03   -0.48894E-05   -0.85178E-02  1376   0.727E-01    0.531E-02
DAV:   2    -0.480867888786E+03   -0.11409E-03   -0.14288E-03  1608   0.943E-02    0.319E-02
DAV:   3    -0.480867884240E+03    0.45461E-05   -0.48872E-05  1376   0.206E-02
 385 F= -.48086788E+03 E0= -.48086788E+03  d E =-.137341E-02
       N       E                     dE             d eps       ncg     rms          rms(c)
DAV:   1    -0.480867789242E+03    0.99544E-04   -0.10545E+00  1376   0.257E+00    0.180E-01
DAV:   2    -0.480869086514E+03   -0.12973E-02   -0.17080E-02  1560   0.327E-01    0.116E-01
DAV:   3    -0.480869018622E+03    0.67891E-04   -0.62407E-04  1640   0.731E-02    0.721E-02
DAV:   4    -0.480869030862E+03   -0.12239E-04   -0.15014E-04  1520   0.361E-02    0.297E-02
DAV:   5    -0.480869041767E+03   -0.10905E-04   -0.22544E-05  1064   0.165E-02    0.832E-03
DAV:   6    -0.480869043279E+03   -0.15119E-05   -0.55989E-06   872   0.676E-03
 386 F= -.48086904E+03 E0= -.48086904E+03  d E =-.115904E-02
       N       E                     dE             d eps       ncg     rms          rms(c)
DAV:   1    -0.480868458344E+03    0.58342E-03   -0.76381E-01  1376   0.219E+00    0.151E-01
DAV:   2    -0.480869426694E+03   -0.96835E-03   -0.12505E-02  1540   0.280E-01    0.958E-02
DAV:   3    -0.480869377706E+03    0.48988E-04   -0.45138E-04  1640   0.621E-02    0.604E-02
DAV:   4    -0.480869382720E+03   -0.50137E-05   -0.10650E-04  1512   0.305E-02    0.255E-02
DAV:   5    -0.480869390153E+03   -0.74328E-05   -0.16371E-05   976   0.140E-02
 387 F= -.48086939E+03 E0= -.48086939E+03  d E =-.150591E-02
       N       E                     dE             d eps       ncg     rms          rms(c)
DAV:   1    -0.480869492503E+03   -0.10978E-03   -0.65196E-01  1376   0.204E+00    0.136E-01
DAV:   2    -0.480870331317E+03   -0.83881E-03   -0.10701E-02  1552   0.258E-01    0.886E-02
DAV:   3    -0.480870289226E+03    0.42092E-04   -0.36374E-04  1624   0.558E-02    0.551E-02
DAV:   4    -0.480870295098E+03   -0.58725E-05   -0.91905E-05  1504   0.282E-02
 388 F= -.48087030E+03 E0= -.48087030E+03  d E =-.904945E-03
       N       E                     dE             d eps       ncg     rms          rms(c)
DAV:   1    -0.480870396429E+03   -0.10720E-03   -0.14682E-01  1376   0.965E-01    0.679E-02
DAV:   2    -0.480870580382E+03   -0.18395E-03   -0.23620E-03  1604   0.121E-01    0.429E-02
DAV:   3    -0.480870571983E+03    0.83982E-05   -0.82096E-05  1576   0.269E-02
 389 F= -.48087057E+03 E0= -.48087057E+03  d E =-.118183E-02
       N       E                     dE             d eps       ncg     rms          rms(c)
DAV:   1    -0.480870144028E+03    0.43635E-03   -0.58610E-01  1376   0.193E+00    0.134E-01
DAV:   2    -0.480870851734E+03   -0.70771E-03   -0.94391E-03  1544   0.243E-01    0.882E-02
DAV:   3    -0.480870813647E+03    0.38088E-04   -0.34142E-04  1620   0.540E-02    0.538E-02
DAV:   4    -0.480870823299E+03   -0.96527E-05   -0.87446E-05  1496   0.275E-02
 390 F= -.48087082E+03 E0= -.48087082E+03  d E =-.143315E-02
       N       E                     dE             d eps       ncg     rms          rms(c)
DAV:   1    -0.480870945348E+03   -0.13170E-03   -0.59882E-01  1376   0.197E+00    0.133E-01
DAV:   2    -0.480871735109E+03   -0.78976E-03   -0.98560E-03  1544   0.248E-01    0.868E-02
DAV:   3    -0.480871695112E+03    0.39997E-04   -0.33299E-04  1640   0.540E-02    0.543E-02
DAV:   4    -0.480871703100E+03   -0.79878E-05   -0.91156E-05  1524   0.286E-02
 391 F= -.48087170E+03 E0= -.48087170E+03  d E =-.879801E-03
