slab_Cel1-OPT                           
           1
    14.265900    0.000000    0.000000
     0.000000   12.356997    0.000000
     0.000000    0.000000   15.000000
   C    N    Au
    24    32     2
Direct configuration=     1
   0.06537593  0.40364000  0.13333000
   0.98097748  0.23494000  0.13333000
   0.22593437  0.39820000  0.13333000
   0.81543575  0.57710000  0.13333000
   0.14973747  0.23490000  0.13333000
   0.90517930  0.39797000  0.13333000
   0.56537593  0.40364000  0.13333000
   0.48097748  0.23494000  0.13333000
   0.72593437  0.39820000  0.13333000
   0.31543575  0.57710000  0.13333000
   0.64973747  0.23490000  0.13333000
   0.40517930  0.39797000  0.13333000
   0.81551954  0.90364000  0.13333000
   0.73112108  0.73494000  0.13333000
   0.97607797  0.89820000  0.13333000
   0.06529214  0.07710000  0.13333000
   0.89988107  0.73490000  0.13333000
   0.65532291  0.89797000  0.13333000
   0.31551954  0.90364000  0.13333000
   0.23112108  0.73494000  0.13333000
   0.47607797  0.89820000  0.13333000
   0.56529214  0.07710000  0.13333000
   0.39988107  0.73490000  0.13333000
   0.15532291  0.89797000  0.13333000
   0.98400093  0.45588000  0.13333000
   0.90111835  0.29021000  0.13333000
   0.14710595  0.45595000  0.13333000
   0.14840652  0.12714000  0.13333000
   0.98256150  0.12707000  0.13333000
   0.22992331  0.29008000  0.13333000
   0.06536362  0.29116000  0.13333000
   0.81553147  0.45774000  0.13333000
   0.48400093  0.45588000  0.13333000
   0.40111835  0.29021000  0.13333000
   0.64710595  0.45595000  0.13333000
   0.64840652  0.12714000  0.13333000
   0.48256150  0.12707000  0.13333000
   0.72992331  0.29008000  0.13333000
   0.56536362  0.29116000  0.13333000
   0.31553147  0.45774000  0.13333000
   0.73414454  0.95588000  0.13333000
   0.65126196  0.79021000  0.13333000
   0.89724956  0.95595000  0.13333000
   0.89855012  0.62714000  0.13333000
   0.73270510  0.62707000  0.13333000
   0.98006692  0.79008000  0.13333000
   0.81550723  0.79116000  0.13333000
   0.56567507  0.95774000  0.13333000
   0.23414454  0.95588000  0.13333000
   0.15126196  0.79021000  0.13333000
   0.39724956  0.95595000  0.13333000
   0.39855012  0.62714000  0.13333000
   0.23270510  0.62707000  0.13333000
   0.48006692  0.79008000  0.13333000
   0.31550723  0.79116000  0.13333000
   0.06567507  0.95774000  0.13333000
   0.51318019  0.65760505  0.14333042
   0.63498818  0.58816656  0.13951958
slab_Cel1-OPT                           
           1
    14.594826    0.000000    0.000000
     0.000000   12.529574    0.000000
     0.000000    0.000000   15.000000
   C    N    Au
    24    32     2
Direct configuration=     2
   0.06551680  0.40384272  0.13333516
   0.98092674  0.23456809  0.13332953
   0.22588231  0.39798504  0.13332614
   0.81819371  0.57553784  0.13326311
   0.14989234  0.23466676  0.13333299
   0.90539620  0.39779109  0.13332843
   0.56384975  0.40181451  0.13314672
   0.48041589  0.23415411  0.13335990
   0.72830626  0.39634127  0.13331131
   0.31434949  0.57505687  0.13337393
   0.65013625  0.23393326  0.13335367
   0.40375681  0.39753144  0.13337992
   0.81586382  0.90441578  0.13335715
   0.73293181  0.73857173  0.13310234
   0.97651487  0.89822359  0.13332596
   0.06541963  0.07690790  0.13333381
   0.90056832  0.73501880  0.13334432
   0.65487742  0.89947570  0.13335915
   0.31510047  0.90455645  0.13337890
   0.23025022  0.73485652  0.13337355
   0.47699891  0.90012049  0.13340831
   0.56545683  0.07678101  0.13331820
   0.39315917  0.73954029  0.13274403
   0.15490385  0.89823845  0.13332408
   0.98392299  0.45605669  0.13332972
   0.90093792  0.29027358  0.13333209
   0.14698687  0.45606344  0.13332816
   0.14843229  0.12727322  0.13332934
   0.98240570  0.12730950  0.13332488
   0.22996523  0.29015258  0.13333407
   0.06538684  0.29118164  0.13333209
   0.81487619  0.45815238  0.13333032
   0.48458706  0.45562211  0.13296778
   0.40133183  0.29028405  0.13334500
   0.64868700  0.44340921  0.13246311
   0.64854862  0.12772270  0.13330045
   0.48231415  0.12774195  0.13330260
   0.72958668  0.29072689  0.13337519
   0.56570363  0.29195503  0.13342940
   0.31592630  0.45792665  0.13333097
   0.73419834  0.95573423  0.13336977
   0.65173860  0.79021244  0.13293669
   0.89661555  0.95582759  0.13330080
   0.89789590  0.62723275  0.13338325
   0.75590726  0.63661316  0.13165779
   0.97977533  0.78982230  0.13330691
   0.81528087  0.79058970  0.13339723
   0.56570246  0.95734876  0.13334568
   0.23472765  0.95576965  0.13327449
   0.15159754  0.78975961  0.13327848
   0.39727881  0.95536985  0.13331154
   0.38900436  0.62588093  0.13197138
   0.23322086  0.62738221  0.13332546
   0.47638651  0.79934432  0.13197615
   0.31603624  0.79079140  0.13362806
   0.06558685  0.95773461  0.13335651
   0.51727169  0.65516874  0.14708771
   0.62173077  0.58132801  0.14205629
slab_Cel1-OPT                           
           1
    14.469417    0.000000    0.000000
     0.000000   12.463776    0.000000
     0.000000    0.000000   15.000000
   C    N    Au
    24    32     2
Direct configuration=     3
   0.06546430  0.40376649  0.13333319
   0.98094565  0.23470793  0.13332971
   0.22590171  0.39806587  0.13332761
   0.81716589  0.57612524  0.13328861
   0.14983462  0.23475446  0.13333185
   0.90531537  0.39785837  0.13332903
   0.56441852  0.40250092  0.13321660
   0.48062518  0.23444961  0.13334850
   0.72742232  0.39704018  0.13331843
   0.31475431  0.57582512  0.13335718
   0.64998763  0.23429677  0.13334464
   0.40428694  0.39769635  0.13336089
   0.81573551  0.90412408  0.13334680
   0.73225700  0.73720614  0.13318914
   0.97635205  0.89821472  0.13332750
   0.06537212  0.07698013  0.13333236
   0.90031220  0.73497413  0.13333886
   0.65504344  0.89890953  0.13334804
   0.31525664  0.90421185  0.13336026
   0.23057477  0.73488791  0.13335695
   0.47665570  0.89939836  0.13337846
   0.56539545  0.07690096  0.13332270
   0.39566425  0.73779547  0.13296744
   0.15506002  0.89813751  0.13332634
   0.98395204  0.45599025  0.13332982
   0.90100516  0.29024967  0.13333129
   0.14703125  0.45602078  0.13332886
   0.14842269  0.12722313  0.13332959
   0.98246376  0.12721945  0.13332683
   0.22994961  0.29012529  0.13333252
   0.06537819  0.29117350  0.13333130
   0.81512039  0.45799732  0.13333020
   0.48436863  0.45571908  0.13310588
   0.40125227  0.29025620  0.13333928
   0.64809778  0.44812474  0.13279363
   0.64849566  0.12750359  0.13331172
   0.48240633  0.12748929  0.13331304
   0.72971213  0.29048365  0.13335796
   0.56557692  0.29165609  0.13339150
   0.31577915  0.45785647  0.13333060
   0.73417829  0.95578904  0.13335461
   0.65156097  0.79021152  0.13308665
   0.89685183  0.95587362  0.13331193
   0.89813971  0.62719787  0.13336295
   0.74726042  0.63302478  0.13229535
   0.97988400  0.78991920  0.13331571
   0.81536523  0.79080414  0.13337160
   0.56569226  0.95749587  0.13333970
   0.23451034  0.95581114  0.13329566
   0.15147248  0.78992896  0.13329812
   0.39726791  0.95558800  0.13331858
   0.39256182  0.62635436  0.13248938
   0.23302865  0.62726481  0.13332719
   0.47775810  0.79586080  0.13249233
   0.31583909  0.79093000  0.13351442
   0.06561973  0.95773664  0.13334640
   0.51574689  0.65608483  0.14565518
   0.62667146  0.58389941  0.14108913
slab_Cel1-OPT                           
           1
    14.705757    0.000000    0.000000
     0.000000   12.582730    0.000000
     0.000000    0.000000   15.000000
   C    N    Au
    24    32     2
Direct configuration=     4
   0.06557461  0.40399731  0.13333884
   0.98092198  0.23453201  0.13333358
   0.22556921  0.39779145  0.13332206
   0.82210619  0.57380301  0.13325747
   0.14994365  0.23467725  0.13333383
   0.90580802  0.39760300  0.13331791
   0.56302553  0.39963095  0.13297381
   0.48021377  0.23384397  0.13338572
   0.72995120  0.39463359  0.13327901
   0.31254404  0.57383651  0.13345832
   0.65043544  0.23372752  0.13336859
   0.40339382  0.39711195  0.13339722
   0.81597208  0.90474433  0.13337672
   0.73414344  0.74049001  0.13294925
   0.97630403  0.89824748  0.13331653
   0.06545808  0.07720178  0.13333769
   0.90081858  0.73466806  0.13336017
   0.65496435  0.90008957  0.13336659
   0.31508491  0.90514886  0.13341765
   0.22989645  0.73461430  0.13342160
   0.47720308  0.90263771  0.13346566
   0.56550443  0.07699005  0.13330540
   0.39105147  0.74088890  0.13232984
   0.15496745  0.89827441  0.13332003
   0.98388127  0.45575255  0.13333195
   0.90119811  0.29039371  0.13333268
   0.14693752  0.45574761  0.13332803
   0.14805020  0.12737421  0.13332798
   0.98274632  0.12744061  0.13332189
   0.22964320  0.29027548  0.13333785
   0.06539965  0.29114342  0.13333332
   0.81480929  0.45812286  0.13332204
   0.48449343  0.45497996  0.13264664
   0.40163930  0.29048991  0.13337596
   0.64915926  0.43891035  0.13193553
   0.64822019  0.12799226  0.13329022
   0.48260443  0.12805575  0.13327592
   0.72935623  0.29051825  0.13340890
   0.56551325  0.29188813  0.13348599
   0.31588454  0.45772994  0.13334126
   0.73422436  0.95539563  0.13343267
   0.65246245  0.79020499  0.13253930
   0.89652619  0.95545682  0.13326550
   0.89872515  0.62753170  0.13344897
   0.75285730  0.63739950  0.13123300
   0.97937295  0.78983084  0.13327853
   0.81566669  0.79162093  0.13351591
   0.56580296  0.95754251  0.13335479
   0.23484057  0.95537646  0.13323948
   0.15197606  0.78983111  0.13323062
   0.39711793  0.95509991  0.13329478
   0.38697730  0.62776723  0.13109966
   0.23333267  0.62756966  0.13331708
   0.47392357  0.79964999  0.13137581
   0.31511429  0.79139085  0.13382925
   0.06557852  0.95771478  0.13337996
   0.50779214  0.66177313  0.14962632
   0.63553964  0.57653661  0.14273871
slab_Cel1-OPT                           
           1
    14.726453    0.000000    0.000000
     0.000000   12.593147    0.000000
     0.000000    0.000000   15.000000
   C    N    Au
    24    32     2
Direct configuration=     5
   0.06558412  0.40401733  0.13333934
   0.98091994  0.23451675  0.13333392
   0.22554056  0.39776764  0.13332157
   0.82253184  0.57360158  0.13325474
   0.14995305  0.23467055  0.13333401
   0.90585046  0.39758085  0.13331693
   0.56290551  0.39938201  0.13295255
   0.48017833  0.23379144  0.13338898
   0.73016908  0.39442484  0.13327555
   0.31235361  0.57366402  0.13346718
   0.65047402  0.23367815  0.13337069
   0.40331687  0.39706126  0.13340041
   0.81599246  0.90479813  0.13337934
   0.73430597  0.74077485  0.13292824
   0.97629989  0.89825032  0.13331557
   0.06546548  0.07722100  0.13333816
   0.90086221  0.73464152  0.13336203
   0.65495753  0.90019192  0.13336822
   0.31507011  0.90523013  0.13342268
   0.22983801  0.73459057  0.13342726
   0.47725025  0.90291869  0.13347329
   0.56551382  0.07699778  0.13330389
   0.39065404  0.74115722  0.13227401
   0.15495947  0.89828628  0.13331947
   0.98387518  0.45573193  0.13333214
   0.90121473  0.29040620  0.13333280
   0.14692944  0.45572391  0.13332796
   0.14801810  0.12738731  0.13332784
   0.98277067  0.12745980  0.13332146
   0.22961680  0.29028851  0.13333832
   0.06540150  0.29114081  0.13333350
   0.81478248  0.45813374  0.13332132
   0.48450419  0.45491585  0.13260643
   0.40167264  0.29051018  0.13337917
   0.64925071  0.43811111  0.13186039
   0.64819646  0.12803465  0.13328834
   0.48262150  0.12810489  0.13327267
   0.72932556  0.29052125  0.13341336
   0.56550776  0.29190826  0.13349426
   0.31589362  0.45771896  0.13334219
   0.73422833  0.95536151  0.13343950
   0.65254012  0.79020443  0.13249137
   0.89649814  0.95542067  0.13326143
   0.89877559  0.62756065  0.13345650
   0.75333952  0.63777896  0.13113997
   0.97932892  0.78982317  0.13327528
   0.81569266  0.79169178  0.13352855
   0.56581250  0.95754655  0.13335611
   0.23486902  0.95533876  0.13323457
   0.15201945  0.78982262  0.13322471
   0.39710501  0.95505757  0.13329269
   0.38649614  0.62788978  0.13097796
   0.23335887  0.62759610  0.13331619
   0.47359319  0.79997866  0.13127804
   0.31505184  0.79143082  0.13385682
   0.06557497  0.95771288  0.13338290
   0.50710676  0.66226653  0.14997407
   0.63630371  0.57589797  0.14288316
slab_Cel1-OPT                           
           1
    14.722917    0.000000    0.000000
     0.000000   12.597941    0.000000
     0.000000    0.000000   15.000000
   C    N    Au
    24    32     2
Direct configuration=     6
   0.06560893  0.40403857  0.13334126
   0.98104481  0.23451051  0.13333944
   0.22491075  0.39735951  0.13332562
   0.82470192  0.57379773  0.13319290
   0.14983246  0.23467928  0.13333484
   0.90660405  0.39710243  0.13329783
   0.56257845  0.39712301  0.13274211
   0.48008703  0.23350483  0.13341344
   0.73152204  0.39234985  0.13322406
   0.31005952  0.57297993  0.13358415
   0.65081771  0.23361409  0.13337935
   0.40325911  0.39652189  0.13336207
   0.81629456  0.90510221  0.13340643
   0.73592057  0.74228125  0.13272011
   0.97582931  0.89818424  0.13329977
   0.06546376  0.07771317  0.13334352
   0.90120018  0.73452870  0.13339072
   0.65544779  0.90054409  0.13336470
   0.31486925  0.90597338  0.13347948
   0.22934749  0.73446027  0.13351178
   0.47690755  0.90557971  0.13351361
   0.56557914  0.07763830  0.13330041
   0.38843665  0.74241308  0.13155452
   0.15527781  0.89820924  0.13330555
   0.98391304  0.45505693  0.13333777
   0.90183650  0.29063887  0.13333210
   0.14686167  0.45507200  0.13333430
   0.14732439  0.12769525  0.13332841
   0.98346358  0.12776110  0.13332059
   0.22896874  0.29053391  0.13334016
   0.06542388  0.29119500  0.13333422
   0.81550175  0.45773856  0.13330417
   0.48449397  0.45425338  0.13234864
   0.40214728  0.29084089  0.13345234
   0.64842843  0.43334255  0.13117754
   0.64747749  0.12834277  0.13327756
   0.48327231  0.12835357  0.13325513
   0.72933213  0.28913219  0.13349081
   0.56480444  0.29090734  0.13352001
   0.31551538  0.45721647  0.13337011
   0.73403874  0.95482019  0.13351018
   0.65357388  0.79031754  0.13207482
   0.89647289  0.95485837  0.13322014
   0.90061071  0.62790435  0.13355072
   0.75320254  0.63869134  0.13039222
   0.97864278  0.79000408  0.13323781
   0.81647537  0.79356096  0.13372429
   0.56597034  0.95822399  0.13337439
   0.23485512  0.95469786  0.13319452
   0.15259383  0.79013021  0.13316585
   0.39695557  0.95512159  0.13330472
   0.38360463  0.62959325  0.12937219
   0.23316371  0.62756469  0.13329947
   0.47071187  0.80178750  0.13003512
   0.31295945  0.79284378  0.13424580
   0.06556547  0.95774228  0.13340963
   0.50929738  0.66017801  0.15361976
   0.63916267  0.57736157  0.14434685
slab_Cel1-OPT                           
           1
    14.718871    0.000000    0.000000
     0.000000   12.603428    0.000000
     0.000000    0.000000   15.000000
   C    N    Au
    24    32     2
Direct configuration=     7
   0.06563732  0.40406287  0.13334346
   0.98118772  0.23450337  0.13334575
   0.22418989  0.39689267  0.13333025
   0.82718571  0.57402209  0.13312212
   0.14969444  0.23468926  0.13333580
   0.90746657  0.39655518  0.13327598
   0.56220411  0.39453903  0.13250130
   0.47998254  0.23317699  0.13344143
   0.73307059  0.38997636  0.13316513
   0.30743378  0.57219743  0.13371800
   0.65121107  0.23354082  0.13338927
   0.40319300  0.39590492  0.13331820
   0.81664033  0.90545002  0.13343742
   0.73776858  0.74400435  0.13248195
   0.97529070  0.89810866  0.13328169
   0.06546179  0.07827614  0.13334965
   0.90158702  0.73439966  0.13342354
   0.65600891  0.90094692  0.13336068
   0.31463936  0.90682354  0.13354449
   0.22878605  0.73431124  0.13360850
   0.47651531  0.90862354  0.13355975
   0.56565391  0.07837097  0.13329643
   0.38589870  0.74384960  0.13073122
   0.15564216  0.89812111  0.13328962
   0.98395638  0.45428483  0.13334422
   0.90254815  0.29090502  0.13333129
   0.14678410  0.45432630  0.13334156
   0.14653040  0.12804749  0.13332906
   0.98425666  0.12810575  0.13331959
   0.22822699  0.29081462  0.13334227
   0.06544950  0.29125698  0.13333505
   0.81632499  0.45728653  0.13328454
   0.48448228  0.45349560  0.13205365
   0.40269053  0.29121918  0.13353606
   0.64748727  0.42788802  0.13039616
   0.64665458  0.12869521  0.13326522
   0.48401721  0.12863802  0.13323506
   0.72933965  0.28754330  0.13357944
   0.56399943  0.28976243  0.13354948
   0.31508247  0.45664169  0.13340206
   0.73382175  0.95420101  0.13359106
   0.65475708  0.79044692  0.13159818
   0.89644399  0.95421519  0.13317289
   0.90271112  0.62829749  0.13365853
   0.75304575  0.63973496  0.12953657
   0.97785745  0.79021101  0.13319494
   0.81737124  0.79569903  0.13394828
   0.56615099  0.95899888  0.13339532
   0.23483920  0.95396476  0.13314870
   0.15325125  0.79048206  0.13309849
   0.39678452  0.95519482  0.13331848
   0.38029510  0.63154177  0.12753472
   0.23294034  0.62752877  0.13328034
   0.46741402  0.80385655  0.12861285
   0.31056458  0.79446000  0.13469090
   0.06555459  0.95777591  0.13344022
   0.51180468  0.65778905  0.15779150
   0.64243493  0.57903573  0.14602173
slab_Cel1-OPT                           
           1
    14.662853    0.000000    0.000000
     0.000000   12.563363    0.000000
     0.000000    0.000000   15.000000
   C    N    Au
    24    32     2
Direct configuration=     8
   0.06560200  0.40366845  0.13334991
   0.98166793  0.23457237  0.13335438
   0.22361735  0.39629190  0.13335259
   0.82776814  0.57550798  0.13293551
   0.14919361  0.23473623  0.13333500
   0.90818352  0.39604311  0.13323549
   0.56194754  0.39267362  0.13218978
   0.48018144  0.23288886  0.13347518
   0.73308995  0.38846987  0.13305085
   0.30607385  0.57201939  0.13369571
   0.65109674  0.23296153  0.13341012
   0.40367836  0.39589044  0.13324048
   0.81703003  0.90616290  0.13350238
   0.73952131  0.74509724  0.13209420
   0.97498984  0.89780968  0.13325445
   0.06545649  0.07848379  0.13335698
   0.90228099  0.73507399  0.13348524
   0.65656406  0.90060086  0.13329000
   0.31435576  0.90768234  0.13366153
   0.22807131  0.73433654  0.13372889
   0.47575306  0.90977767  0.13352361
   0.56595822  0.07921410  0.13329856
   0.38507917  0.74416746  0.12967061
   0.15594545  0.89800416  0.13325966
   0.98441125  0.45364425  0.13334999
   0.90333125  0.29075489  0.13333027
   0.14653832  0.45377949  0.13335425
   0.14609936  0.12857252  0.13333260
   0.98472123  0.12857844  0.13332028
   0.22749575  0.29074277  0.13334102
   0.06544969  0.29141216  0.13333570
   0.81791840  0.45653858  0.13322668
   0.48451802  0.45262577  0.13173581
   0.40285591  0.29107132  0.13366724
   0.64704370  0.42808676  0.12967326
   0.64605010  0.12873672  0.13324497
   0.48431994  0.12854774  0.13321772
   0.73045641  0.28428449  0.13376245
   0.56276616  0.28701056  0.13361241
   0.31398626  0.45588312  0.13346198
   0.73382732  0.95416341  0.13370992
   0.65584686  0.79103362  0.13107950
   0.89656188  0.95433137  0.13311076
   0.90509060  0.62848145  0.13382800
   0.75453371  0.64025052  0.12823703
   0.97761501  0.79094814  0.13314097
   0.81845340  0.79700330  0.13425277
   0.56617265  0.96025126  0.13344170
   0.23425523  0.95422857  0.13310356
   0.15296629  0.79096371  0.13303140
   0.39553389  0.95712457  0.13340389
   0.38067728  0.63471548  0.12563876
   0.23061326  0.62793039  0.13341836
   0.46512405  0.80208512  0.12718983
   0.30801405  0.79605970  0.13523665
   0.06556594  0.95782603  0.13346271
   0.51145574  0.65708228  0.16237936
   0.64484773  0.57680866  0.14794707
slab_Cel1-OPT                           
           1
    14.603941    0.000000    0.000000
     0.000000   12.521228    0.000000
     0.000000    0.000000   15.000000
   C    N    Au
    24    32     2
Direct configuration=     9
   0.06556471  0.40325233  0.13335669
   0.98217487  0.23464516  0.13336345
   0.22301292  0.39565808  0.13337609
   0.82838300  0.57707563  0.13273925
   0.14866489  0.23478579  0.13333415
   0.90894038  0.39550286  0.13319292
   0.56167669  0.39070557  0.13186216
   0.48039141  0.23258487  0.13351068
   0.73311038  0.38688050  0.13293067
   0.30463818  0.57183155  0.13367228
   0.65097603  0.23235036  0.13343204
   0.40419075  0.39587515  0.13315875
   0.81744143  0.90691499  0.13357070
   0.74137165  0.74625025  0.13168641
   0.97467222  0.89749426  0.13322580
   0.06545090  0.07870286  0.13336469
   0.90301361  0.73578542  0.13355014
   0.65715011  0.90023576  0.13321567
   0.31405636  0.90858838  0.13378462
   0.22731676  0.73436322  0.13385550
   0.47494836  0.91099529  0.13348560
   0.56627947  0.08010361  0.13330081
   0.38421401  0.74450281  0.12855521
   0.15626563  0.89788077  0.13322816
   0.98489145  0.45296842  0.13335607
   0.90415795  0.29059651  0.13332920
   0.14627886  0.45320260  0.13336760
   0.14564432  0.12912644  0.13333633
   0.98521166  0.12907714  0.13332101
   0.22672380  0.29066697  0.13333971
   0.06544990  0.29157588  0.13333638
   0.81960054  0.45574949  0.13316582
   0.48455574  0.45170808  0.13140155
   0.40303049  0.29091532  0.13380519
   0.64657542  0.42829644  0.12891302
   0.64541196  0.12878051  0.13322368
   0.48463953  0.12845249  0.13319949
   0.73163536  0.28084637  0.13395492
   0.56146421  0.28410727  0.13367859
   0.31282902  0.45508282  0.13352499
   0.73383321  0.95412373  0.13383493
   0.65699733  0.79165260  0.13053403
   0.89668634  0.95445394  0.13304542
   0.90760257  0.62867552  0.13400623
   0.75610453  0.64079445  0.12687034
   0.97735906  0.79172583  0.13308421
   0.81959582  0.79837933  0.13457298
   0.56619551  0.96157254  0.13349047
   0.23363875  0.95450690  0.13305609
   0.15266547  0.79147187  0.13296084
   0.39421362  0.95916050  0.13349371
   0.38108074  0.63806380  0.12364484
   0.22815661  0.62835410  0.13356351
   0.46270657  0.80021623  0.12569328
   0.30532151  0.79774741  0.13581060
   0.06557792  0.95787890  0.13348637
   0.51108737  0.65633662  0.16720426
   0.64739489  0.57445906  0.14997188
slab_Cel1-OPT                           
           1
    14.583714    0.000000    0.000000
     0.000000   12.522920    0.000000
     0.000000    0.000000   15.000000
   C    N    Au
    24    32     2
Direct configuration=    10
   0.06567445  0.40255333  0.13336760
   0.98298689  0.23494324  0.13337866
   0.22276065  0.39530132  0.13343234
   0.82980811  0.57834203  0.13236878
   0.14790139  0.23507811  0.13333053
   0.90909758  0.39552219  0.13311556
   0.56151156  0.38935434  0.13131909
   0.47965129  0.23151066  0.13358239
   0.73266820  0.38499842  0.13266995
   0.30501360  0.57407428  0.13307876
   0.65040419  0.23094070  0.13348740
   0.40438911  0.39584010  0.13303709
   0.81755720  0.90836311  0.13375388
   0.74232538  0.74629812  0.13097018
   0.97514436  0.89826639  0.13318969
   0.06550866  0.07804435  0.13337217
   0.90386678  0.73643022  0.13369711
   0.65734391  0.90001600  0.13304754
   0.31287000  0.90935070  0.13399310
   0.22619619  0.73531873  0.13405149
   0.47350893  0.90933379  0.13311639
   0.56608053  0.07991745  0.13331852
   0.38212363  0.74584080  0.12715908
   0.15593013  0.89809340  0.13317331
   0.98565358  0.45310745  0.13335603
   0.90453214  0.28964926  0.13331947
   0.14596610  0.45332771  0.13338543
   0.14595717  0.12919865  0.13334417
   0.98490368  0.12906761  0.13332804
   0.22651403  0.28969637  0.13333162
   0.06541860  0.29148085  0.13334164
   0.82103910  0.45486807  0.13305939
   0.48468878  0.45090517  0.13100204
   0.40241295  0.29017110  0.13399671
   0.64662601  0.42855335  0.12794953
   0.64606471  0.12772795  0.13321551
   0.48382848  0.12734012  0.13319388
   0.73324226  0.27858315  0.13418543
   0.56200225  0.28310836  0.13373374
   0.31179891  0.45518069  0.13358167
   0.73446109  0.95530544  0.13405703
   0.65797041  0.79174245  0.12977304
   0.89745974  0.95623786  0.13292742
   0.90967945  0.62873889  0.13429778
   0.75826281  0.64238981  0.12460422
   0.97874220  0.79285904  0.13299755
   0.82102739  0.79838257  0.13507978
   0.56561017  0.96209119  0.13351786
   0.23226552  0.95683994  0.13301324
   0.15028840  0.79204832  0.13288149
   0.39304445  0.96221487  0.13369622
   0.38101249  0.63799118  0.12128213
   0.22528445  0.62778404  0.13397195
   0.46281162  0.79953601  0.12411411
   0.30513426  0.79778655  0.13638842
   0.06547044  0.95810914  0.13348599
   0.51050928  0.65574171  0.17361211
   0.64821713  0.57219496  0.15329471
slab_Cel1-OPT                           
           1
    14.558058    0.000000    0.000000
     0.000000   12.525065    0.000000
     0.000000    0.000000   15.000000
   C    N    Au
    24    32     2
Direct configuration=    11
   0.06581384  0.40166680  0.13338143
   0.98401833  0.23532129  0.13339794
   0.22244021  0.39484885  0.13350369
   0.83161830  0.57994820  0.13189884
   0.14693158  0.23544886  0.13332593
   0.90929726  0.39554670  0.13301745
   0.56130180  0.38764059  0.13063023
   0.47871116  0.23014824  0.13367335
   0.73210655  0.38261139  0.13233923
   0.30549046  0.57691871  0.13232591
   0.64967781  0.22915285  0.13355762
   0.40464108  0.39579565  0.13288278
   0.81770425  0.91019974  0.13398625
   0.74353682  0.74635883  0.13006168
   0.97574407  0.89924568  0.13314388
   0.06558203  0.07720918  0.13338167
   0.90495049  0.73724801  0.13388353
   0.65759007  0.89973727  0.13283427
   0.31136306  0.91031754  0.13425754
   0.22477281  0.73653058  0.13430010
   0.47168055  0.90722652  0.13264806
   0.56582783  0.07968133  0.13334097
   0.37946838  0.74753776  0.12538815
   0.15550397  0.89836307  0.13310375
   0.98662164  0.45328377  0.13335600
   0.90500744  0.28844787  0.13330713
   0.14556882  0.45348639  0.13340805
   0.14635456  0.12929024  0.13335411
   0.98451247  0.12905552  0.13333695
   0.22624756  0.28846537  0.13332136
   0.06537884  0.29136033  0.13334832
   0.82286639  0.45375019  0.13292440
   0.48485777  0.44988684  0.13049528
   0.40162854  0.28922721  0.13423965
   0.64669027  0.42887918  0.12672739
   0.64689384  0.12639299  0.13320514
   0.48279828  0.12592932  0.13318678
   0.73528338  0.27571274  0.13447783
   0.56268568  0.28184144  0.13380369
   0.31049045  0.45530481  0.13365358
   0.73525864  0.95680418  0.13433875
   0.65920644  0.79185640  0.12880776
   0.89844213  0.95850040  0.13277775
   0.91231755  0.62881927  0.13466760
   0.76100429  0.64441318  0.12172973
   0.98049909  0.79429628  0.13288761
   0.82284581  0.79838667  0.13572263
   0.56486665  0.96274899  0.13355261
   0.23052123  0.95979891  0.13295890
   0.14726900  0.79277943  0.13278083
   0.39155935  0.96608869  0.13395309
   0.38092580  0.63789907  0.11828513
   0.22163618  0.62706103  0.13449005
   0.46294507  0.79867328  0.12211098
   0.30489642  0.79783619  0.13712136
   0.06533391  0.95840114  0.13348550
   0.50977499  0.65498719  0.18174022
   0.64926157  0.56932343  0.15750959
slab_Cel1-OPT                           
           1
    14.520619    0.000000    0.000000
     0.000000   12.522148    0.000000
     0.000000    0.000000   15.000000
   C    N    Au
    24    32     2
Direct configuration=    12
   0.06599858  0.40143443  0.13339112
   0.98429523  0.23506183  0.13341142
   0.22243773  0.39472531  0.13356243
   0.83329308  0.58075613  0.13133968
   0.14666724  0.23518786  0.13332741
   0.90942601  0.39530894  0.13294367
   0.56152867  0.38726116  0.13001092
   0.47788074  0.22909234  0.13378658
   0.73183647  0.38067643  0.13196042
   0.30514294  0.57897039  0.13147973
   0.64991255  0.22807087  0.13365128
   0.40416460  0.39514134  0.13276486
   0.81851152  0.91118999  0.13427066
   0.74414428  0.74650833  0.12930998
   0.97641582  0.90090529  0.13309865
   0.06554334  0.07694027  0.13338535
   0.90642937  0.73809122  0.13409559
   0.65782810  0.90003357  0.13264401
   0.31010616  0.91204727  0.13455469
   0.22269945  0.73678252  0.13457426
   0.47002246  0.90602185  0.13210782
   0.56517120  0.07833346  0.13336378
   0.38041944  0.74673344  0.12378237
   0.15419934  0.89942620  0.13304346
   0.98683597  0.45344778  0.13333902
   0.90510688  0.28827770  0.13328581
   0.14559847  0.45342723  0.13342394
   0.14650894  0.12900472  0.13336286
   0.98442775  0.12867014  0.13335151
   0.22639027  0.28806042  0.13331613
   0.06548320  0.29119732  0.13336115
   0.82353802  0.45321876  0.13275975
   0.48498777  0.44912120  0.12999415
   0.40091278  0.28878967  0.13442729
   0.64716281  0.42733792  0.12545586
   0.64747764  0.12482160  0.13321404
   0.48200250  0.12494821  0.13318564
   0.73576212  0.27503949  0.13466781
   0.56344253  0.28151258  0.13385221
   0.31043183  0.45605337  0.13364872
   0.73552221  0.95786868  0.13455188
   0.65977747  0.79192475  0.12799247
   0.89904133  0.96024911  0.13265625
   0.91389688  0.62926031  0.13504046
   0.76138413  0.64396941  0.11938726
   0.98174145  0.79488339  0.13282045
   0.82392778  0.79885980  0.13629480
   0.56422864  0.96191573  0.13352021
   0.22961124  0.96128096  0.13294144
   0.14579958  0.79305194  0.13273970
   0.39076946  0.96704956  0.13420477
   0.38061381  0.63729859  0.11610926
   0.22041492  0.62739399  0.13498970
   0.46348505  0.79881172  0.12067420
   0.30367638  0.79866933  0.13770921
   0.06524699  0.95885115  0.13345309
   0.50882817  0.65480377  0.18827316
   0.65011344  0.56992086  0.16146568
slab_Cel1-OPT                           
           1
    14.439535    0.000000    0.000000
     0.000000   12.515830    0.000000
     0.000000    0.000000   15.000000
   C    N    Au
    24    32     2
Direct configuration=    13
   0.06639972  0.40093104  0.13341211
   0.98489650  0.23449974  0.13344060
   0.22243234  0.39445768  0.13368964
   0.83692971  0.58250637  0.13012861
   0.14609324  0.23462245  0.13333063
   0.90970558  0.39479389  0.13278387
   0.56202132  0.38643919  0.12866962
   0.47607754  0.22680492  0.13403180
   0.73125003  0.37648467  0.13113998
   0.30438831  0.58341501  0.12964704
   0.65042227  0.22572694  0.13385414
   0.40312996  0.39372388  0.13250946
   0.82026444  0.91333520  0.13488666
   0.74546334  0.74683218  0.12768191